 argument  1 = input.nw
  NWChem w/ OpenMP: maximum threads =    1



============================== echo of input deck ==============================
 echo
 start H2
 title "H2"

 memory total 24 gb

 geometry units bohr
 symmetry c1
        H  0.00000000  0.00000000  0.00000000
        H  0.00000000  4.10  0.00000000
 end

 basis
   * library cc-pVQZ
 end

 mcscf
   active  2
   actelec 2
   multiplicity 1
   maxiter 40
   vectors input H2.mos
   vectors output H2.mos
 end

 task mcscf

 scf
   vectors input H2.mos
   vectors output H2-4.10.mos
   noscf
 end

 tce
   2eorb
   2emet 13
   ccsd
   maxiter 300
   diis 40
   lshift 0.2
 end

 set tce:print_integrals T
 set tce:qorb 2
 set tce:qela 1
 set tce:qelb 1

# set tce:qducc T
# set tce:nactv 1
# set tce:nonhf T
# set tce:ducc_model 6

 set tce:printtol 0.02

 task tce
================================================================================


                                         
                                         


             Northwest Computational Chemistry Package (NWChem) 7.0.1
             --------------------------------------------------------


                    Environmental Molecular Sciences Laboratory
                       Pacific Northwest National Laboratory
                                Richland, WA 99352

                              Copyright (c) 1994-2020
                       Pacific Northwest National Laboratory
                            Battelle Memorial Institute

             NWChem is an open-source computational chemistry package
                        distributed under the terms of the
                      Educational Community License (ECL) 2.0
             A copy of the license is included with this distribution
                              in the LICENSE.TXT file

                                  ACKNOWLEDGMENT
                                  --------------

            This software and its documentation were developed at the
            EMSL at Pacific Northwest National Laboratory, a multiprogram
            national laboratory, operated for the U.S. Department of Energy
            by Battelle under Contract Number DE-AC05-76RL01830. Support
            for this work was provided by the Department of Energy Office
            of Biological and Environmental Research, Office of Basic
            Energy Sciences, and the Office of Advanced Scientific Computing.


           Job information
           ---------------

    hostname        = WE46210
    program         = /home/baum612/code/nwchem/bin/LINUX64/nwchem
    date            = Thu Nov  9 13:51:13 2023

    compiled        = Mon_Nov_06_10:06:57_2023
    source          = /home/baum612/code/nwchem
    nwchem branch   = 7.0.0
    nwchem revision = nwchem_on_git-4191-g39d87d64de
    ga revision     = 5.8.1
    use scalapack   = F
    input           = input.nw
    prefix          = H2.
    data base       = ./H2.db
    status          = startup
    nproc           =        1
    time left       =     -1s



           Memory information
           ------------------

    heap     =  805306362 doubles =   6144.0 Mbytes
    stack    =  805306367 doubles =   6144.0 Mbytes
    global   = 1610612736 doubles =  12288.0 Mbytes (distinct from heap & stack)
    total    = 3221225465 doubles =  24576.0 Mbytes
    verify   = yes
    hardfail = no 


           Directory information
           ---------------------

  0 permanent = .
  0 scratch   = .




                                NWChem Input Module
                                -------------------


                                        H2
                                        --
 Turning off AUTOSYM since
 SYMMETRY directive was detected!


          ------
          auto-z
          ------
     1 autoz failed with cvr_scaling = 1.2 changing to 1.3
     2 autoz failed with cvr_scaling = 1.3 changing to 1.4
     3 autoz failed with cvr_scaling = 1.4 changing to 1.5
     4 autoz failed with cvr_scaling = 1.5 changing to 1.6
     5 autoz failed with cvr_scaling = 1.6 changing to 1.7

 AUTOZ failed to generate good internal coordinates.
 Cartesian coordinates will be used in optimizations.



                             Geometry "geometry" -> ""
                             -------------------------

 Output coordinates in a.u. (scale by  1.000000000 to convert to a.u.)

  No.       Tag          Charge          X              Y              Z
 ---- ---------------- ---------- -------------- -------------- --------------
    1 H                    1.0000     0.00000000    -2.05000000     0.00000000
    2 H                    1.0000     0.00000000     2.05000000     0.00000000

      Atomic Mass 
      ----------- 

      H                  1.007825


 Effective nuclear repulsion energy (a.u.)       0.2439024390

            Nuclear Dipole moment (a.u.) 
            ----------------------------
        X                 Y               Z
 ---------------- ---------------- ----------------
     0.0000000000     0.0000000000     0.0000000000


            XYZ format geometry
            -------------------
     2
 geometry
 H                     0.00000000    -1.08481336     0.00000000
 H                     0.00000000     1.08481336     0.00000000



 Summary of "ao basis" -> "" (cartesian)
 ------------------------------------------------------------------------------
       Tag                 Description            Shells   Functions and Types
 ---------------- ------------------------------  ------  ---------------------
 *                          cc-pVQZ                   on all atoms 


                      Basis "ao basis" -> "ao basis" (cartesian)
                      -----
  H (Hydrogen)
  ------------
            Exponent  Coefficients 
       -------------- ---------------------------------------------------------
  1 S  8.26400000E+01  0.002006
  1 S  1.24100000E+01  0.015343
  1 S  2.82400000E+00  0.075579

  2 S  7.97700000E-01  1.000000

  3 S  2.58100000E-01  1.000000

  4 S  8.98900000E-02  1.000000

  5 P  2.29200000E+00  1.000000

  6 P  8.38000000E-01  1.000000

  7 P  2.92000000E-01  1.000000

  8 D  2.06200000E+00  1.000000

  9 D  6.62000000E-01  1.000000

 10 F  1.39700000E+00  1.000000



 Summary of "ao basis" -> "ao basis" (cartesian)
 ------------------------------------------------------------------------------
       Tag                 Description            Shells   Functions and Types
 ---------------- ------------------------------  ------  ---------------------
 H                          cc-pVQZ                 10       35   4s3p2d1f



                            NWChem Direct MCSCF Module
                            --------------------------


                                        H2


     -----------------------------------
       Basis functions:             70
       Inactive shells:              0
       Active shells:                2
       Active electrons:             2
       Symmetry:                    a       
       Multiplicity:                 1
       Orbital rotations:          136
     -----------------------------------

     -----------------------------------
       E2 extrapolation:             F
       Conjugacy:                    T
       Micro CI relax:               T
       Canonical orbitals:           T
       Maximum iterations:          40
       Converge threshold:    1.00E-04
       Conjugacy resets:            20
       Initial levelshift:        0.10
     -----------------------------------

 Loading old vectors from job with title :

H2


   input molecular orbitals = ./H2.mos
  output molecular orbtials = ./H2.mos

       No. of determinants:             4


  Starting Orbital Energies
    -0.350283    -0.148606     0.269808     0.276032     0.453301     0.453301
     0.486758     0.583757     0.583757     0.816178     1.148888     1.211152
     1.765403     1.830350     1.830350     1.881395     1.881395     1.980310
     1.990437     1.990437     2.071537     2.071537     2.086480     2.106329
     2.106329     2.271492     2.271492     2.778415     3.102802     3.124856
     4.327253     4.429336     4.429336     4.498741     4.498741     4.777748
     6.040851     6.047360     6.047360     6.063694     6.063694     6.066550
     6.066550     6.066904     6.066904     6.070587     6.070587     6.099209
     6.099209     6.195032     8.061590     8.061590     8.065210     8.124544
     8.124544     8.147924     8.147924     8.257396     8.257396     8.678805
     9.623156     9.688196     9.697953     9.697953     9.707931     9.743305
     9.743305     9.942673    22.194427    23.016626

  Orbital Symmetry Irreps
a    a    a    a    a    a    a    a    a    a    a    a    a    a    a   
a    a    a    a    a    a    a    a    a    a    a    a    a    a    a   
a    a    a    a    a    a    a    a    a    a    a    a    a    a    a   
a    a    a    a    a    a    a    a    a    a    a    a    a    a    a   
a    a    a    a    a    a    a    a    a    a   

 Integral file          = ./H2.aoints.0
 Record size in doubles =  65536        No. of integs per rec  =  43688
 Max. records in memory =     99        Max. records in file   = 280236
 No. of bits per label  =      8        No. of bits per value  =     64


 #quartets = 2.172D+04 #integrals = 7.522D+05 #direct =  0.0% #cached =100.0%




          %%%%% MacroIteration   1 %%%%%


          Number of sigma calls:        2
                       o<<<<< (aa):             0.00
                       o<<<<< (bb):             0.00
                       o<<<<< (ab):             0.00
                       o<<<<< (total)           0.00
                       o<<<<< (aa) ff           0.00
                       o<<<<< (aa) gop          0.00
                       o<<<<< (aa) dot          0.00
                       o<<<<< (ab) str          0.00
                       o<<<<< (ab) gath         0.00
                       o<<<<< (ab) dotab        0.00
                       o<<<<< (ab) scat         0.00
                       o<<<<< (ab) sync         0.00
                       o<<<<< Density           0.00
                       o<<<<< Density one       0.00
                       o<<<<< Density two       0.00
                       o<<<<< Density ab        0.00
                       o<<<<< Spin adapt        0.00
                       o<<<<< Symm adapt        0.00

                       o<<<<< (ab) max sync:      0.00

           >>>| Valence CI:             -1.255153172856
           >>>| MCSCF energy:           -1.011250733832
           >>>| Gradient norm:          0.208128223D-02

                              ----- Line search ------

        step       energy         lsg     num-lsg   num-lsh   lsrat    time
      ------- ---------------- --------- --------- --------- ------- --------
       0.0000      -1.01125073 -1.34D-06  0.00D+00  0.00D+00 0.0D+00      0.3

          Number of sigma calls:        2
                       o<<<<< (aa):             0.00
                       o<<<<< (bb):             0.00
                       o<<<<< (ab):             0.00
                       o<<<<< (total)           0.00
                       o<<<<< (aa) ff           0.00
                       o<<<<< (aa) gop          0.00
                       o<<<<< (aa) dot          0.00
                       o<<<<< (ab) str          0.00
                       o<<<<< (ab) gath         0.00
                       o<<<<< (ab) dotab        0.00
                       o<<<<< (ab) scat         0.00
                       o<<<<< (ab) sync         0.00
                       o<<<<< Density           0.00
                       o<<<<< Density one       0.00
                       o<<<<< Density two       0.00
                       o<<<<< Density ab        0.00
                       o<<<<< Spin adapt        0.00
                       o<<<<< Symm adapt        0.00

                       o<<<<< (ab) max sync:      0.00
       1.0000      -1.01125144 -7.18D-08 -7.18D-08  1.26D-06 5.4D-02      0.3
     --- Orbitals canonicalized ---



          %%%%% MacroIteration   2 %%%%%


          Number of sigma calls:        2
                       o<<<<< (aa):             0.00
                       o<<<<< (bb):             0.00
                       o<<<<< (ab):             0.00
                       o<<<<< (total)           0.00
                       o<<<<< (aa) ff           0.00
                       o<<<<< (aa) gop          0.00
                       o<<<<< (aa) dot          0.00
                       o<<<<< (ab) str          0.00
                       o<<<<< (ab) gath         0.00
                       o<<<<< (ab) dotab        0.00
                       o<<<<< (ab) scat         0.00
                       o<<<<< (ab) sync         0.00
                       o<<<<< Density           0.00
                       o<<<<< Density one       0.00
                       o<<<<< Density two       0.00
                       o<<<<< Density ab        0.00
                       o<<<<< Spin adapt        0.00
                       o<<<<< Symm adapt        0.00

                       o<<<<< (ab) max sync:      0.00

           >>>| Valence CI:             -1.255153877182
           >>>| MCSCF energy:           -1.011251438158
           >>>| Gradient norm:          0.149644926D-03
     --- Conjugacy reset ---

                              ----- Line search ------

        step       energy         lsg     num-lsg   num-lsh   lsrat    time
      ------- ---------------- --------- --------- --------- ------- --------
       0.0000      -1.01125144 -9.15D-09  0.00D+00  0.00D+00 0.0D+00      0.4

          Number of sigma calls:        2
                       o<<<<< (aa):             0.00
                       o<<<<< (bb):             0.00
                       o<<<<< (ab):             0.00
                       o<<<<< (total)           0.00
                       o<<<<< (aa) ff           0.00
                       o<<<<< (aa) gop          0.00
                       o<<<<< (aa) dot          0.00
                       o<<<<< (ab) str          0.00
                       o<<<<< (ab) gath         0.00
                       o<<<<< (ab) dotab        0.00
                       o<<<<< (ab) scat         0.00
                       o<<<<< (ab) sync         0.00
                       o<<<<< Density           0.00
                       o<<<<< Density one       0.00
                       o<<<<< Density two       0.00
                       o<<<<< Density ab        0.00
                       o<<<<< Spin adapt        0.00
                       o<<<<< Symm adapt        0.00

                       o<<<<< (ab) max sync:      0.00
       1.0000      -1.01125144 -1.24D-09 -1.24D-09  7.90D-09 1.4D-01      0.5

          Number of sigma calls:        2
                       o<<<<< (aa):             0.00
                       o<<<<< (bb):             0.00
                       o<<<<< (ab):             0.00
                       o<<<<< (total)           0.00
                       o<<<<< (aa) ff           0.00
                       o<<<<< (aa) gop          0.00
                       o<<<<< (aa) dot          0.00
                       o<<<<< (ab) str          0.00
                       o<<<<< (ab) gath         0.00
                       o<<<<< (ab) dotab        0.00
                       o<<<<< (ab) scat         0.00
                       o<<<<< (ab) sync         0.00
                       o<<<<< Density           0.00
                       o<<<<< Density one       0.00
                       o<<<<< Density two       0.00
                       o<<<<< Density ab        0.00
                       o<<<<< Spin adapt        0.00
                       o<<<<< Symm adapt        0.00

                       o<<<<< (ab) max sync:      0.00
       1.1573      -1.01125144  1.00D-13  8.08D-14  7.90D-09 1.1D-05      0.5



          %%%%% MacroIteration   3 %%%%%


          Number of sigma calls:        1
                       o<<<<< (aa):             0.00
                       o<<<<< (bb):             0.00
                       o<<<<< (ab):             0.00
                       o<<<<< (total)           0.00
                       o<<<<< (aa) ff           0.00
                       o<<<<< (aa) gop          0.00
                       o<<<<< (aa) dot          0.00
                       o<<<<< (ab) str          0.00
                       o<<<<< (ab) gath         0.00
                       o<<<<< (ab) dotab        0.00
                       o<<<<< (ab) scat         0.00
                       o<<<<< (ab) sync         0.00
                       o<<<<< Density           0.00
                       o<<<<< Density one       0.00
                       o<<<<< Density two       0.00
                       o<<<<< Density ab        0.00
                       o<<<<< Spin adapt        0.00
                       o<<<<< Symm adapt        0.00

                       o<<<<< (ab) max sync:      0.00

           >>>| Valence CI:             -1.255153882475
           >>>| MCSCF energy:           -1.011251443451
           >>>| Gradient norm:          0.538665722D-05




     ==============================
            MCSCF Converged
     ==============================



          Canonical Eigenvalues

              1      
    1   -0.3471
    2   -0.1518
    3    0.2704
    4    0.2762
    5    0.4544
    6    0.4544
    7    0.4833
    8    0.5815
    9    0.5815
   10    0.8112
   11    1.1461
   12    1.2110
   13    1.7904
   14    1.8290
   15    1.8290
   16    1.8805
   17    1.8805
   18    1.9705
   19    1.9989
   20    1.9989
   21    2.0726
   22    2.0733
   23    2.0733
   24    2.1045
   25    2.1045
   26    2.2593
   27    2.2593
   28    2.7526
   29    3.1083
   30    3.1239
   31    4.3355
   32    4.4316
   33    4.4316
   34    4.4959
   35    4.4959
   36    4.7671
   37    6.0425
   38    6.0515
   39    6.0515
   40    6.0644
   41    6.0644
   42    6.0667
   43    6.0667
   44    6.0669
   45    6.0669
   46    6.0699
   47    6.0699
   48    6.0943
   49    6.0943
   50    6.1784
   51    8.0572
   52    8.0662
   53    8.0662
   54    8.1259
   55    8.1259
   56    8.1468
   57    8.1468
   58    8.2478
   59    8.2478
   60    8.6495
   61    9.6258
   62    9.6875
   63    9.6996
   64    9.6996
   65    9.6996
   66    9.7419
   67    9.7419
   68    9.9351
   69   22.2008
   70   22.9954


          Converged CI vector

   Index           Coefficient          Config. Occupation
         1         -0.85415831          1  1
         4          0.52001306          2  2

          Number of sigma calls:        1
                       o<<<<< (aa):             0.00
                       o<<<<< (bb):             0.00
                       o<<<<< (ab):             0.00
                       o<<<<< (total)           0.00
                       o<<<<< (aa) ff           0.00
                       o<<<<< (aa) gop          0.00
                       o<<<<< (aa) dot          0.00
                       o<<<<< (ab) str          0.00
                       o<<<<< (ab) gath         0.00
                       o<<<<< (ab) dotab        0.00
                       o<<<<< (ab) scat         0.00
                       o<<<<< (ab) sync         0.00
                       o<<<<< Density           0.00
                       o<<<<< Density one       0.00
                       o<<<<< Density two       0.00
                       o<<<<< Density ab        0.00
                       o<<<<< Spin adapt        0.00
                       o<<<<< Symm adapt        0.00

                       o<<<<< (ab) max sync:      0.00



          Natural orbital occupation numbers

              1      
    1    1.4592
    2    0.5408


          Number of sigma calls:        2
                       o<<<<< (aa):             0.00
                       o<<<<< (bb):             0.00
                       o<<<<< (ab):             0.00
                       o<<<<< (total)           0.00
                       o<<<<< (aa) ff           0.00
                       o<<<<< (aa) gop          0.00
                       o<<<<< (aa) dot          0.00
                       o<<<<< (ab) str          0.00
                       o<<<<< (ab) gath         0.00
                       o<<<<< (ab) dotab        0.00
                       o<<<<< (ab) scat         0.00
                       o<<<<< (ab) sync         0.00
                       o<<<<< Density           0.00
                       o<<<<< Density one       0.00
                       o<<<<< Density two       0.00
                       o<<<<< Density ab        0.00
                       o<<<<< Spin adapt        0.00
                       o<<<<< Symm adapt        0.00

                       o<<<<< (ab) max sync:      0.00


       Final MCSCF results 
       ------------------- 

       Total MCSCF energy =     -1.011251443451
            Gradient norm =      5.4D-06

    CPU time for solution =      0.6s
   Wall time for solution =      0.6s



                        Analysis of MCSCF natural orbitals
                        ----------------------------------

 Vector    1  Occ=1.459173D+00  E=-3.470739D-01  Symmetry=a
              MO Center=  6.1D-18, -4.0D-14, -2.0D-16, r^2= 1.9D+00
   Bfn.  Coefficient  Atom+Function         Bfn.  Coefficient  Atom+Function  
  ----- ------------  ---------------      ----- ------------  ---------------
     3      0.310711  1 H  s                 38      0.310711  2 H  s          
     4      0.203523  1 H  s                 39      0.203523  2 H  s          
     2      0.163804  1 H  s                 37      0.163804  2 H  s          

 Vector    2  Occ=5.408272D-01  E=-1.518056D-01  Symmetry=a
              MO Center= -3.9D-15,  3.1D-13, -6.9D-15, r^2= 2.1D+00
   Bfn.  Coefficient  Atom+Function         Bfn.  Coefficient  Atom+Function  
  ----- ------------  ---------------      ----- ------------  ---------------
     3      0.403838  1 H  s                 38     -0.403838  2 H  s          
     4      0.203703  1 H  s                 39     -0.203703  2 H  s          
     2      0.202395  1 H  s                 37     -0.202395  2 H  s          

 Vector    3  Occ=0.000000D+00  E= 2.703795D-01  Symmetry=a
              MO Center=  3.2D-16, -4.7D-12,  6.5D-16, r^2= 5.5D+00
   Bfn.  Coefficient  Atom+Function         Bfn.  Coefficient  Atom+Function  
  ----- ------------  ---------------      ----- ------------  ---------------
     3      1.945136  1 H  s                 38      1.945136  2 H  s          
     4     -1.303064  1 H  s                 39     -1.303064  2 H  s          
     9     -0.304356  1 H  py                44      0.304356  2 H  py         
     2     -0.226784  1 H  s                 37     -0.226784  2 H  s          
    23     -0.218876  1 H  dyy               58     -0.218876  2 H  dyy        

 Vector    4  Occ=0.000000D+00  E= 2.762195D-01  Symmetry=a
              MO Center=  5.4D-16,  4.6D-12,  1.3D-15, r^2= 7.3D+00
   Bfn.  Coefficient  Atom+Function         Bfn.  Coefficient  Atom+Function  
  ----- ------------  ---------------      ----- ------------  ---------------
     4     -1.956419  1 H  s                 39      1.956419  2 H  s          
     3      1.935824  1 H  s                 38     -1.935824  2 H  s          
     2     -0.246577  1 H  s                 37      0.246577  2 H  s          
    23     -0.213120  1 H  dyy               58      0.213120  2 H  dyy        
    20     -0.206507  1 H  dxx               25     -0.206507  1 H  dzz        

 Vector    5  Occ=0.000000D+00  E= 4.543889D-01  Symmetry=a
              MO Center=  7.1D-17, -6.9D-13,  1.7D-15, r^2= 2.6D+00
   Bfn.  Coefficient  Atom+Function         Bfn.  Coefficient  Atom+Function  
  ----- ------------  ---------------      ----- ------------  ---------------
    10      1.876915  1 H  pz                45      1.876915  2 H  pz         
    13     -1.015702  1 H  pz                48     -1.015702  2 H  pz         
    28     -0.755890  1 H  fxxz              33     -0.755821  1 H  fyyz       
    35     -0.755890  1 H  fzzz              63     -0.755890  2 H  fxxz       
    68     -0.755821  2 H  fyyz              70     -0.755890  2 H  fzzz       

 Vector    6  Occ=0.000000D+00  E= 4.543889D-01  Symmetry=a
              MO Center=  1.1D-15, -6.7D-13, -4.9D-17, r^2= 2.6D+00
   Bfn.  Coefficient  Atom+Function         Bfn.  Coefficient  Atom+Function  
  ----- ------------  ---------------      ----- ------------  ---------------
     8      1.876915  1 H  px                43      1.876915  2 H  px         
    11     -1.015702  1 H  px                46     -1.015702  2 H  px         
    26     -0.755890  1 H  fxxx              29     -0.755821  1 H  fxyy       
    31     -0.755890  1 H  fxzz              61     -0.755890  2 H  fxxx       
    64     -0.755821  2 H  fxyy              66     -0.755890  2 H  fxzz       

 Vector    7  Occ=0.000000D+00  E= 4.833324D-01  Symmetry=a
              MO Center= -9.5D-16, -7.1D-13, -1.4D-15, r^2= 2.6D+00
   Bfn.  Coefficient  Atom+Function         Bfn.  Coefficient  Atom+Function  
  ----- ------------  ---------------      ----- ------------  ---------------
     9      1.593266  1 H  py                44     -1.593266  2 H  py         
    12     -0.891257  1 H  py                47      0.891257  2 H  py         
    27     -0.655346  1 H  fxxy              34     -0.655346  1 H  fyzz       
    62      0.655346  2 H  fxxy              69      0.655346  2 H  fyzz       
    32     -0.643614  1 H  fyyy              67      0.643614  2 H  fyyy       

 Vector    8  Occ=0.000000D+00  E= 5.814637D-01  Symmetry=a
              MO Center=  1.0D-16,  7.0D-13,  5.3D-15, r^2= 3.0D+00
   Bfn.  Coefficient  Atom+Function         Bfn.  Coefficient  Atom+Function  
  ----- ------------  ---------------      ----- ------------  ---------------
    10      1.974835  1 H  pz                45     -1.974835  2 H  pz         
    13     -1.135809  1 H  pz                48      1.135809  2 H  pz         
    28     -0.790892  1 H  fxxz              33     -0.790300  1 H  fyyz       
    35     -0.790892  1 H  fzzz              63      0.790892  2 H  fxxz       
    68      0.790300  2 H  fyyz              70      0.790892  2 H  fzzz       

 Vector    9  Occ=0.000000D+00  E= 5.814637D-01  Symmetry=a
              MO Center=  3.0D-15,  6.7D-13,  8.5D-17, r^2= 3.0D+00
   Bfn.  Coefficient  Atom+Function         Bfn.  Coefficient  Atom+Function  
  ----- ------------  ---------------      ----- ------------  ---------------
     8      1.974835  1 H  px                43     -1.974835  2 H  px         
    11     -1.135809  1 H  px                46      1.135809  2 H  px         
    26     -0.790892  1 H  fxxx              29     -0.790300  1 H  fxyy       
    31     -0.790892  1 H  fxzz              61      0.790892  2 H  fxxx       
    64      0.790300  2 H  fxyy              66      0.790892  2 H  fxzz       

 Vector   10  Occ=0.000000D+00  E= 8.112432D-01  Symmetry=a
              MO Center=  1.4D-16,  5.9D-13,  3.4D-16, r^2= 3.9D+00
   Bfn.  Coefficient  Atom+Function         Bfn.  Coefficient  Atom+Function  
  ----- ------------  ---------------      ----- ------------  ---------------
     9      2.359377  1 H  py                44      2.359377  2 H  py         
    12     -1.577417  1 H  py                47     -1.577417  2 H  py         
    32     -0.928914  1 H  fyyy              67     -0.928914  2 H  fyyy       
    27     -0.914795  1 H  fxxy              34     -0.914795  1 H  fyzz       
    62     -0.914795  2 H  fxxy              69     -0.914795  2 H  fyzz       

 Vector   11  Occ=0.000000D+00  E= 1.146055D+00  Symmetry=a
              MO Center= -2.6D-16, -9.7D-13, -3.8D-16, r^2= 3.3D+00
   Bfn.  Coefficient  Atom+Function         Bfn.  Coefficient  Atom+Function  
  ----- ------------  ---------------      ----- ------------  ---------------
     3      3.528142  1 H  s                 38      3.528142  2 H  s          
     2     -1.388510  1 H  s                 37     -1.388510  2 H  s          
     4     -0.932216  1 H  s                 39     -0.932216  2 H  s          
    20     -0.667205  1 H  dxx               25     -0.667205  1 H  dzz        
    55     -0.667205  2 H  dxx               60     -0.667205  2 H  dzz        

 Vector   12  Occ=0.000000D+00  E= 1.210971D+00  Symmetry=a
              MO Center= -7.7D-16,  8.2D-13, -1.5D-15, r^2= 3.3D+00
   Bfn.  Coefficient  Atom+Function         Bfn.  Coefficient  Atom+Function  
  ----- ------------  ---------------      ----- ------------  ---------------
     3      4.059415  1 H  s                 38     -4.059415  2 H  s          
     2     -1.553710  1 H  s                 37      1.553710  2 H  s          
     4     -1.208136  1 H  s                 39      1.208136  2 H  s          
    23     -0.775646  1 H  dyy               58      0.775646  2 H  dyy        
    20     -0.718488  1 H  dxx               25     -0.718488  1 H  dzz        


 Wrote Lagrangian and 1- and 2-particle density matrices to ./H2.mcpdm


     Multipole analysis of the density
     ---------------------------------

     L   x y z        total        nuclear
     -   - - -        -----        -------
     0   0 0 0     -0.000000      2.000000

     1   1 0 0      0.000000      0.000000
     1   0 1 0      0.000000      0.000000
     1   0 0 1      0.000000      0.000000

     2   2 0 0     -2.069646      0.000000
     2   1 1 0      0.000000      0.000000
     2   1 0 1     -0.000000      0.000000
     2   0 2 0     -1.551949      8.405000
     2   0 1 1      0.000000      0.000000
     2   0 0 2     -2.069646      0.000000


  Mulliken analysis of the total density
  --------------------------------------

    Atom       Charge   Shell Charges
 -----------   ------   -------------------------------------------------------
    1 H    1     1.00   0.04  0.21  0.47  0.27  0.00 -0.00  0.00  0.00  0.00  0.00
    2 H    1     1.00   0.04  0.21  0.47  0.27  0.00 -0.00  0.00  0.00  0.00  0.00

    Mulliken analysis of the active space density
    ---------------------------------------------

    Atom       Charge   Shell Charges
 -----------   ------   -------------------------------------------------------
    1 H    1     1.00   0.04  0.21  0.47  0.27  0.00 -0.00  0.00  0.00  0.00  0.00
    2 H    1     1.00   0.04  0.21  0.47  0.27  0.00 -0.00  0.00  0.00  0.00  0.00

 Parallel integral file used      18 records with       0 large values


 Task  times  cpu:        0.6s     wall:        0.7s


                                NWChem Input Module
                                -------------------


                                 NWChem SCF Module
                                 -----------------


                                        H2



  ao basis        = "ao basis"
  functions       =    70
  atoms           =     2
  closed shells   =     1
  open shells     =     0
  charge          =   0.00
  wavefunction    = RHF 
  input vectors   = ./H2.mos
  output vectors  = ./H2-4.10.mos
  use symmetry    = F
  symmetry adapt  = F


 Summary of "ao basis" -> "ao basis" (cartesian)
 ------------------------------------------------------------------------------
       Tag                 Description            Shells   Functions and Types
 ---------------- ------------------------------  ------  ---------------------
 H                          cc-pVQZ                 10       35   4s3p2d1f



 Forming initial guess at       0.7s


 Loading old vectors from job with title :

H2


 Starting SCF solution at       0.7s



 ----------------------------------------------
         Quadratically convergent ROHF

 Convergence threshold     :          1.000E-04
 Maximum no. of iterations :           30
 Final Fock-matrix accuracy:          1.000E-07
 ----------------------------------------------


 Integral file          = ./H2.aoints.0
 Record size in doubles =  65536        No. of integs per rec  =  43688
 Max. records in memory =     99        Max. records in file   = 280287
 No. of bits per label  =      8        No. of bits per value  =     64


 #quartets = 2.090D+04 #integrals = 6.422D+05 #direct =  0.0% #cached =100.0%



       Final RHF  results 
       ------------------ 

         Total SCF energy =     -0.891234500154
      One-electron energy =     -1.558928395890
      Two-electron energy =      0.423791456712
 Nuclear repulsion energy =      0.243902439024

        Time for solution =      0.0s


             Final eigenvalues
             -----------------

              1      
    1   -0.3471
    2   -0.1518
    3    0.2704
    4    0.2762
    5    0.4544
    6    0.4544
    7    0.4833
    8    0.5815
    9    0.5815
   10    0.8112
   11    1.1461

                       ROHF Final Molecular Orbital Analysis
                       -------------------------------------

 Vector    1  Occ=2.000000D+00  E=-3.470739D-01
              MO Center=  6.1D-18, -4.0D-14, -2.0D-16, r^2= 1.9D+00
   Bfn.  Coefficient  Atom+Function         Bfn.  Coefficient  Atom+Function  
  ----- ------------  ---------------      ----- ------------  ---------------
     3      0.310711  1 H  s                 38      0.310711  2 H  s          
     4      0.203523  1 H  s                 39      0.203523  2 H  s          
     2      0.163804  1 H  s                 37      0.163804  2 H  s          

 Vector    2  Occ=0.000000D+00  E=-1.518056D-01
              MO Center= -3.9D-15,  3.1D-13, -6.9D-15, r^2= 2.1D+00
   Bfn.  Coefficient  Atom+Function         Bfn.  Coefficient  Atom+Function  
  ----- ------------  ---------------      ----- ------------  ---------------
     3      0.403838  1 H  s                 38     -0.403838  2 H  s          
     4      0.203703  1 H  s                 39     -0.203703  2 H  s          
     2      0.202395  1 H  s                 37     -0.202395  2 H  s          

 Vector    3  Occ=0.000000D+00  E= 2.703795D-01
              MO Center=  3.2D-16, -4.7D-12,  6.5D-16, r^2= 5.5D+00
   Bfn.  Coefficient  Atom+Function         Bfn.  Coefficient  Atom+Function  
  ----- ------------  ---------------      ----- ------------  ---------------
     3      1.945136  1 H  s                 38      1.945136  2 H  s          
     4     -1.303064  1 H  s                 39     -1.303064  2 H  s          
     9     -0.304356  1 H  py                44      0.304356  2 H  py         
     2     -0.226784  1 H  s                 37     -0.226784  2 H  s          
    23     -0.218876  1 H  dyy               58     -0.218876  2 H  dyy        

 Vector    4  Occ=0.000000D+00  E= 2.762195D-01
              MO Center=  5.4D-16,  4.6D-12,  1.3D-15, r^2= 7.3D+00
   Bfn.  Coefficient  Atom+Function         Bfn.  Coefficient  Atom+Function  
  ----- ------------  ---------------      ----- ------------  ---------------
     4     -1.956419  1 H  s                 39      1.956419  2 H  s          
     3      1.935824  1 H  s                 38     -1.935824  2 H  s          
     2     -0.246577  1 H  s                 37      0.246577  2 H  s          
    23     -0.213120  1 H  dyy               58      0.213120  2 H  dyy        
    20     -0.206507  1 H  dxx               25     -0.206507  1 H  dzz        

 Vector    5  Occ=0.000000D+00  E= 4.543889D-01
              MO Center=  7.1D-17, -6.9D-13,  1.7D-15, r^2= 2.6D+00
   Bfn.  Coefficient  Atom+Function         Bfn.  Coefficient  Atom+Function  
  ----- ------------  ---------------      ----- ------------  ---------------
    10      1.876915  1 H  pz                45      1.876915  2 H  pz         
    13     -1.015702  1 H  pz                48     -1.015702  2 H  pz         
    28     -0.755890  1 H  fxxz              33     -0.755821  1 H  fyyz       
    35     -0.755890  1 H  fzzz              63     -0.755890  2 H  fxxz       
    68     -0.755821  2 H  fyyz              70     -0.755890  2 H  fzzz       

 Vector    6  Occ=0.000000D+00  E= 4.543889D-01
              MO Center=  1.1D-15, -6.7D-13, -4.9D-17, r^2= 2.6D+00
   Bfn.  Coefficient  Atom+Function         Bfn.  Coefficient  Atom+Function  
  ----- ------------  ---------------      ----- ------------  ---------------
     8      1.876915  1 H  px                43      1.876915  2 H  px         
    11     -1.015702  1 H  px                46     -1.015702  2 H  px         
    26     -0.755890  1 H  fxxx              29     -0.755821  1 H  fxyy       
    31     -0.755890  1 H  fxzz              61     -0.755890  2 H  fxxx       
    64     -0.755821  2 H  fxyy              66     -0.755890  2 H  fxzz       

 Vector    7  Occ=0.000000D+00  E= 4.833324D-01
              MO Center= -9.5D-16, -7.1D-13, -1.4D-15, r^2= 2.6D+00
   Bfn.  Coefficient  Atom+Function         Bfn.  Coefficient  Atom+Function  
  ----- ------------  ---------------      ----- ------------  ---------------
     9      1.593266  1 H  py                44     -1.593266  2 H  py         
    12     -0.891257  1 H  py                47      0.891257  2 H  py         
    27     -0.655346  1 H  fxxy              34     -0.655346  1 H  fyzz       
    62      0.655346  2 H  fxxy              69      0.655346  2 H  fyzz       
    32     -0.643614  1 H  fyyy              67      0.643614  2 H  fyyy       

 Vector    8  Occ=0.000000D+00  E= 5.814637D-01
              MO Center=  1.0D-16,  7.0D-13,  5.3D-15, r^2= 3.0D+00
   Bfn.  Coefficient  Atom+Function         Bfn.  Coefficient  Atom+Function  
  ----- ------------  ---------------      ----- ------------  ---------------
    10      1.974835  1 H  pz                45     -1.974835  2 H  pz         
    13     -1.135809  1 H  pz                48      1.135809  2 H  pz         
    28     -0.790892  1 H  fxxz              33     -0.790300  1 H  fyyz       
    35     -0.790892  1 H  fzzz              63      0.790892  2 H  fxxz       
    68      0.790300  2 H  fyyz              70      0.790892  2 H  fzzz       

 Vector    9  Occ=0.000000D+00  E= 5.814637D-01
              MO Center=  3.0D-15,  6.7D-13,  8.5D-17, r^2= 3.0D+00
   Bfn.  Coefficient  Atom+Function         Bfn.  Coefficient  Atom+Function  
  ----- ------------  ---------------      ----- ------------  ---------------
     8      1.974835  1 H  px                43     -1.974835  2 H  px         
    11     -1.135809  1 H  px                46      1.135809  2 H  px         
    26     -0.790892  1 H  fxxx              29     -0.790300  1 H  fxyy       
    31     -0.790892  1 H  fxzz              61      0.790892  2 H  fxxx       
    64      0.790300  2 H  fxyy              66      0.790892  2 H  fxzz       

 Vector   10  Occ=0.000000D+00  E= 8.112432D-01
              MO Center=  1.4D-16,  5.9D-13,  3.4D-16, r^2= 3.9D+00
   Bfn.  Coefficient  Atom+Function         Bfn.  Coefficient  Atom+Function  
  ----- ------------  ---------------      ----- ------------  ---------------
     9      2.359377  1 H  py                44      2.359377  2 H  py         
    12     -1.577417  1 H  py                47     -1.577417  2 H  py         
    32     -0.928914  1 H  fyyy              67     -0.928914  2 H  fyyy       
    27     -0.914795  1 H  fxxy              34     -0.914795  1 H  fyzz       
    62     -0.914795  2 H  fxxy              69     -0.914795  2 H  fyzz       

 Vector   11  Occ=0.000000D+00  E= 1.146055D+00
              MO Center= -2.6D-16, -9.7D-13, -3.8D-16, r^2= 3.3D+00
   Bfn.  Coefficient  Atom+Function         Bfn.  Coefficient  Atom+Function  
  ----- ------------  ---------------      ----- ------------  ---------------
     3      3.528142  1 H  s                 38      3.528142  2 H  s          
     2     -1.388510  1 H  s                 37     -1.388510  2 H  s          
     4     -0.932216  1 H  s                 39     -0.932216  2 H  s          
    20     -0.667205  1 H  dxx               25     -0.667205  1 H  dzz        
    55     -0.667205  2 H  dxx               60     -0.667205  2 H  dzz        


 center of mass
 --------------
 x =   0.00000000 y =   0.00000000 z =   0.00000000

 moments of inertia (a.u.)
 ------------------
           8.470769125000           0.000000000000           0.000000000000
           0.000000000000           0.000000000000           0.000000000000
           0.000000000000           0.000000000000           8.470769125000

  Mulliken analysis of the total density
  --------------------------------------

    Atom       Charge   Shell Charges
 -----------   ------   -------------------------------------------------------
    1 H    1     1.00   0.04  0.19  0.45  0.31  0.00 -0.00  0.00  0.00  0.00  0.00
    2 H    1     1.00   0.04  0.19  0.45  0.31  0.00 -0.00  0.00  0.00  0.00  0.00

       Multipole analysis of the density wrt the origin
       ------------------------------------------------

     L   x y z        total         open         nuclear
     -   - - -        -----         ----         -------
     0   0 0 0     -0.000000      0.000000      2.000000

     1   1 0 0     -0.000000      0.000000      0.000000
     1   0 1 0      0.000000      0.000000      0.000000
     1   0 0 1      0.000000      0.000000      0.000000

     2   2 0 0     -2.206396      0.000000      0.000000
     2   1 1 0      0.000000      0.000000      0.000000
     2   1 0 1      0.000000      0.000000      0.000000
     2   0 2 0     -1.020351      0.000000      8.405000
     2   0 1 1     -0.000000      0.000000      0.000000
     2   0 0 2     -2.206396      0.000000      0.000000


 Parallel integral file used      15 records with       0 large values

 ------------------------------------
     Number of active orbitals      2
     Number of active alpha electrons      1
     Number of active beta electrons       1
 ------------------------------------
                   NWChem Extensible Many-Electron Theory Module
                   ---------------------------------------------

              ======================================================
                   This portion of the program was automatically
                  generated by a Tensor Contraction Engine (TCE).
                  The development of this portion of the program
                 and TCE was supported by US Department of Energy,
                Office of Science, Office of Basic Energy Science.
                      TCE is a product of Battelle and PNNL.
              Please cite: S.Hirata, J.Phys.Chem.A 107, 9887 (2003).
              ======================================================

                                        H2


            General Information
            -------------------
      Number of processors :     1
         Wavefunction type : Restricted Hartree-Fock
          No. of electrons :     2
           Alpha electrons :     1
            Beta electrons :     1
           No. of orbitals :   140
            Alpha orbitals :    70
             Beta orbitals :    70
        Alpha frozen cores :     0
         Beta frozen cores :     0
     Alpha frozen virtuals :    68
      Beta frozen virtuals :    68
         Spin multiplicity : singlet 
    Number of AO functions :    70
       Number of AO shells :    20
        Use of symmetry is : off
      Symmetry adaption is : off
         Schwarz screening : 0.10D-09

          Correlation Information
          -----------------------
          Calculation type : Coupled-cluster singles & doubles                           
   Perturbative correction : none                                                        
            Max iterations :      300
        Residual threshold : 0.10D-06
     T(0) DIIS level shift : 0.20D+00
     L(0) DIIS level shift : 0.00D+00
     T(1) DIIS level shift : 0.00D+00
     L(1) DIIS level shift : 0.00D+00
     T(R) DIIS level shift : 0.00D+00
     T(I) DIIS level shift : 0.00D+00
   CC-T/L Amplitude update : 20-th order DIIS
                I/O scheme : Global Array Library
        L-threshold :  0.10D-06
        EOM-threshold :  0.10D-06
 no EOMCCSD initial starts read in
 TCE RESTART OPTIONS
 READ_INT:   F
 WRITE_INT:  F
 READ_TA:    F
 WRITE_TA:   F
 READ_XA:    F
 WRITE_XA:   F
 READ_IN3:   F
 WRITE_IN3:  F
 SLICE:      F
 D4D5:       F
 quantumc:   T
 qrotation:  F
 pwtce:      F
 qducc:      F
 nacto:                         0
 nrotv:                         0
 nrot:                          0

            Memory Information
            ------------------
          Available GA space size is    1610607836 doubles
          Available MA space size is    1610610644 doubles

 Maximum block size supplied by input
 Maximum block size         1 doubles

 tile_dim =      1

 Block   Spin    Irrep     Size     Offset   Alpha
 -------------------------------------------------
   1    alpha     a      1 doubles       0       1
   2    beta      a      1 doubles       1       1
   3    alpha     a      1 doubles       2       3
   4    beta      a      1 doubles       3       3

 Global array virtual files algorithm will be used

 Parallel file system coherency ......... OK

 Integral file          = ./H2.aoints.0
 Record size in doubles =  65536        No. of integs per rec  =  43688
 Max. records in memory =     99        Max. records in file   = 280287
 No. of bits per label  =      8        No. of bits per value  =     64


 #quartets = 2.172D+04 #integrals = 7.659D+05 #direct =  0.0% #cached =100.0%


 Fock matrix recomputed
 1-e file size   =                4
 1-e file name   = ./H2.f1
 Cpu & wall time / sec            0.0            0.0
 4-electron integrals stored in orbital form

 v2    file size   =                6
 4-index algorithm nr.  13 is used
 imaxsize =       30
 imaxsize ichop =        0
 begin_one_electron_integrals
    1    1        -0.7794641979
    2    2        -0.6936901989
 end_one_electron_integrals
 begin_two_electron_integrals
    1    1    1    1        0.4237914571
    2    1    2    1        0.1971363389
    2    2    1    1        0.4350876928
    2    2    2    2        0.4560369286
 end_two_electron_integrals
 enrep_tce =   0.24390243902439021     
  EHF(A)             =        -0.89123450
  EHF(total)         =        -0.89123450
  Shift (HFtot-HFA)  =        -0.00000000
 Cpu & wall time / sec            0.7            0.7
 T1-number-of-tasks                    1

 t1 file size   =                1
 t1 file name   = ./H2.t1
 t1 file handle =       -998
 T2-number-of-boxes                    2

 t2 file size   =                2
 t2 file name   = ./H2.t2
 t2 file handle =       -996
CCSD iterations
 ---------------------------------------------------------
 Iter          Residuum       Correlation     Cpu    Wall 
 ---------------------------------------------------------
NEW TASK SCHEDULING
CCSD_T1_NTS --- OK
CCSD_T2_NTS --- OK
    1   0.0440332567390  -0.0995111241786     0.0     0.0
    2   0.0209846099333  -0.1104917100511     0.0     0.0
    3   0.0095700992021  -0.1157246482537     0.0     0.0
    4   0.0042722351006  -0.1181111466387     0.0     0.0
    5   0.0018885348504  -0.1191765151321     0.0     0.0
    6   0.0008311537388  -0.1196474596098     0.0     0.0
    7   0.0003650819086  -0.1198547246562     0.0     0.0
    8   0.0001602234247  -0.1199457652366     0.0     0.0
    9   0.0000702906728  -0.1199857201980     0.0     0.0
   10   0.0000308316950  -0.1200032486032     0.0     0.0
   11   0.0000135227655  -0.1200109371118     0.0     0.0
   12   0.0000059308888  -0.1200143092878     0.0     0.0
   13   0.0000026011654  -0.1200157882752     0.0     0.0
   14   0.0000011408104  -0.1200164369286     0.0     0.0
   15   0.0000005003315  -0.1200167214128     0.0     0.0
   16   0.0000002194329  -0.1200168461806     0.0     0.0
   17   0.0000000962377  -0.1200169009006     0.0     0.0
 -----------------------------------------------------------------
 Iterations converged
 CCSD correlation energy / hartree =        -0.120016900900625
 CCSD total energy / hartree       =        -1.011251401054614

 Singles contributions

 Doubles contributions
     2a   (alpha)     2a   (beta ) ---     1a   (alpha)     1a   (beta )       -0.6088015104
 Ground state specification:
 exp(T)|Ref>~(1+T)|Ref>
 ------- a(p)+/a(q) strings ----------

 singles norm

 doubles norm

 Reference string
  0.85415839423631801      :(1a)+ (1b)+ |0>

 Singles strings

 Doubles strings
 -0.52001292056605131      :(2a)+ (2b)+ (1b)  (1a)  (1a)+ (1b)+ |0>
 -------------------------------------

 Parallel integral file used      18 records with       0 large values


 Task  times  cpu:        1.0s     wall:        1.0s


                                NWChem Input Module
                                -------------------


 Summary of allocated global arrays
-----------------------------------
  No active global arrays


MA_summarize_allocated_blocks: starting scan ...
MA_summarize_allocated_blocks: scan completed: 0 heap blocks, 0 stack blocks
MA usage statistics:

	allocation statistics:
					      heap	     stack
					      ----	     -----
	current number of blocks	         0	         0
	maximum number of blocks	        18	        42
	current total bytes		         0	         0
	maximum total bytes		  51983048	  61977432
	maximum total K-bytes		     51984	     61978
	maximum total M-bytes		        52	        62


                                     CITATION
                                     --------
                Please cite the following reference when publishing
                           results obtained with NWChem:

          E. Apra, E. J. Bylaska, W. A. de Jong, N. Govind, K. Kowalski,
       T. P. Straatsma, M. Valiev, H. J. J. van Dam, Y. Alexeev, J. Anchell,
       V. Anisimov, F. W. Aquino, R. Atta-Fynn, J. Autschbach, N. P. Bauman,
     J. C. Becca, D. E. Bernholdt, K. Bhaskaran-Nair, S. Bogatko, P. Borowski,
         J. Boschen, J. Brabec, A. Bruner, E. Cauet, Y. Chen, G. N. Chuev,
      C. J. Cramer, J. Daily, M. J. O. Deegan, T. H. Dunning Jr., M. Dupuis,
   K. G. Dyall, G. I. Fann, S. A. Fischer, A. Fonari, H. Fruchtl, L. Gagliardi,
      J. Garza, N. Gawande, S. Ghosh, K. Glaesemann, A. W. Gotz, J. Hammond,
       V. Helms, E. D. Hermes, K. Hirao, S. Hirata, M. Jacquelin, L. Jensen,
   B. G. Johnson, H. Jonsson, R. A. Kendall, M. Klemm, R. Kobayashi, V. Konkov,
      S. Krishnamoorthy, M. Krishnan, Z. Lin, R. D. Lins, R. J. Littlefield,
      A. J. Logsdail, K. Lopata, W. Ma, A. V. Marenich, J. Martin del Campo,
   D. Mejia-Rodriguez, J. E. Moore, J. M. Mullin, T. Nakajima, D. R. Nascimento,
    J. A. Nichols, P. J. Nichols, J. Nieplocha, A. Otero-de-la-Roza, B. Palmer,
    A. Panyala, T. Pirojsirikul, B. Peng, R. Peverati, J. Pittner, L. Pollack,
   R. M. Richard, P. Sadayappan, G. C. Schatz, W. A. Shelton, D. W. Silverstein,
   D. M. A. Smith, T. A. Soares, D. Song, M. Swart, H. L. Taylor, G. S. Thomas,
            V. Tipparaju, D. G. Truhlar, K. Tsemekhman, T. Van Voorhis,
      A. Vazquez-Mayagoitia, P. Verma, O. Villa, A. Vishnu, K. D. Vogiatzis,
        D. Wang, J. H. Weare, M. J. Williamson, T. L. Windus, K. Wolinski,
        A. T. Wong, Q. Wu, C. Yang, Q. Yu, M. Zacharias, Z. Zhang, Y. Zhao,
                                and R. J. Harrison
                        "NWChem: Past, present, and future
                         J. Chem. Phys. 152, 184102 (2020)
                               doi:10.1063/5.0004997

                                      AUTHORS
                                      -------
  E. Apra, E. J. Bylaska, N. Govind, K. Kowalski, M. Valiev, D. Mejia-Rodriguez,
       A. Kunitsa, N. P. Bauman, A. Panyala, W. A. de Jong, T. P. Straatsma,
        H. J. J. van Dam, D. Wang, T. L. Windus, J. Hammond, J. Autschbach,
    K. Bhaskaran-Nair, J. Brabec, K. Lopata, S. A. Fischer, S. Krishnamoorthy,
     M. Jacquelin, W. Ma, M. Klemm, O. Villa, Y. Chen, V. Anisimov, F. Aquino,
    S. Hirata, M. T. Hackler, Eric Hermes, L. Jensen, J. E. Moore, J. C. Becca,
      V. Konjkov, T. Risthaus, M. Malagoli, A. Marenich, A. Otero-de-la-Roza,
        J. Mullin, P. Nichols, R. Peverati, J. Pittner, Y. Zhao, P.-D. Fan,
        A. Fonari, M. J. Williamson, R. J. Harrison, J. R. Rehr, M. Dupuis,
     D. Silverstein, D. M. A. Smith, J. Nieplocha, V. Tipparaju, M. Krishnan,
     B. E. Van Kuiken, A. Vazquez-Mayagoitia, M. Swart, Q. Wu, T. Van Voorhis,
     A. A. Auer, M. Nooijen, L. D. Crosby, E. Brown, G. Cisneros, G. I. Fann,
   H. Fruchtl, J. Garza, K. Hirao, R. A. Kendall, J. A. Nichols, K. Tsemekhman,
    K. Wolinski, J. Anchell, D. E. Bernholdt, P. Borowski, T. Clark, D. Clerc,
   H. Dachsel, M. J. O. Deegan, K. Dyall, D. Elwood, E. Glendening, M. Gutowski,
   A. C. Hess, J. Jaffe, B. G. Johnson, J. Ju, R. Kobayashi, R. Kutteh, Z. Lin,
   R. Littlefield, X. Long, B. Meng, T. Nakajima, S. Niu, L. Pollack, M. Rosing,
   K. Glaesemann, G. Sandrone, M. Stave, H. Taylor, G. Thomas, J. H. van Lenthe,
                               A. T. Wong, Z. Zhang.

 Total times  cpu:        1.5s     wall:        1.6s
