 argument  1 = input.nw
  NWChem w/ OpenMP: maximum threads =    1



============================== echo of input deck ==============================
 echo
 start H2O
 title "H2O"

 memory total 24 gb

 geometry units bohr
 symmetry c1
        O  0.00000000  0.00000000  0.00000000
        H  0.00000000  1.57614975  0.00000000
        H  1.72558000 -0.64860000  0.00000000
 end

 basis spherical
   * library cc-pVTZ
 end

 mcscf
   active  8
   actelec 10
   multiplicity 1
   maxiter 40
   vectors input h2o.mos
   vectors output h2o.mos
 end

 task mcscf

 scf
   vectors input h2o.mos
   vectors output h2o-trash.mos
   noscf
 end

 tce
   2eorb
   2emet 13
   ccsd
 end

# set tce:print_integrals T
# set tce:qorb 8
# set tce:qela 5
# set tce:qelb 5

 set tce:qducc T
 set tce:nactv 3
 set tce:nonhf T
 set tce:ducc_model 6

 set tce:printtol 0.02

 task tce
================================================================================


                                         
                                         


             Northwest Computational Chemistry Package (NWChem) 7.0.1
             --------------------------------------------------------


                    Environmental Molecular Sciences Laboratory
                       Pacific Northwest National Laboratory
                                Richland, WA 99352

                              Copyright (c) 1994-2020
                       Pacific Northwest National Laboratory
                            Battelle Memorial Institute

             NWChem is an open-source computational chemistry package
                        distributed under the terms of the
                      Educational Community License (ECL) 2.0
             A copy of the license is included with this distribution
                              in the LICENSE.TXT file

                                  ACKNOWLEDGMENT
                                  --------------

            This software and its documentation were developed at the
            EMSL at Pacific Northwest National Laboratory, a multiprogram
            national laboratory, operated for the U.S. Department of Energy
            by Battelle under Contract Number DE-AC05-76RL01830. Support
            for this work was provided by the Department of Energy Office
            of Biological and Environmental Research, Office of Basic
            Energy Sciences, and the Office of Advanced Scientific Computing.


           Job information
           ---------------

    hostname        = WE46210
    program         = /home/baum612/code/nwchem/bin/LINUX64/nwchem
    date            = Fri Feb 16 18:10:27 2024

    compiled        = Fri_Feb_16_11:09:52_2024
    source          = /home/baum612/code/nwchem
    nwchem branch   = 7.0.0
    nwchem revision = nwchem_on_git-4191-g39d87d64de
    ga revision     = 5.8.1
    use scalapack   = F
    input           = input.nw
    prefix          = H2O.
    data base       = ./H2O.db
    status          = startup
    nproc           =        1
    time left       =     -1s



           Memory information
           ------------------

    heap     =  805306362 doubles =   6144.0 Mbytes
    stack    =  805306367 doubles =   6144.0 Mbytes
    global   = 1610612736 doubles =  12288.0 Mbytes (distinct from heap & stack)
    total    = 3221225465 doubles =  24576.0 Mbytes
    verify   = yes
    hardfail = no 


           Directory information
           ---------------------

  0 permanent = .
  0 scratch   = .




                                NWChem Input Module
                                -------------------


                                        H2O
                                        ---
 Turning off AUTOSYM since
 SYMMETRY directive was detected!


          ------
          auto-z
          ------
  no constraints, skipping    0.0000000000000000     
  no constraints, skipping    0.0000000000000000     


                             Geometry "geometry" -> ""
                             -------------------------

 Output coordinates in a.u. (scale by  1.000000000 to convert to a.u.)

  No.       Tag          Charge          X              Y              Z
 ---- ---------------- ---------- -------------- -------------- --------------
    1 O                    8.0000    -0.17255800    -0.09275498     0.00000000
    2 H                    1.0000    -0.17255800     1.48339478     0.00000000
    3 H                    1.0000     1.55302200    -0.74135498     0.00000000

      Atomic Mass 
      ----------- 

      O                 15.994910
      H                  1.007825


 Effective nuclear repulsion energy (a.u.)       9.7705232813

            Nuclear Dipole moment (a.u.) 
            ----------------------------
        X                 Y               Z
 ---------------- ---------------- ----------------
    -0.0000000000     0.0000000000     0.0000000000



                                Z-matrix (autoz)
                                -------- 

 Units are Angstrom for bonds and degrees for angles

      Type          Name      I     J     K     L     M      Value
      ----------- --------  ----- ----- ----- ----- ----- ----------
    1 Stretch                  1     2                       0.83406
    2 Stretch                  1     3                       0.97551
    3 Bend                     2     1     3               110.59992


            XYZ format geometry
            -------------------
     3
 geometry
 O                    -0.09131377    -0.04908382     0.00000000
 H                    -0.09131377     0.78497877     0.00000000
 H                     0.82182391    -0.39230819     0.00000000

 ==============================================================================
                                internuclear distances
 ------------------------------------------------------------------------------
       center one      |      center two      | atomic units |       a.u.
 ------------------------------------------------------------------------------
    2 H                |   1 O                |     1.57615  |     1.57615
    3 H                |   1 O                |     1.84345  |     1.84345
 ------------------------------------------------------------------------------
                         number of included internuclear distances:          2
 ==============================================================================



 ==============================================================================
                                 internuclear angles
 ------------------------------------------------------------------------------
        center 1       |       center 2       |       center 3       |  degrees
 ------------------------------------------------------------------------------
    2 H                |   1 O                |   3 H                |   110.60
 ------------------------------------------------------------------------------
                            number of included internuclear angles:          1
 ==============================================================================





 Summary of "ao basis" -> "" (spherical)
 ------------------------------------------------------------------------------
       Tag                 Description            Shells   Functions and Types
 ---------------- ------------------------------  ------  ---------------------
 *                          cc-pVTZ                   on all atoms 


                      Basis "ao basis" -> "ao basis" (spherical)
                      -----
  O (Oxygen)
  ----------
            Exponent  Coefficients 
       -------------- ---------------------------------------------------------
  1 S  1.53300000E+04  0.000508
  1 S  2.29900000E+03  0.003929
  1 S  5.22400000E+02  0.020243
  1 S  1.47300000E+02  0.079181
  1 S  4.75500000E+01  0.230687
  1 S  1.67600000E+01  0.433118
  1 S  6.20700000E+00  0.350260
  1 S  6.88200000E-01 -0.008154

  2 S  1.53300000E+04 -0.000115
  2 S  2.29900000E+03 -0.000895
  2 S  5.22400000E+02 -0.004636
  2 S  1.47300000E+02 -0.018724
  2 S  4.75500000E+01 -0.058463
  2 S  1.67600000E+01 -0.136463
  2 S  6.20700000E+00 -0.175740
  2 S  6.88200000E-01  0.603418

  3 S  1.75200000E+00  1.000000

  4 S  2.38400000E-01  1.000000

  5 P  3.44600000E+01  0.015928
  5 P  7.74900000E+00  0.099740
  5 P  2.28000000E+00  0.310492

  6 P  7.15600000E-01  1.000000

  7 P  2.14000000E-01  1.000000

  8 D  2.31400000E+00  1.000000

  9 D  6.45000000E-01  1.000000

 10 F  1.42800000E+00  1.000000

  H (Hydrogen)
  ------------
            Exponent  Coefficients 
       -------------- ---------------------------------------------------------
  1 S  3.38700000E+01  0.006068
  1 S  5.09500000E+00  0.045308
  1 S  1.15900000E+00  0.202822

  2 S  3.25800000E-01  1.000000

  3 S  1.02700000E-01  1.000000

  4 P  1.40700000E+00  1.000000

  5 P  3.88000000E-01  1.000000

  6 D  1.05700000E+00  1.000000



 Summary of "ao basis" -> "ao basis" (spherical)
 ------------------------------------------------------------------------------
       Tag                 Description            Shells   Functions and Types
 ---------------- ------------------------------  ------  ---------------------
 O                          cc-pVTZ                 10       30   4s3p2d1f
 H                          cc-pVTZ                  6       14   3s2p1d



                            NWChem Direct MCSCF Module
                            --------------------------


                                        H2O


     -----------------------------------
       Basis functions:             58
       Inactive shells:              0
       Active shells:                8
       Active electrons:            10
       Symmetry:                    a       
       Multiplicity:                 1
       Orbital rotations:          400
     -----------------------------------

     -----------------------------------
       E2 extrapolation:             F
       Conjugacy:                    T
       Micro CI relax:               T
       Canonical orbitals:           T
       Maximum iterations:          40
       Converge threshold:    1.00E-04
       Conjugacy resets:            20
       Initial levelshift:        0.10
     -----------------------------------

 Loading old vectors from job with title :

H2O


   input molecular orbitals = ./h2o.mos
  output molecular orbtials = ./h2o.mos

       No. of determinants:          3136


  Starting Orbital Energies
   -20.532691    -1.381275    -0.773748    -0.591865    -0.530087    -0.025610
    -0.020555    -0.015982     0.278814     0.334691     0.617460     0.653102
     0.809697     0.856048     0.974049     1.079520     1.206596     1.371036
     1.537980     1.997744     2.008949     2.097098     2.143416     2.187960
     2.627118     2.896236     3.398509     3.524975     3.539615     3.600986
     3.670991     3.867150     3.948914     3.963669     3.990225     4.038137
     4.207706     4.421766     4.497502     4.578702     4.704192     4.883302
     5.315169     5.427549     5.606989     6.112757     6.628380     6.872330
     6.915036     7.010136     7.085938     7.160069     7.487835     7.561848
     7.599902     7.978892     8.438011    13.815850

  Orbital Symmetry Irreps
a    a    a    a    a    a    a    a    a    a    a    a    a    a    a   
a    a    a    a    a    a    a    a    a    a    a    a    a    a    a   
a    a    a    a    a    a    a    a    a    a    a    a    a    a    a   
a    a    a    a    a    a    a    a    a    a    a    a    a   

 Integral file          = ./H2O.aoints.0
 Record size in doubles =  65536        No. of integs per rec  =  43688
 Max. records in memory =     49        Max. records in file   = 252524
 No. of bits per label  =      8        No. of bits per value  =     64


 #quartets = 3.213D+04 #integrals = 6.608D+05 #direct =  0.0% #cached =100.0%




          %%%%% MacroIteration   1 %%%%%


          Number of sigma calls:       15
                       o<<<<< (aa):             0.00
                       o<<<<< (bb):             0.00
                       o<<<<< (ab):             0.07
                       o<<<<< (total)           0.08
                       o<<<<< (aa) ff           0.00
                       o<<<<< (aa) gop          0.00
                       o<<<<< (aa) dot          0.00
                       o<<<<< (ab) str          0.00
                       o<<<<< (ab) gath         0.00
                       o<<<<< (ab) dotab        0.00
                       o<<<<< (ab) scat         0.00
                       o<<<<< (ab) sync         0.00
                       o<<<<< Density           0.02
                       o<<<<< Density one       0.00
                       o<<<<< Density two       0.00
                       o<<<<< Density ab        0.01
                       o<<<<< Spin adapt        0.35
                       o<<<<< Symm adapt        0.00

                       o<<<<< (ab) max sync:      0.00

           >>>| Valence CI:            -85.897710636664
           >>>| MCSCF energy:          -76.127187355402
           >>>| Gradient norm:          0.303297433D-01

                              ----- Line search ------

        step       energy         lsg     num-lsg   num-lsh   lsrat    time
      ------- ---------------- --------- --------- --------- ------- --------
       0.0000     -76.12718736 -7.05D-05  0.00D+00  0.00D+00 0.0D+00      1.3

          Number of sigma calls:       15
                       o<<<<< (aa):             0.00
                       o<<<<< (bb):             0.00
                       o<<<<< (ab):             0.05
                       o<<<<< (total)           0.06
                       o<<<<< (aa) ff           0.00
                       o<<<<< (aa) gop          0.00
                       o<<<<< (aa) dot          0.00
                       o<<<<< (ab) str          0.00
                       o<<<<< (ab) gath         0.00
                       o<<<<< (ab) dotab        0.00
                       o<<<<< (ab) scat         0.00
                       o<<<<< (ab) sync         0.00
                       o<<<<< Density           0.01
                       o<<<<< Density one       0.00
                       o<<<<< Density two       0.00
                       o<<<<< Density ab        0.01
                       o<<<<< Spin adapt        0.31
                       o<<<<< Symm adapt        0.00

                       o<<<<< (ab) max sync:      0.00
       1.0000     -76.12722371 -2.15D-06 -2.16D-06  6.84D-05 3.1D-02      1.8
     --- Orbitals canonicalized ---



          %%%%% MacroIteration   2 %%%%%


          Number of sigma calls:       12
                       o<<<<< (aa):             0.00
                       o<<<<< (bb):             0.00
                       o<<<<< (ab):             0.05
                       o<<<<< (total)           0.05
                       o<<<<< (aa) ff           0.00
                       o<<<<< (aa) gop          0.00
                       o<<<<< (aa) dot          0.00
                       o<<<<< (ab) str          0.00
                       o<<<<< (ab) gath         0.00
                       o<<<<< (ab) dotab        0.00
                       o<<<<< (ab) scat         0.00
                       o<<<<< (ab) sync         0.00
                       o<<<<< Density           0.01
                       o<<<<< Density one       0.00
                       o<<<<< Density two       0.00
                       o<<<<< Density ab        0.00
                       o<<<<< Spin adapt        0.29
                       o<<<<< Symm adapt        0.00

                       o<<<<< (ab) max sync:      0.00

           >>>| Valence CI:            -85.897746993081
           >>>| MCSCF energy:          -76.127223711818
           >>>| Gradient norm:          0.200299581D-02
     --- Warning:    2 Hessian diagonals < 0.05 ---
     --- Conjugacy reset ---

                              ----- Line search ------

        step       energy         lsg     num-lsg   num-lsh   lsrat    time
      ------- ---------------- --------- --------- --------- ------- --------
       0.0000     -76.12722371 -7.53D-07  0.00D+00  0.00D+00 0.0D+00      2.5

          Number of sigma calls:       10
                       o<<<<< (aa):             0.00
                       o<<<<< (bb):             0.00
                       o<<<<< (ab):             0.03
                       o<<<<< (total)           0.04
                       o<<<<< (aa) ff           0.00
                       o<<<<< (aa) gop          0.00
                       o<<<<< (aa) dot          0.00
                       o<<<<< (ab) str          0.00
                       o<<<<< (ab) gath         0.00
                       o<<<<< (ab) dotab        0.00
                       o<<<<< (ab) scat         0.00
                       o<<<<< (ab) sync         0.00
                       o<<<<< Density           0.01
                       o<<<<< Density one       0.00
                       o<<<<< Density two       0.00
                       o<<<<< Density ab        0.01
                       o<<<<< Spin adapt        0.22
                       o<<<<< Symm adapt        0.00

                       o<<<<< (ab) max sync:      0.00
       1.0000     -76.12722424 -3.03D-07 -3.03D-07  4.50D-07 4.0D-01      2.9

          Number of sigma calls:       10
                       o<<<<< (aa):             0.00
                       o<<<<< (bb):             0.00
                       o<<<<< (ab):             0.04
                       o<<<<< (total)           0.04
                       o<<<<< (aa) ff           0.00
                       o<<<<< (aa) gop          0.00
                       o<<<<< (aa) dot          0.00
                       o<<<<< (ab) str          0.00
                       o<<<<< (ab) gath         0.00
                       o<<<<< (ab) dotab        0.00
                       o<<<<< (ab) scat         0.00
                       o<<<<< (ab) sync         0.00
                       o<<<<< Density           0.00
                       o<<<<< Density one       0.00
                       o<<<<< Density two       0.00
                       o<<<<< Density ab        0.00
                       o<<<<< Spin adapt        0.25
                       o<<<<< Symm adapt        0.00

                       o<<<<< (ab) max sync:      0.00
       1.6749     -76.12722434 -9.55D-10 -8.90D-10  4.48D-07 1.3D-03      3.3



          %%%%% MacroIteration   3 %%%%%


          Number of sigma calls:        1
                       o<<<<< (aa):             0.00
                       o<<<<< (bb):             0.00
                       o<<<<< (ab):             0.00
                       o<<<<< (total)           0.00
                       o<<<<< (aa) ff           0.00
                       o<<<<< (aa) gop          0.00
                       o<<<<< (aa) dot          0.00
                       o<<<<< (ab) str          0.00
                       o<<<<< (ab) gath         0.00
                       o<<<<< (ab) dotab        0.00
                       o<<<<< (ab) scat         0.00
                       o<<<<< (ab) sync         0.00
                       o<<<<< Density           0.01
                       o<<<<< Density one       0.00
                       o<<<<< Density two       0.00
                       o<<<<< Density ab        0.01
                       o<<<<< Spin adapt        0.00
                       o<<<<< Symm adapt        0.00

                       o<<<<< (ab) max sync:      0.00

           >>>| Valence CI:            -85.897747623837
           >>>| MCSCF energy:          -76.127224342573
           >>>| Gradient norm:          0.513088251D-03
     --- Warning:    2 Hessian diagonals < 0.05 ---

                              ----- Line search ------

        step       energy         lsg     num-lsg   num-lsh   lsrat    time
      ------- ---------------- --------- --------- --------- ------- --------
       0.0000     -76.12722434 -1.15D-07  0.00D+00  0.00D+00 0.0D+00      3.5

          Number of sigma calls:       10
                       o<<<<< (aa):             0.00
                       o<<<<< (bb):             0.00
                       o<<<<< (ab):             0.05
                       o<<<<< (total)           0.05
                       o<<<<< (aa) ff           0.00
                       o<<<<< (aa) gop          0.00
                       o<<<<< (aa) dot          0.00
                       o<<<<< (ab) str          0.00
                       o<<<<< (ab) gath         0.00
                       o<<<<< (ab) dotab        0.00
                       o<<<<< (ab) scat         0.00
                       o<<<<< (ab) sync         0.00
                       o<<<<< Density           0.01
                       o<<<<< Density one       0.00
                       o<<<<< Density two       0.00
                       o<<<<< Density ab        0.00
                       o<<<<< Spin adapt        0.27
                       o<<<<< Symm adapt        0.00

                       o<<<<< (ab) max sync:      0.00
       1.0000     -76.12722443 -6.61D-08 -6.61D-08  4.85D-08 5.8D-01      3.9

          Number of sigma calls:       10
                       o<<<<< (aa):             0.00
                       o<<<<< (bb):             0.00
                       o<<<<< (ab):             0.05
                       o<<<<< (total)           0.05
                       o<<<<< (aa) ff           0.00
                       o<<<<< (aa) gop          0.00
                       o<<<<< (aa) dot          0.00
                       o<<<<< (ab) str          0.00
                       o<<<<< (ab) gath         0.00
                       o<<<<< (ab) dotab        0.00
                       o<<<<< (ab) scat         0.00
                       o<<<<< (ab) sync         0.00
                       o<<<<< Density           0.01
                       o<<<<< Density one       0.00
                       o<<<<< Density two       0.00
                       o<<<<< Density ab        0.01
                       o<<<<< Spin adapt        0.22
                       o<<<<< Symm adapt        0.00

                       o<<<<< (ab) max sync:      0.00
       2.3636     -76.12722448 -7.52D-11 -6.83D-11  4.84D-08 6.6D-04      4.3



          %%%%% MacroIteration   4 %%%%%


          Number of sigma calls:        1
                       o<<<<< (aa):             0.00
                       o<<<<< (bb):             0.00
                       o<<<<< (ab):             0.01
                       o<<<<< (total)           0.01
                       o<<<<< (aa) ff           0.00
                       o<<<<< (aa) gop          0.00
                       o<<<<< (aa) dot          0.00
                       o<<<<< (ab) str          0.00
                       o<<<<< (ab) gath         0.00
                       o<<<<< (ab) dotab        0.00
                       o<<<<< (ab) scat         0.00
                       o<<<<< (ab) sync         0.00
                       o<<<<< Density           0.00
                       o<<<<< Density one       0.00
                       o<<<<< Density two       0.00
                       o<<<<< Density ab        0.00
                       o<<<<< Spin adapt        0.00
                       o<<<<< Symm adapt        0.00

                       o<<<<< (ab) max sync:      0.00

           >>>| Valence CI:            -85.897747759324
           >>>| MCSCF energy:          -76.127224478061
           >>>| Gradient norm:          0.528998946D-03
     --- Warning:    2 Hessian diagonals < 0.05 ---

                              ----- Line search ------

        step       energy         lsg     num-lsg   num-lsh   lsrat    time
      ------- ---------------- --------- --------- --------- ------- --------
       0.0000     -76.12722448 -6.62D-08  0.00D+00  0.00D+00 0.0D+00      4.4

          Number of sigma calls:       10
                       o<<<<< (aa):             0.00
                       o<<<<< (bb):             0.00
                       o<<<<< (ab):             0.06
                       o<<<<< (total)           0.06
                       o<<<<< (aa) ff           0.00
                       o<<<<< (aa) gop          0.00
                       o<<<<< (aa) dot          0.00
                       o<<<<< (ab) str          0.00
                       o<<<<< (ab) gath         0.00
                       o<<<<< (ab) dotab        0.00
                       o<<<<< (ab) scat         0.00
                       o<<<<< (ab) sync         0.00
                       o<<<<< Density           0.01
                       o<<<<< Density one       0.00
                       o<<<<< Density two       0.00
                       o<<<<< Density ab        0.01
                       o<<<<< Spin adapt        0.32
                       o<<<<< Symm adapt        0.00

                       o<<<<< (ab) max sync:      0.00
       1.0000     -76.12722453 -3.66D-08 -3.66D-08  2.96D-08 5.5D-01      4.9

          Number of sigma calls:       10
                       o<<<<< (aa):             0.00
                       o<<<<< (bb):             0.00
                       o<<<<< (ab):             0.04
                       o<<<<< (total)           0.05
                       o<<<<< (aa) ff           0.00
                       o<<<<< (aa) gop          0.00
                       o<<<<< (aa) dot          0.00
                       o<<<<< (ab) str          0.00
                       o<<<<< (ab) gath         0.00
                       o<<<<< (ab) dotab        0.00
                       o<<<<< (ab) scat         0.00
                       o<<<<< (ab) sync         0.00
                       o<<<<< Density           0.01
                       o<<<<< Density one       0.00
                       o<<<<< Density two       0.00
                       o<<<<< Density ab        0.01
                       o<<<<< Spin adapt        0.34
                       o<<<<< Symm adapt        0.00

                       o<<<<< (ab) max sync:      0.00
       2.2359     -76.12722455 -7.01D-11 -6.39D-11  2.95D-08 1.1D-03      5.4



          %%%%% MacroIteration   5 %%%%%


          Number of sigma calls:        1
                       o<<<<< (aa):             0.00
                       o<<<<< (bb):             0.00
                       o<<<<< (ab):             0.00
                       o<<<<< (total)           0.01
                       o<<<<< (aa) ff           0.00
                       o<<<<< (aa) gop          0.00
                       o<<<<< (aa) dot          0.00
                       o<<<<< (ab) str          0.00
                       o<<<<< (ab) gath         0.00
                       o<<<<< (ab) dotab        0.00
                       o<<<<< (ab) scat         0.00
                       o<<<<< (ab) sync         0.00
                       o<<<<< Density           0.01
                       o<<<<< Density one       0.00
                       o<<<<< Density two       0.00
                       o<<<<< Density ab        0.00
                       o<<<<< Spin adapt        0.00
                       o<<<<< Symm adapt        0.00

                       o<<<<< (ab) max sync:      0.00

           >>>| Valence CI:            -85.897747833321
           >>>| MCSCF energy:          -76.127224552058
           >>>| Gradient norm:          0.221253290D-03
     --- Warning:    2 Hessian diagonals < 0.05 ---

                              ----- Line search ------

        step       energy         lsg     num-lsg   num-lsh   lsrat    time
      ------- ---------------- --------- --------- --------- ------- --------
       0.0000     -76.12722455 -5.65D-09  0.00D+00  0.00D+00 0.0D+00      5.6

          Number of sigma calls:        8
                       o<<<<< (aa):             0.00
                       o<<<<< (bb):             0.00
                       o<<<<< (ab):             0.02
                       o<<<<< (total)           0.02
                       o<<<<< (aa) ff           0.00
                       o<<<<< (aa) gop          0.00
                       o<<<<< (aa) dot          0.00
                       o<<<<< (ab) str          0.00
                       o<<<<< (ab) gath         0.00
                       o<<<<< (ab) dotab        0.00
                       o<<<<< (ab) scat         0.00
                       o<<<<< (ab) sync         0.00
                       o<<<<< Density           0.01
                       o<<<<< Density one       0.00
                       o<<<<< Density two       0.00
                       o<<<<< Density ab        0.00
                       o<<<<< Spin adapt        0.24
                       o<<<<< Symm adapt        0.00

                       o<<<<< (ab) max sync:      0.00
       1.0000     -76.12722456 -1.45D-09 -1.45D-09  4.20D-09 2.6D-01      5.9

          Number of sigma calls:        8
                       o<<<<< (aa):             0.00
                       o<<<<< (bb):             0.00
                       o<<<<< (ab):             0.03
                       o<<<<< (total)           0.04
                       o<<<<< (aa) ff           0.00
                       o<<<<< (aa) gop          0.00
                       o<<<<< (aa) dot          0.00
                       o<<<<< (ab) str          0.00
                       o<<<<< (ab) gath         0.00
                       o<<<<< (ab) dotab        0.00
                       o<<<<< (ab) scat         0.00
                       o<<<<< (ab) sync         0.00
                       o<<<<< Density           0.01
                       o<<<<< Density one       0.00
                       o<<<<< Density two       0.00
                       o<<<<< Density ab        0.01
                       o<<<<< Spin adapt        0.25
                       o<<<<< Symm adapt        0.00

                       o<<<<< (ab) max sync:      0.00
       1.3449     -76.12722456 -1.79D-13  2.29D-12  4.20D-09 3.2D-05      6.4



          %%%%% MacroIteration   6 %%%%%


          Number of sigma calls:        1
                       o<<<<< (aa):             0.00
                       o<<<<< (bb):             0.00
                       o<<<<< (ab):             0.00
                       o<<<<< (total)           0.01
                       o<<<<< (aa) ff           0.00
                       o<<<<< (aa) gop          0.00
                       o<<<<< (aa) dot          0.00
                       o<<<<< (ab) str          0.00
                       o<<<<< (ab) gath         0.00
                       o<<<<< (ab) dotab        0.00
                       o<<<<< (ab) scat         0.00
                       o<<<<< (ab) sync         0.00
                       o<<<<< Density           0.00
                       o<<<<< Density one       0.00
                       o<<<<< Density two       0.00
                       o<<<<< Density ab        0.00
                       o<<<<< Spin adapt        0.00
                       o<<<<< Symm adapt        0.00

                       o<<<<< (ab) max sync:      0.00

           >>>| Valence CI:            -85.897747837120
           >>>| MCSCF energy:          -76.127224555856
           >>>| Gradient norm:          0.222684960D-04




     ==============================
            MCSCF Converged
     ==============================



          Canonical Eigenvalues

              1      
    1  -20.5317
    2   -1.3849
    3   -0.7767
    4   -0.5926
    5   -0.5306
    6   -0.0256
    7   -0.0202
    8   -0.0160
    9    0.2775
   10    0.3346
   11    0.6188
   12    0.6532
   13    0.8097
   14    0.8569
   15    0.9740
   16    1.0760
   17    1.2095
   18    1.3700
   19    1.5515
   20    1.9955
   21    2.0095
   22    2.0989
   23    2.1437
   24    2.1869
   25    2.6294
   26    2.8979
   27    3.3999
   28    3.5249
   29    3.5422
   30    3.6058
   31    3.6773
   32    3.8663
   33    3.9529
   34    3.9667
   35    3.9901
   36    4.0367
   37    4.2149
   38    4.4288
   39    4.5046
   40    4.5935
   41    4.7107
   42    4.8827
   43    5.3216
   44    5.4552
   45    5.6292
   46    6.1251
   47    6.6427
   48    6.8641
   49    6.9138
   50    7.0089
   51    7.0856
   52    7.1688
   53    7.4951
   54    7.5987
   55    7.6519
   56    8.0055
   57    8.4627
   58   13.9195


          Converged CI vector

   Index           Coefficient          Config. Occupation
         1          0.97907474          1  2  3  4  5  1  2  3  4  5
        22          0.06713863          1  2  3  4  5  1  2  3  4  8
         3         -0.03357503          1  2  3  4  5  1  2  3  5  6
         8          0.02666468          1  2  3  4  5  1  2  3  5  7
         4         -0.02597194          1  2  3  4  5  1  2  4  5  6
         9         -0.02975131          1  2  3  4  5  1  2  4  5  7
      1177          0.06713863          1  2  3  4  8  1  2  3  4  5
      1198         -0.05089195          1  2  3  4  8  1  2  3  4  8
      1179          0.02185409          1  2  3  4  8  1  2  3  5  6
      1180          0.02352232          1  2  3  4  8  1  2  4  5  6
      1185          0.02581529          1  2  3  4  8  1  2  4  5  7
       113         -0.03357503          1  2  3  5  6  1  2  3  4  5
       134          0.02185409          1  2  3  5  6  1  2  3  4  8
       115         -0.03488315          1  2  3  5  6  1  2  3  5  6
       116         -0.02915981          1  2  3  5  6  1  2  4  5  6
       393          0.02666468          1  2  3  5  7  1  2  3  4  5
       400         -0.02001474          1  2  3  5  7  1  2  3  5  7
       401          0.02018336          1  2  3  5  7  1  2  4  5  7
       169         -0.02597194          1  2  4  5  6  1  2  3  4  5
       190          0.02352232          1  2  4  5  6  1  2  3  4  8
       171         -0.02915981          1  2  4  5  6  1  2  3  5  6
       172         -0.04087121          1  2  4  5  6  1  2  4  5  6
       173          0.02122681          1  2  4  5  6  1  3  4  5  6
       449         -0.02975131          1  2  4  5  7  1  2  3  4  5
       470          0.02581529          1  2  4  5  7  1  2  3  4  8
       456          0.02018336          1  2  4  5  7  1  2  3  5  7
       457         -0.03585475          1  2  4  5  7  1  2  4  5  7
       228          0.02122681          1  3  4  5  6  1  2  4  5  6
       229         -0.02044915          1  3  4  5  6  1  3  4  5  6

          Number of sigma calls:        1
                       o<<<<< (aa):             0.00
                       o<<<<< (bb):             0.00
                       o<<<<< (ab):             0.00
                       o<<<<< (total)           0.01
                       o<<<<< (aa) ff           0.00
                       o<<<<< (aa) gop          0.00
                       o<<<<< (aa) dot          0.00
                       o<<<<< (ab) str          0.00
                       o<<<<< (ab) gath         0.00
                       o<<<<< (ab) dotab        0.00
                       o<<<<< (ab) scat         0.00
                       o<<<<< (ab) sync         0.00
                       o<<<<< Density           0.01
                       o<<<<< Density one       0.00
                       o<<<<< Density two       0.00
                       o<<<<< Density ab        0.01
                       o<<<<< Spin adapt        0.00
                       o<<<<< Symm adapt        0.00

                       o<<<<< (ab) max sync:      0.00



          Natural orbital occupation numbers

              1      
    1    2.0000
    2    1.9991
    3    1.9837
    4    1.9835
    5    1.9778
    6    0.0229
    7    0.0167
    8    0.0163


          Number of sigma calls:       15
                       o<<<<< (aa):             0.00
                       o<<<<< (bb):             0.00
                       o<<<<< (ab):             0.07
                       o<<<<< (total)           0.07
                       o<<<<< (aa) ff           0.00
                       o<<<<< (aa) gop          0.00
                       o<<<<< (aa) dot          0.00
                       o<<<<< (ab) str          0.00
                       o<<<<< (ab) gath         0.00
                       o<<<<< (ab) dotab        0.00
                       o<<<<< (ab) scat         0.00
                       o<<<<< (ab) sync         0.00
                       o<<<<< Density           0.01
                       o<<<<< Density one       0.00
                       o<<<<< Density two       0.00
                       o<<<<< Density ab        0.01
                       o<<<<< Spin adapt        0.45
                       o<<<<< Symm adapt        0.00

                       o<<<<< (ab) max sync:      0.00


       Final MCSCF results 
       ------------------- 

       Total MCSCF energy =    -76.127224555857
            Gradient norm =      2.2D-05

    CPU time for solution =      7.0s
   Wall time for solution =     11.3s



                        Analysis of MCSCF natural orbitals
                        ----------------------------------

 Vector    1  Occ=1.999988D+00  E=-2.053174D+01  Symmetry=a
              MO Center= -9.2D-02, -4.9D-02, -1.8D-09, r^2= 1.9D-02
   Bfn.  Coefficient  Atom+Function         Bfn.  Coefficient  Atom+Function  
  ----- ------------  ---------------      ----- ------------  ---------------
     1      0.969511  1 O  s          

 Vector    2  Occ=1.999138D+00  E=-1.384887D+00  Symmetry=a
              MO Center= -3.1D-01, -1.7D-01, -6.7D-07, r^2= 4.2D-01
   Bfn.  Coefficient  Atom+Function         Bfn.  Coefficient  Atom+Function  
  ----- ------------  ---------------      ----- ------------  ---------------
     2      0.503882  1 O  s                  4      0.376353  1 O  s          

 Vector    3  Occ=1.983713D+00  E=-7.766612D-01  Symmetry=a
              MO Center= -4.2D-02,  3.1D-01,  4.8D-08, r^2= 5.4D-01
   Bfn.  Coefficient  Atom+Function         Bfn.  Coefficient  Atom+Function  
  ----- ------------  ---------------      ----- ------------  ---------------
     9      0.330302  1 O  py                 6      0.295516  1 O  py         
    32      0.260858  2 H  s                 31      0.208716  2 H  s          
    12      0.170830  1 O  py         

 Vector    4  Occ=1.983478D+00  E=-5.926117D-01  Symmetry=a
              MO Center= -6.4D-02, -2.7D-02,  6.6D-07, r^2= 6.5D-01
   Bfn.  Coefficient  Atom+Function         Bfn.  Coefficient  Atom+Function  
  ----- ------------  ---------------      ----- ------------  ---------------
    10      0.429151  1 O  pz                13      0.383409  1 O  pz         
     7      0.358151  1 O  pz         

 Vector    5  Occ=1.977787D+00  E=-5.306428D-01  Symmetry=a
              MO Center=  3.5D-01, -1.7D-01,  3.1D-08, r^2= 5.8D-01
   Bfn.  Coefficient  Atom+Function         Bfn.  Coefficient  Atom+Function  
  ----- ------------  ---------------      ----- ------------  ---------------
     8      0.330929  1 O  px                 5      0.275655  1 O  px         
    46      0.263544  3 H  s                 11      0.190442  1 O  px         
    45      0.184570  3 H  s          

 Vector    6  Occ=2.290192D-02  E=-2.560388D-02  Symmetry=a
              MO Center=  5.0D-01, -2.1D-01,  7.9D-08, r^2= 6.2D-01
   Bfn.  Coefficient  Atom+Function         Bfn.  Coefficient  Atom+Function  
  ----- ------------  ---------------      ----- ------------  ---------------
    46      0.665530  3 H  s                  5     -0.529470  1 O  px         
     8     -0.422420  1 O  px                 2     -0.320115  1 O  s          
    45      0.301345  3 H  s                  3     -0.167869  1 O  s          
     4     -0.163684  1 O  s          

 Vector    7  Occ=1.669895D-02  E=-2.023156D-02  Symmetry=a
              MO Center= -1.5D-02,  4.7D-01,  4.4D-07, r^2= 6.4D-01
   Bfn.  Coefficient  Atom+Function         Bfn.  Coefficient  Atom+Function  
  ----- ------------  ---------------      ----- ------------  ---------------
    32      0.689908  2 H  s                  6     -0.603644  1 O  py         
     9     -0.371183  1 O  py                31      0.290544  2 H  s          
     4     -0.275997  1 O  s                  2     -0.250656  1 O  s          
     3     -0.156529  1 O  s                 12      0.155762  1 O  py         

 Vector    8  Occ=1.629608D-02  E=-1.597399D-02  Symmetry=a
              MO Center= -2.4D-03,  5.3D-03,  3.7D-07, r^2= 1.1D+00
   Bfn.  Coefficient  Atom+Function         Bfn.  Coefficient  Atom+Function  
  ----- ------------  ---------------      ----- ------------  ---------------
    13      0.754316  1 O  pz                 7     -0.667663  1 O  pz         
    10     -0.284798  1 O  pz         

 Vector    9  Occ=0.000000D+00  E= 2.774851D-01  Symmetry=a
              MO Center=  8.6D-02,  3.9D-01, -4.1D-07, r^2= 4.7D+00
   Bfn.  Coefficient  Atom+Function         Bfn.  Coefficient  Atom+Function  
  ----- ------------  ---------------      ----- ------------  ---------------
     4      2.777987  1 O  s                 33     -1.478090  2 H  s          
    32     -0.854320  2 H  s                 47     -0.855618  3 H  s          
    12      0.769309  1 O  py                11      0.637689  1 O  px         
    38      0.622546  2 H  py                51      0.374100  3 H  px         
    46     -0.286435  3 H  s          

 Vector   10  Occ=0.000000D+00  E= 3.345981D-01  Symmetry=a
              MO Center=  7.4D-01,  5.3D-02, -3.7D-08, r^2= 5.4D+00
   Bfn.  Coefficient  Atom+Function         Bfn.  Coefficient  Atom+Function  
  ----- ------------  ---------------      ----- ------------  ---------------
    47      2.251347  3 H  s                 33     -2.017795  2 H  s          
    12      0.757129  1 O  py                11     -0.510860  1 O  px         
    46     -0.371976  3 H  s                 38      0.341037  2 H  py         
    51     -0.339784  3 H  px         

 Vector   11  Occ=0.000000D+00  E= 6.187699D-01  Symmetry=a
              MO Center=  2.4D-01, -7.1D-02,  1.9D-07, r^2= 2.1D+00
   Bfn.  Coefficient  Atom+Function         Bfn.  Coefficient  Atom+Function  
  ----- ------------  ---------------      ----- ------------  ---------------
     4      3.648724  1 O  s                 32     -3.642747  2 H  s          
    12      1.982314  1 O  py                46     -1.375350  3 H  s          
    11      0.851233  1 O  px                38      0.673329  2 H  py         
    51      0.323693  3 H  px                47      0.272353  3 H  s          
     2      0.225841  1 O  s                  9      0.226694  1 O  py         

 Vector   12  Occ=0.000000D+00  E= 6.532048D-01  Symmetry=a
              MO Center= -4.0D-01,  8.7D-03, -2.5D-08, r^2= 2.4D+00
   Bfn.  Coefficient  Atom+Function         Bfn.  Coefficient  Atom+Function  
  ----- ------------  ---------------      ----- ------------  ---------------
    46      2.898589  3 H  s                 11     -2.312786  1 O  px         
    12      1.942141  1 O  py                32     -1.289497  2 H  s          
     4     -1.061478  1 O  s                 33     -0.896872  2 H  s          
    51     -0.864369  3 H  px                47      0.807711  3 H  s          
    38      0.405120  2 H  py                52      0.325569  3 H  py         

 Vector   13  Occ=0.000000D+00  E= 8.097084D-01  Symmetry=a
              MO Center= -1.6D-01, -1.6D-01, -5.8D-08, r^2= 2.1D+00
   Bfn.  Coefficient  Atom+Function         Bfn.  Coefficient  Atom+Function  
  ----- ------------  ---------------      ----- ------------  ---------------
     4      1.730835  1 O  s                 32     -1.608203  2 H  s          
    11      1.560877  1 O  px                12      1.244417  1 O  py         
    46     -1.121015  3 H  s                 37     -1.024850  2 H  px         
    52     -0.963561  3 H  py                38      0.292313  2 H  py         
    19      0.209872  1 O  d -2               2      0.189124  1 O  s          

 Vector   14  Occ=0.000000D+00  E= 8.569248D-01  Symmetry=a
              MO Center=  4.3D-01,  1.1D-01, -1.2D-07, r^2= 1.7D+00
   Bfn.  Coefficient  Atom+Function         Bfn.  Coefficient  Atom+Function  
  ----- ------------  ---------------      ----- ------------  ---------------
    53      0.920662  3 H  pz                39     -0.824881  2 H  pz         

 Vector   15  Occ=0.000000D+00  E= 9.740422D-01  Symmetry=a
              MO Center=  3.4D-03,  8.0D-02, -1.1D-06, r^2= 2.0D+00
   Bfn.  Coefficient  Atom+Function         Bfn.  Coefficient  Atom+Function  
  ----- ------------  ---------------      ----- ------------  ---------------
    13      1.411154  1 O  pz                39     -1.217726  2 H  pz         
    53     -0.913575  3 H  pz         

 Vector   16  Occ=0.000000D+00  E= 1.075999D+00  Symmetry=a
              MO Center= -1.6D-01, -4.3D-02,  3.0D-07, r^2= 2.1D+00
   Bfn.  Coefficient  Atom+Function         Bfn.  Coefficient  Atom+Function  
  ----- ------------  ---------------      ----- ------------  ---------------
     4      7.925631  1 O  s                 32     -4.515335  2 H  s          
    46     -2.300848  3 H  s                 38      1.954078  2 H  py         
    12      1.677815  1 O  py                11      1.009627  1 O  px         
    33     -0.990099  2 H  s                  9      0.934318  1 O  py         
    51      0.836084  3 H  px                52     -0.711947  3 H  py         

 Vector   17  Occ=0.000000D+00  E= 1.209457D+00  Symmetry=a
              MO Center=  2.5D-01,  1.7D-01, -9.5D-09, r^2= 2.1D+00
   Bfn.  Coefficient  Atom+Function         Bfn.  Coefficient  Atom+Function  
  ----- ------------  ---------------      ----- ------------  ---------------
    12     -1.401732  1 O  py                37     -1.370470  2 H  px         
    11      1.302687  1 O  px                46     -1.251528  3 H  s          
    52      0.965342  3 H  py                 4      0.781198  1 O  s          
    32      0.626694  2 H  s                 51      0.620991  3 H  px         
     8      0.220854  1 O  px                47     -0.219851  3 H  s          

 Vector   18  Occ=0.000000D+00  E= 1.370050D+00  Symmetry=a
              MO Center=  1.2D+00, -5.2D-01, -4.0D-08, r^2= 1.3D+00
   Bfn.  Coefficient  Atom+Function         Bfn.  Coefficient  Atom+Function  
  ----- ------------  ---------------      ----- ------------  ---------------
    51      2.588634  3 H  px                46     -2.245046  3 H  s          
     4      2.034066  1 O  s                 11      1.218990  1 O  px         
    47     -1.131834  3 H  s                 52     -0.879692  3 H  py         
    12     -0.848184  1 O  py                 8      0.779268  1 O  px         
    32      0.733659  2 H  s                  9     -0.600138  1 O  py         


 Wrote Lagrangian and 1- and 2-particle density matrices to ./H2O.mcpdm


     Multipole analysis of the density
     ---------------------------------

     L   x y z        total        nuclear
     -   - - -        -----        -------
     0   0 0 0     -0.000000     10.000000

     1   1 0 0      0.596083     -0.000000
     1   0 1 0      0.356029      0.000000
     1   0 0 1     -0.000000      0.000000

     2   2 0 0     -4.008928      2.679864
     2   1 1 0     -0.783608     -1.279267
     2   1 0 1      0.000000      0.000000
     2   0 2 0     -3.701215      2.818895
     2   0 1 1     -0.000000      0.000000
     2   0 0 2     -5.395707      0.000000


  Mulliken analysis of the total density
  --------------------------------------

    Atom       Charge   Shell Charges
 -----------   ------   -------------------------------------------------------
    1 O    8     8.44   1.95  0.99  0.23  0.58  1.32  2.10  1.25  0.00  0.01  0.00
    2 H    1     0.81   0.32  0.36  0.02  0.03  0.07  0.01
    3 H    1     0.76   0.25  0.38  0.05  0.02  0.06  0.01

    Mulliken analysis of the active space density
    ---------------------------------------------

    Atom       Charge   Shell Charges
 -----------   ------   -------------------------------------------------------
    1 O    8     8.44   1.95  0.99  0.23  0.58  1.32  2.10  1.25  0.00  0.01  0.00
    2 H    1     0.81   0.32  0.36  0.02  0.03  0.07  0.01
    3 H    1     0.76   0.25  0.38  0.05  0.02  0.06  0.01

 Parallel integral file used      16 records with       0 large values


 Task  times  cpu:        7.1s     wall:       11.4s


                                NWChem Input Module
                                -------------------


                                 NWChem SCF Module
                                 -----------------


                                        H2O



  ao basis        = "ao basis"
  functions       =    58
  atoms           =     3
  closed shells   =     5
  open shells     =     0
  charge          =   0.00
  wavefunction    = RHF 
  input vectors   = ./h2o.mos
  output vectors  = ./h2o-trash.mos
  use symmetry    = F
  symmetry adapt  = F


 Summary of "ao basis" -> "ao basis" (spherical)
 ------------------------------------------------------------------------------
       Tag                 Description            Shells   Functions and Types
 ---------------- ------------------------------  ------  ---------------------
 O                          cc-pVTZ                 10       30   4s3p2d1f
 H                          cc-pVTZ                  6       14   3s2p1d



 Forming initial guess at      11.4s


 Loading old vectors from job with title :

H2O


 Starting SCF solution at      11.4s



 ----------------------------------------------
         Quadratically convergent ROHF

 Convergence threshold     :          1.000E-04
 Maximum no. of iterations :           30
 Final Fock-matrix accuracy:          1.000E-07
 ----------------------------------------------


 Integral file          = ./H2O.aoints.0
 Record size in doubles =  65536        No. of integs per rec  =  43688
 Max. records in memory =     49        Max. records in file   = 252562
 No. of bits per label  =      8        No. of bits per value  =     64


 #quartets = 3.213D+04 #integrals = 6.608D+05 #direct =  0.0% #cached =100.0%



       Final RHF  results 
       ------------------ 

         Total SCF energy =    -76.038800441228
      One-electron energy =   -124.093638929198
      Two-electron energy =     38.284315206707
 Nuclear repulsion energy =      9.770523281263

        Time for solution =      0.1s


             Final eigenvalues
             -----------------

              1      
    1  -20.5317
    2   -1.3849
    3   -0.7767
    4   -0.5926
    5   -0.5306
    6   -0.0256
    7   -0.0202
    8   -0.0160
    9    0.2775
   10    0.3346
   11    0.6188
   12    0.6532
   13    0.8097
   14    0.8569
   15    0.9740

                       ROHF Final Molecular Orbital Analysis
                       -------------------------------------

 Vector    2  Occ=2.000000D+00  E=-1.384887D+00
              MO Center= -3.1D-01, -1.7D-01, -6.7D-07, r^2= 4.2D-01
   Bfn.  Coefficient  Atom+Function         Bfn.  Coefficient  Atom+Function  
  ----- ------------  ---------------      ----- ------------  ---------------
     2      0.503882  1 O  s                  4      0.376353  1 O  s          

 Vector    3  Occ=2.000000D+00  E=-7.766612D-01
              MO Center= -4.2D-02,  3.1D-01,  4.8D-08, r^2= 5.4D-01
   Bfn.  Coefficient  Atom+Function         Bfn.  Coefficient  Atom+Function  
  ----- ------------  ---------------      ----- ------------  ---------------
     9      0.330302  1 O  py                 6      0.295516  1 O  py         
    32      0.260858  2 H  s                 31      0.208716  2 H  s          
    12      0.170830  1 O  py         

 Vector    4  Occ=2.000000D+00  E=-5.926117D-01
              MO Center= -6.4D-02, -2.7D-02,  6.6D-07, r^2= 6.5D-01
   Bfn.  Coefficient  Atom+Function         Bfn.  Coefficient  Atom+Function  
  ----- ------------  ---------------      ----- ------------  ---------------
    10      0.429151  1 O  pz                13      0.383409  1 O  pz         
     7      0.358151  1 O  pz         

 Vector    5  Occ=2.000000D+00  E=-5.306428D-01
              MO Center=  3.5D-01, -1.7D-01,  3.1D-08, r^2= 5.8D-01
   Bfn.  Coefficient  Atom+Function         Bfn.  Coefficient  Atom+Function  
  ----- ------------  ---------------      ----- ------------  ---------------
     8      0.330929  1 O  px                 5      0.275655  1 O  px         
    46      0.263544  3 H  s                 11      0.190442  1 O  px         
    45      0.184570  3 H  s          

 Vector    6  Occ=0.000000D+00  E=-2.560388D-02
              MO Center=  5.0D-01, -2.1D-01,  7.9D-08, r^2= 6.2D-01
   Bfn.  Coefficient  Atom+Function         Bfn.  Coefficient  Atom+Function  
  ----- ------------  ---------------      ----- ------------  ---------------
    46      0.665530  3 H  s                  5     -0.529470  1 O  px         
     8     -0.422420  1 O  px                 2     -0.320115  1 O  s          
    45      0.301345  3 H  s                  3     -0.167869  1 O  s          
     4     -0.163684  1 O  s          

 Vector    7  Occ=0.000000D+00  E=-2.023156D-02
              MO Center= -1.5D-02,  4.7D-01,  4.4D-07, r^2= 6.4D-01
   Bfn.  Coefficient  Atom+Function         Bfn.  Coefficient  Atom+Function  
  ----- ------------  ---------------      ----- ------------  ---------------
    32      0.689908  2 H  s                  6     -0.603644  1 O  py         
     9     -0.371183  1 O  py                31      0.290544  2 H  s          
     4     -0.275997  1 O  s                  2     -0.250656  1 O  s          
     3     -0.156529  1 O  s                 12      0.155762  1 O  py         

 Vector    8  Occ=0.000000D+00  E=-1.597399D-02
              MO Center= -2.4D-03,  5.3D-03,  3.7D-07, r^2= 1.1D+00
   Bfn.  Coefficient  Atom+Function         Bfn.  Coefficient  Atom+Function  
  ----- ------------  ---------------      ----- ------------  ---------------
    13      0.754316  1 O  pz                 7     -0.667663  1 O  pz         
    10     -0.284798  1 O  pz         

 Vector    9  Occ=0.000000D+00  E= 2.774851D-01
              MO Center=  8.6D-02,  3.9D-01, -4.1D-07, r^2= 4.7D+00
   Bfn.  Coefficient  Atom+Function         Bfn.  Coefficient  Atom+Function  
  ----- ------------  ---------------      ----- ------------  ---------------
     4      2.777987  1 O  s                 33     -1.478090  2 H  s          
    32     -0.854320  2 H  s                 47     -0.855618  3 H  s          
    12      0.769309  1 O  py                11      0.637689  1 O  px         
    38      0.622546  2 H  py                51      0.374100  3 H  px         
    46     -0.286435  3 H  s          

 Vector   10  Occ=0.000000D+00  E= 3.345981D-01
              MO Center=  7.4D-01,  5.3D-02, -3.7D-08, r^2= 5.4D+00
   Bfn.  Coefficient  Atom+Function         Bfn.  Coefficient  Atom+Function  
  ----- ------------  ---------------      ----- ------------  ---------------
    47      2.251347  3 H  s                 33     -2.017795  2 H  s          
    12      0.757129  1 O  py                11     -0.510860  1 O  px         
    46     -0.371976  3 H  s                 38      0.341037  2 H  py         
    51     -0.339784  3 H  px         

 Vector   11  Occ=0.000000D+00  E= 6.187699D-01
              MO Center=  2.4D-01, -7.1D-02,  1.9D-07, r^2= 2.1D+00
   Bfn.  Coefficient  Atom+Function         Bfn.  Coefficient  Atom+Function  
  ----- ------------  ---------------      ----- ------------  ---------------
     4      3.648724  1 O  s                 32     -3.642747  2 H  s          
    12      1.982314  1 O  py                46     -1.375350  3 H  s          
    11      0.851233  1 O  px                38      0.673329  2 H  py         
    51      0.323693  3 H  px                47      0.272353  3 H  s          
     2      0.225841  1 O  s                  9      0.226694  1 O  py         

 Vector   12  Occ=0.000000D+00  E= 6.532048D-01
              MO Center= -4.0D-01,  8.7D-03, -2.5D-08, r^2= 2.4D+00
   Bfn.  Coefficient  Atom+Function         Bfn.  Coefficient  Atom+Function  
  ----- ------------  ---------------      ----- ------------  ---------------
    46      2.898589  3 H  s                 11     -2.312786  1 O  px         
    12      1.942141  1 O  py                32     -1.289497  2 H  s          
     4     -1.061478  1 O  s                 33     -0.896872  2 H  s          
    51     -0.864369  3 H  px                47      0.807711  3 H  s          
    38      0.405120  2 H  py                52      0.325569  3 H  py         

 Vector   13  Occ=0.000000D+00  E= 8.097084D-01
              MO Center= -1.6D-01, -1.6D-01, -5.8D-08, r^2= 2.1D+00
   Bfn.  Coefficient  Atom+Function         Bfn.  Coefficient  Atom+Function  
  ----- ------------  ---------------      ----- ------------  ---------------
     4      1.730835  1 O  s                 32     -1.608203  2 H  s          
    11      1.560877  1 O  px                12      1.244417  1 O  py         
    46     -1.121015  3 H  s                 37     -1.024850  2 H  px         
    52     -0.963561  3 H  py                38      0.292313  2 H  py         
    19      0.209872  1 O  d -2               2      0.189124  1 O  s          

 Vector   14  Occ=0.000000D+00  E= 8.569248D-01
              MO Center=  4.3D-01,  1.1D-01, -1.2D-07, r^2= 1.7D+00
   Bfn.  Coefficient  Atom+Function         Bfn.  Coefficient  Atom+Function  
  ----- ------------  ---------------      ----- ------------  ---------------
    53      0.920662  3 H  pz                39     -0.824881  2 H  pz         

 Vector   15  Occ=0.000000D+00  E= 9.740422D-01
              MO Center=  3.4D-03,  8.0D-02, -1.1D-06, r^2= 2.0D+00
   Bfn.  Coefficient  Atom+Function         Bfn.  Coefficient  Atom+Function  
  ----- ------------  ---------------      ----- ------------  ---------------
    13      1.411154  1 O  pz                39     -1.217726  2 H  pz         
    53     -0.913575  3 H  pz         


 center of mass
 --------------
 x =  -0.07599894 y =  -0.04085166 z =   0.00000000

 moments of inertia (a.u.)
 ------------------
           2.879141443534           1.218233176421           0.000000000000
           1.218233176421           2.833002082974           0.000000000000
           0.000000000000           0.000000000000           5.712143526508

  Mulliken analysis of the total density
  --------------------------------------

    Atom       Charge   Shell Charges
 -----------   ------   -------------------------------------------------------
    1 O    8     8.44   1.95  0.99  0.23  0.58  1.31  2.11  1.25  0.00  0.01  0.00
    2 H    1     0.80   0.32  0.35  0.02  0.03  0.07  0.01
    3 H    1     0.76   0.25  0.38  0.05  0.02  0.06  0.01

       Multipole analysis of the density wrt the origin
       ------------------------------------------------

     L   x y z        total         open         nuclear
     -   - - -        -----         ----         -------
     0   0 0 0     -0.000000      0.000000     10.000000

     1   1 0 0      0.606519      0.000000     -0.000000
     1   0 1 0      0.360292      0.000000      0.000000
     1   0 0 1     -0.000000      0.000000      0.000000

     2   2 0 0     -3.987371      0.000000      2.679864
     2   1 1 0     -0.789019      0.000000     -1.279267
     2   1 0 1      0.000000      0.000000      0.000000
     2   0 2 0     -3.681426      0.000000      2.818895
     2   0 1 1     -0.000000      0.000000      0.000000
     2   0 0 2     -5.379917      0.000000      0.000000


 Parallel integral file used      16 records with       0 large values

                   NWChem Extensible Many-Electron Theory Module
                   ---------------------------------------------

              ======================================================
                   This portion of the program was automatically
                  generated by a Tensor Contraction Engine (TCE).
                  The development of this portion of the program
                 and TCE was supported by US Department of Energy,
                Office of Science, Office of Basic Energy Science.
                      TCE is a product of Battelle and PNNL.
              Please cite: S.Hirata, J.Phys.Chem.A 107, 9887 (2003).
              ======================================================

                                        H2O


            General Information
            -------------------
      Number of processors :     1
         Wavefunction type : Restricted Hartree-Fock
          No. of electrons :    10
           Alpha electrons :     5
            Beta electrons :     5
           No. of orbitals :   116
            Alpha orbitals :    58
             Beta orbitals :    58
        Alpha frozen cores :     0
         Beta frozen cores :     0
     Alpha frozen virtuals :     0
      Beta frozen virtuals :     0
         Spin multiplicity : singlet 
    Number of AO functions :    58
       Number of AO shells :    22
        Use of symmetry is : off
      Symmetry adaption is : off
         Schwarz screening : 0.10D-09

          Correlation Information
          -----------------------
          Calculation type : Coupled-cluster singles & doubles                           
   Perturbative correction : none                                                        
            Max iterations :      100
        Residual threshold : 0.10D-06
     T(0) DIIS level shift : 0.00D+00
     L(0) DIIS level shift : 0.00D+00
     T(1) DIIS level shift : 0.00D+00
     L(1) DIIS level shift : 0.00D+00
     T(R) DIIS level shift : 0.00D+00
     T(I) DIIS level shift : 0.00D+00
   CC-T/L Amplitude update :  5-th order DIIS
                I/O scheme : Global Array Library
        L-threshold :  0.10D-06
        EOM-threshold :  0.10D-06
 no EOMCCSD initial starts read in
 TCE RESTART OPTIONS
 READ_INT:   F
 WRITE_INT:  F
 READ_TA:    F
 WRITE_TA:   F
 READ_XA:    F
 WRITE_XA:   F
 READ_IN3:   F
 WRITE_IN3:  F
 SLICE:      F
 D4D5:       F
 quantumc:   F
 qrotation:  F
 pwtce:      F
 qducc:      T
 nacto:                         0
 nrotv:                         0
 nrot:                          0

            Memory Information
            ------------------
          Available GA space size is    1610609372 doubles
          Available MA space size is    1610609772 doubles

 Maximum block size        32 doubles

 tile_dim =     27

 Block   Spin    Irrep     Size     Offset   Alpha
 -------------------------------------------------
   1    alpha     a      5 doubles       0       1
   2    beta      a      5 doubles       5       1
   3    alpha     a     26 doubles      10       3
   4    alpha     a     27 doubles      36       4
   5    beta      a     26 doubles      63       3
   6    beta      a     27 doubles      89       4

 Global array virtual files algorithm will be used

 Parallel file system coherency ......... OK

 Integral file          = ./H2O.aoints.0
 Record size in doubles =  65536        No. of integs per rec  =  43688
 Max. records in memory =     49        Max. records in file   = 252562
 No. of bits per label  =      8        No. of bits per value  =     64


 #quartets = 3.213D+04 #integrals = 6.608D+05 #direct =  0.0% #cached =100.0%


 Fock matrix recomputed
 1-e file size   =             3364
 1-e file name   = ./H2O.f1
 Cpu & wall time / sec            0.1            0.1
 4-electron integrals stored in orbital form

 v2    file size   =          3631290
 4-index algorithm nr.  13 is used
 imaxsize =       30
 imaxsize ichop =        0
 Cpu & wall time / sec            1.5            1.5
 T1-number-of-tasks                    2

 t1 file size   =              265
 t1 file name   = ./H2O.t1
 t1 file handle =       -998
 T2-number-of-boxes                    7

 t2 file size   =           122900
 t2 file name   = ./H2O.t2
 t2 file handle =       -996
CCSD iterations
 ---------------------------------------------------------
 Iter          Residuum       Correlation     Cpu    Wall 
 ---------------------------------------------------------
NEW TASK SCHEDULING
CCSD_T1_NTS --- OK
CCSD_T2_NTS --- OK
    1   1.2568317331294  -0.4438052053368     0.2     0.2
    2   2.5141978519149   0.0949121315233     0.2     0.2
    3   5.3371304944519  -1.0386605023809     0.2     0.2
    4  12.0547909021314   1.3153796521321     0.2     0.3
    5  14.2337254198545  -3.2590926905211     0.2     0.2
 MICROCYCLE DIIS UPDATE:                    5                    5
    6   0.1019335348331  -0.2675204388437     0.2     0.2
    7   0.1330950948940  -0.2874724999834     0.2     0.3
    8   0.2999062742779  -0.2428927406714     0.3     0.3
    9   0.7009469389212  -0.3091507046350     0.2     0.2
   10   1.6543516070388   0.0842110533792     0.2     0.2
 MICROCYCLE DIIS UPDATE:                   10                    5
   11   0.0129423497104  -0.2784245052696     0.2     0.2
   12   0.0128040413684  -0.2775566969924     0.2     0.2
   13   0.0279630267088  -0.2802332146705     0.2     0.2
   14   0.0690768570591  -0.2728217138871     0.3     0.3
   15   0.1716971672294  -0.2884303540889     0.3     0.3
 MICROCYCLE DIIS UPDATE:                   15                    5
   16   0.0009703965755  -0.2784476209234     0.5     0.5
   17   0.0011097590731  -0.2783519274597     0.2     0.2
   18   0.0023326433066  -0.2786194039533     0.3     0.3
   19   0.0056528310994  -0.2779902908253     0.2     0.2
   20   0.0139006449272  -0.2795086172394     0.2     0.2
 MICROCYCLE DIIS UPDATE:                   20                    5
   21   0.0000964381932  -0.2784405982167     0.2     0.2
   22   0.0001033547701  -0.2784423861618     0.2     0.2
   23   0.0001964343931  -0.2784356990292     0.3     0.3
   24   0.0004429529441  -0.2784489408265     0.3     0.3
   25   0.0010518598750  -0.2784218686940     0.2     0.3
 MICROCYCLE DIIS UPDATE:                   25                    5
   26   0.0000191215107  -0.2784400984213     0.2     0.2
   27   0.0000164301814  -0.2784391373550     0.2     0.2
   28   0.0000253068922  -0.2784421920009     0.2     0.2
   29   0.0000521188743  -0.2784359290407     0.2     0.2
   30   0.0001167508827  -0.2784492795126     0.2     0.2
 MICROCYCLE DIIS UPDATE:                   30                    5
   31   0.0000034222838  -0.2784402353671     0.2     0.2
   32   0.0000037301042  -0.2784403278135     0.2     0.2
   33   0.0000074230700  -0.2784400376129     0.2     0.2
   34   0.0000173548027  -0.2784405088361     0.2     0.2
   35   0.0000418808427  -0.2784397850465     0.2     0.2
 MICROCYCLE DIIS UPDATE:                   35                    5
   36   0.0000007496018  -0.2784402242285     0.2     0.2
   37   0.0000006548050  -0.2784401715838     0.2     0.2
   38   0.0000010458626  -0.2784403219095     0.2     0.2
   39   0.0000021725469  -0.2784400109608     0.2     0.2
   40   0.0000048183229  -0.2784406708397     0.2     0.2
 MICROCYCLE DIIS UPDATE:                   40                    5
   41   0.0000001448851  -0.2784402234344     0.2     0.2
   42   0.0000001752866  -0.2784402276772     0.3     0.3
   43   0.0000003715850  -0.2784402155473     0.5     0.5
   44   0.0000008865641  -0.2784402347240     0.2     0.2
   45   0.0000021577055  -0.2784402073849     0.2     0.2
 MICROCYCLE DIIS UPDATE:                   45                    5
   46   0.0000000314108  -0.2784402233633     0.2     0.2
 -----------------------------------------------------------------
 Iterations converged
 CCSD correlation energy / hartree =        -0.278440223363274
 CCSD total energy / hartree       =       -76.317240664591154

 Singles contributions

 Doubles contributions
     6a   (alpha)     7a   (alpha) ---     3a   (alpha)     5a   (alpha)        0.0204391511
     6a   (alpha)     7a   (alpha) ---     5a   (alpha)     3a   (alpha)       -0.0204391511
     6a   (alpha)     8a   (alpha) ---     4a   (alpha)     5a   (alpha)        0.0261552861
     6a   (alpha)     8a   (alpha) ---     5a   (alpha)     4a   (alpha)       -0.0261552861
     7a   (alpha)     6a   (alpha) ---     3a   (alpha)     5a   (alpha)       -0.0204391511
     7a   (alpha)     6a   (alpha) ---     5a   (alpha)     3a   (alpha)        0.0204391511
     7a   (alpha)     8a   (alpha) ---     3a   (alpha)     4a   (alpha)       -0.0248408245
     7a   (alpha)     8a   (alpha) ---     4a   (alpha)     3a   (alpha)        0.0248408245
     8a   (alpha)     6a   (alpha) ---     4a   (alpha)     5a   (alpha)       -0.0261552861
     8a   (alpha)     6a   (alpha) ---     5a   (alpha)     4a   (alpha)        0.0261552861
     8a   (alpha)     7a   (alpha) ---     3a   (alpha)     4a   (alpha)        0.0248408245
     8a   (alpha)     7a   (alpha) ---     4a   (alpha)     3a   (alpha)       -0.0248408245
     6a   (alpha)     6a   (beta ) ---     5a   (alpha)     5a   (beta )       -0.0792253596
     6a   (alpha)     7a   (beta ) ---     5a   (alpha)     3a   (beta )       -0.0293586460
     6a   (alpha)     8a   (beta ) ---     5a   (alpha)     4a   (beta )       -0.0359376889
     7a   (alpha)     6a   (beta ) ---     3a   (alpha)     5a   (beta )       -0.0293586460
     7a   (alpha)     7a   (beta ) ---     3a   (alpha)     3a   (beta )       -0.0599218085
     7a   (alpha)     8a   (beta ) ---     3a   (alpha)     4a   (beta )       -0.0335963070
     8a   (alpha)     6a   (beta ) ---     4a   (alpha)     5a   (beta )       -0.0359376889
     8a   (alpha)     7a   (beta ) ---     4a   (alpha)     3a   (beta )       -0.0335963070
     8a   (alpha)     8a   (beta ) ---     4a   (alpha)     4a   (beta )       -0.0520148579
     8a   (alpha)    16a   (beta ) ---     4a   (alpha)     2a   (beta )       -0.0218913217
    16a   (alpha)     8a   (beta ) ---     2a   (alpha)     4a   (beta )       -0.0218913217
 Ground state specification:
 exp(T)|Ref>~(1+T)|Ref>
 ------- a(p)+/a(q) strings ----------

 singles norm

 doubles norm

 Reference string
   1.0000000000000000      :(1a)+ (2a)+ (3a)+ (4a)+ (5a)+ (1b)+ (2b)+ (3b)+ (4b)+ (5b)+ |0>

 Singles strings

 Doubles strings
 -------------------------------------
 enrep_tce =    9.7705232812632392     
  EHF(total)         =       -76.03880044
  Shift (HFtot-HFA)  =         0.00000000
 ALL OCCUPIED ORBITALS ARE ACTIVE IN DUCC --> NO SHIFT
 Number of active orbitals                    8
 Number of active alpha electrons                    5
 Number of active beta electrons                    5
  nos                    10
  nvs                   106
 noas                     5
 nobs                     5
 nvas                    53
 nvbs                    53
 nactv                     3
 DUCC MODEL =                     6
 NONHF =  T
 F-T1 correlation    =   -3.8124599949534018E-005
 V-T1-T1 correlation =    5.4926023646471106E-006
 V-T2 correlation    =  -0.27840759136570908     
 Total correlation   =  -0.27844022336329399     
 F-T1(Ext) correlation         =   -4.8450077700458059E-005
 V-T1(Ext)-T1(Ext) correlation =    1.6146807081940134E-006
 V-T2(Ext) correlation         =  -0.19628957488418405     
 Total Ext correlation         =  -0.19633641028117632     
1-BODY TIME =  274.126 SECONDS.
  HHHH TIME =  255.765 SECONDS.
  PPPP TIME =    0.721 SECONDS.
  HHHP TIME =   23.044 SECONDS.
  PPPH TIME =    1.509 SECONDS.
  HPHP TIME =   17.332 SECONDS.
  HHPP TIME =    7.858 SECONDS.
 ONE-BODY UNITARY CHECK
 TWO-BODY UNITARY CHECK
                    1                    1                    1                    2   2.6225091258759379E-011
                    1                    1                    1                    3  -1.7992620268291015E-011
                    1                    1                    1                    5  -2.7388509354584871E-011
                    1                    1                    2                    1  -2.6225062013087993E-011
                    1                    1                    2                    3  -2.8370896117486367E-011
                    1                    1                    2                    5  -1.6359157248194296E-011
                    1                    1                    3                    1   1.7992616752980413E-011
                    1                    1                    3                    2   2.8370896241996281E-011
                    1                    1                    3                    5  -1.1013908697784652E-011
                    1                    1                    5                    1   2.7388502465011818E-011
                    1                    1                    5                    2   1.6359157250902072E-011
                    1                    1                    5                    3   1.1013908704918775E-011
                    1                    2                    1                    1  -2.6225091258759379E-011
                    1                    2                    1                    3   2.5633811046033017E-011
                    1                    2                    1                    5   5.5758201875089064E-011
                    1                    2                    2                    1   1.9476775747762076E-010
                    1                    2                    2                    2  -3.5045953925239568E-010
                    1                    2                    2                    3  -7.5122717074771472E-011
                    1                    2                    2                    5  -2.1228814366114346E-010
                    1                    2                    3                    1  -1.0477746274772937E-010
                    1                    2                    3                    2   3.3818308223243498E-010
                    1                    2                    3                    3  -6.3891716873921197E-011
                    1                    2                    3                    5  -5.0156839673329984E-011
                    1                    2                    5                    1  -8.2424047188195404E-011
                    1                    2                    5                    2   3.3156114659371738E-010
                    1                    2                    5                    3  -1.1636389242583242E-010
                    1                    2                    5                    5  -2.2731625223959574E-011
                    1                    3                    1                    1   1.7992620268291015E-011
                    1                    3                    1                    2  -2.5633811046033017E-011
                    1                    3                    1                    5  -1.5068883640889652E-012
                    1                    3                    2                    1  -7.2967196521056543E-011
                    1                    3                    2                    2   1.4724910809836249E-010
                    1                    3                    2                    3  -2.5762403148277269E-010
                    1                    3                    2                    5   1.7992498953949866E-010
                    1                    3                    3                    1   1.1145862011119334E-011
                    1                    3                    3                    2   3.0478712956250043E-010
                    1                    3                    3                    3  -1.0520637572736495E-010
                    1                    3                    3                    5  -8.6727845998585407E-010
                    1                    3                    4                    4   4.6088639919886042E-011
                    1                    3                    5                    1   5.4477975949818180E-011
                    1                    3                    5                    2  -5.3320982621363113E-010
                    1                    3                    5                    3   1.4241026023362191E-009
                    1                    3                    5                    5   1.2020647745641471E-010
                    1                    4                    2                    4  -5.5773220417054681E-010
                    1                    4                    3                    4   9.3853722883674440E-010
                    1                    4                    4                    1   1.6244405820486918E-010
                    1                    4                    4                    2  -6.0455652636792756E-011
                    1                    4                    4                    3  -4.4484372695857699E-010
                    1                    4                    4                    5  -7.6195046626315044E-010
                    1                    4                    5                    4   1.2108082661499431E-009
                    1                    5                    1                    1   2.7388509354584871E-011
                    1                    5                    1                    2  -5.5758201875089064E-011
                    1                    5                    1                    3   1.5068883640889652E-012
                    1                    5                    2                    1  -3.7381749605491787E-011
                    1                    5                    2                    2   2.6593265913899720E-011
                    1                    5                    2                    3   3.2529122380746053E-010
                    1                    5                    2                    5  -3.4493686379422073E-010
                    1                    5                    3                    1   4.9604802904168466E-011
                    1                    5                    3                    2  -5.1909867252114897E-010
                    1                    5                    3                    3   1.5360398016566881E-010
                    1                    5                    3                    5   1.1234565656242923E-009
                    1                    5                    4                    4   3.3982969473752480E-011
                    1                    5                    5                    1  -2.0943957679264713E-010
                    1                    5                    5                    2   1.2688903660434958E-009
                    1                    5                    5                    3  -1.1507457634354901E-009
                    1                    5                    5                    5  -3.2810801438752411E-010
                    1                    6                    1                    7  -2.0877731835011737E-010
                    1                    6                    1                    8  -7.1916708699326648E-011
                    1                    6                    1                   10  -6.1633864678611872E-011
                    1                    6                    2                    6   1.5887867063635319E-010
                    1                    6                    2                    7  -8.1175413092771098E-010
                    1                    6                    2                    8   1.0581124171293865E-010
                    1                    6                    2                   10   7.1370051795555112E-011
[...]
    8    1    3    8        0.0037320507
    8    2    3    1        0.0000000303
    8    2    3    2        0.0000000894
    8    2    3    3        0.0000000514
    8    2    3    4       -0.0042606243
    8    2    3    5        0.0000000105
    8    2    3    6       -0.0000000198
    8    2    3    7       -0.0000000425
    8    2    3    8        0.0033449894
    8    3    3    1        0.0000000009
    8    3    3    2       -0.0000000137
    8    3    3    3        0.0000002410
    8    3    3    4       -0.0063995894
    8    3    3    5        0.0000000096
    8    3    3    6       -0.0000000162
    8    3    3    7       -0.0000002758
    8    3    3    8        0.0167310473
    8    4    3    1        0.0033011174
    8    4    3    2        0.0052650647
    8    4    3    3       -0.1550690377
    8    4    3    4        0.0000000153
    8    4    3    5       -0.0027495700
    8    4    3    6        0.0057241053
    8    4    3    7        0.1228248099
    8    4    3    8       -0.0000002229
    8    5    3    1        0.0000000056
    8    5    3    2        0.0000000082
    8    5    3    3        0.0000000358
    8    5    3    4       -0.0004975487
    8    5    3    5        0.0000000198
    8    5    3    6       -0.0000000291
    8    5    3    7       -0.0000000185
    8    5    3    8        0.0016353646
    8    6    3    1       -0.0000000106
    8    6    3    2       -0.0000000436
    8    6    3    3       -0.0000000398
    8    6    3    4        0.0066920344
    8    6    3    5       -0.0000000427
    8    6    3    6        0.0000000307
    8    6    3    7       -0.0000000037
    8    6    3    8       -0.0007051603
    8    7    3    1       -0.0000000022
    8    7    3    2       -0.0000000874
    8    7    3    3       -0.0000002602
    8    7    3    4        0.0295209118
    8    7    3    5       -0.0000000080
    8    7    3    6        0.0000000026
    8    7    3    7       -0.0000000296
    8    7    3    8       -0.0084224391
    8    8    3    1       -0.0058348169
    8    8    3    2        0.0059282967
    8    8    3    3        0.5972812955
    8    8    3    4       -0.0000000563
    8    8    3    5        0.0085346600
    8    8    3    6       -0.0079170898
    8    8    3    7       -0.1606718917
    8    8    3    8        0.0000002957
    8    1    4    1       -0.0366564529
    8    1    4    2       -0.0365638615
    8    1    4    3       -0.0073105928
    8    1    4    4       -0.0000000576
    8    1    4    5       -0.0086208508
    8    1    4    6        0.0101262889
    8    1    4    7        0.0085575621
    8    1    4    8        0.0000000321
    8    2    4    1       -0.0189862471
    8    2    4    2       -0.0509746359
    8    2    4    3       -0.0046467530
    8    2    4    4       -0.0000000442
    8    2    4    5       -0.0066839291
    8    2    4    6        0.0126715749
    8    2    4    7        0.0105961552
    8    2    4    8        0.0000000288
    8    3    4    1       -0.0030206990
    8    3    4    2       -0.0005068111
    8    3    4    3       -0.0071515678
    8    3    4    4        0.0000002808
    8    3    4    5       -0.0004427737
    8    3    4    6        0.0022582904
    8    3    4    7        0.0179925021
    8    3    4    8       -0.0000002229
    8    4    4    1       -0.0000000119
    8    4    4    2       -0.0000000677
    8    4    4    3        0.0000000130
    8    4    4    4       -0.1994364046
    8    4    4    5       -0.0000000109
    8    4    4    6        0.0000000401
    8    4    4    7        0.0000002447
    8    4    4    8        0.1625501584
    8    5    4    1       -0.0037176689
    8    5    4    2       -0.0019229843
    8    5    4    3       -0.0004743822
    8    5    4    4        0.0000000249
    8    5    4    5       -0.0055125053
    8    5    4    6        0.0176855434
    8    5    4    7        0.0012147235
    8    5    4    8       -0.0000000097
    8    6    4    1        0.0071606138
    8    6    4    2        0.0274594531
    8    6    4    3        0.0065058081
    8    6    4    4        0.0000000548
    8    6    4    5        0.0303395371
    8    6    4    6       -0.0192330264
    8    6    4    7       -0.0026571604
    8    6    4    8       -0.0000000146
    8    7    4    1        0.0060906967
    8    7    4    2        0.0232618454
    8    7    4    3        0.0301670963
    8    7    4    4        0.0000000656
    8    7    4    5        0.0047765081
    8    7    4    6       -0.0027434759
    8    7    4    7       -0.0171324738
    8    7    4    8        0.0000000015
    8    8    4    1        0.0000000007
    8    8    4    2        0.0000000930
    8    8    4    3       -0.0000000563
    8    8    4    4        0.6657988982
    8    8    4    5        0.0000000261
    8    8    4    6       -0.0000000434
    8    8    4    7       -0.0000002809
    8    8    4    8       -0.1943142852
    8    1    5    1        0.0000000011
    8    1    5    2        0.0000000107
    8    1    5    3        0.0000000127
    8    1    5    4       -0.0085286385
    8    1    5    5        0.0000000097
    8    1    5    6       -0.0000000031
    8    1    5    7       -0.0000000059
    8    1    5    8        0.0047072977
    8    2    5    1        0.0000000041
    8    2    5    2       -0.0000000001
    8    2    5    3        0.0000000094
    8    2    5    4       -0.0062366271
    8    2    5    5        0.0000000228
    8    2    5    6       -0.0000000204
    8    2    5    7       -0.0000000028
    8    2    5    8        0.0052307900
    8    3    5    1       -0.0000000052
    8    3    5    2        0.0000000034
    8    3    5    3        0.0000000102
    8    3    5    4       -0.0004909824
    8    3    5    5        0.0000002379
    8    3    5    6       -0.0000001864
    8    3    5    7        0.0000000068
    8    3    5    8        0.0016353646
    8    4    5    1        0.0036414567
    8    4    5    2        0.0018181897
    8    4    5    3       -0.0027916933
    8    4    5    4       -0.0000000106
    8    4    5    5       -0.1410335423
    8    4    5    6        0.1211933434
    8    4    5    7       -0.0037585022
    8    4    5    8       -0.0000000097
    8    5    5    1       -0.0000000009
    8    5    5    2        0.0000000131
    8    5    5    3        0.0000000186
    8    5    5    4       -0.0048036130
    8    5    5    5        0.0000000482
    8    5    5    6       -0.0000000138
    8    5    5    7        0.0000000012
    8    5    5    8        0.0175302925
    8    6    5    1        0.0000000033
    8    6    5    2       -0.0000000066
    8    6    5    3       -0.0000000415
    8    6    5    4        0.0295535755
    8    6    5    5       -0.0000000046
    8    6    5    6       -0.0000000017
    8    6    5    7        0.0000000153
    8    6    5    8       -0.0074670669
    8    7    5    1       -0.0000000019
    8    7    5    2        0.0000000092
    8    7    5    3       -0.0000000081
    8    7    5    4        0.0049884660
    8    7    5    5       -0.0000000341
    8    7    5    6        0.0000000396
    8    7    5    7        0.0000000071
    8    7    5    8       -0.0000910029
    8    8    5    1       -0.0062451111
    8    8    5    2        0.0088238925
    8    8    5    3        0.0085346600
    8    8    5    4        0.0000000261
    8    8    5    5        0.5772002858
    8    8    5    6       -0.1621607852
    8    8    5    7        0.0050547468
    8    8    5    8        0.0000000272
    8    1    6    1        0.0000000038
    8    1    6    2       -0.0000000089
    8    1    6    3       -0.0000000151
    8    1    6    4        0.0097088748
    8    1    6    5       -0.0000000016
    8    1    6    6        0.0000000081
    8    1    6    7        0.0000000040
    8    1    6    8       -0.0126518358
    8    2    6    1       -0.0000000029
    8    2    6    2       -0.0000000073
    8    2    6    3       -0.0000000207
    8    2    6    4        0.0132218248
    8    2    6    5       -0.0000000271
    8    2    6    6        0.0000000154
    8    2    6    7        0.0000000080
    8    2    6    8       -0.0098122003
    8    3    6    1        0.0000000079
    8    3    6    2       -0.0000000156
    8    3    6    3       -0.0000000150
    8    3    6    4        0.0019264745
    8    3    6    5       -0.0000001811
    8    3    6    6        0.0000002920
    8    3    6    7       -0.0000000063
    8    3    6    8       -0.0007051603
    8    4    6    1       -0.0057182912
    8    4    6    2        0.0088171007
    8    4    6    3        0.0049255310
    8    4    6    4        0.0000000330
    8    4    6    5        0.1185845331
    8    4    6    6       -0.1775577755
    8    4    6    7        0.0033959649
    8    4    6    8       -0.0000000146
    8    5    6    1        0.0000000011
    8    5    6    2       -0.0000000128
    8    5    6    3       -0.0000000300
    8    5    6    4        0.0180698105
    8    5    6    5       -0.0000000137
    8    5    6    6        0.0000000444
    8    5    6    7        0.0000000142
    8    5    6    8       -0.0074670669
    8    6    6    1       -0.0000000059
    8    6    6    2       -0.0000000028
    8    6    6    3        0.0000000304
    8    6    6    4       -0.0193724935
    8    6    6    5       -0.0000000004
    8    6    6    6        0.0000000007
    8    6    6    7        0.0000000029
    8    6    6    8        0.0333359312
    8    7    6    2        0.0000000065
    8    7    6    3        0.0000000025
    8    7    6    4       -0.0029499168
    8    7    6    5        0.0000000399
    8    7    6    6       -0.0000000308
    8    7    6    7       -0.0000000057
    8    7    6    8        0.0063781649
    8    8    6    1        0.0083701222
    8    8    6    2       -0.0099649989
    8    8    6    3       -0.0079170898
    8    8    6    4       -0.0000000434
    8    8    6    5       -0.1621607852
    8    8    6    6        0.6103316109
    8    8    6    7       -0.0008573330
    8    8    6    8        0.0000000186
    8    1    7    1        0.0000000043
    8    1    7    2       -0.0000000108
    8    1    7    3       -0.0000000088
    8    1    7    4        0.0082027695
    8    1    7    5       -0.0000000057
    8    1    7    6        0.0000000041
    8    1    7    7        0.0000000149
    8    1    7    8       -0.0107070109
    8    2    7    1       -0.0000000057
    8    2    7    2       -0.0000000346
    8    2    7    3       -0.0000000422
    8    2    7    4        0.0113295378
    8    2    7    5       -0.0000000028
    8    2    7    6        0.0000000073
    8    2    7    7        0.0000000112
    8    2    7    8       -0.0077322452
    8    3    7    1        0.0000000089
    8    3    7    2       -0.0000000253
    8    3    7    3       -0.0000002724
    8    3    7    4        0.0184896935
    8    3    7    5        0.0000000068
    8    3    7    6       -0.0000000059
    8    3    7    7        0.0000002380
    8    3    7    8       -0.0084224391
    8    4    7    1       -0.0049922389
    8    4    7    2        0.0080096399
    8    4    7    3        0.1193542872
    8    4    7    4        0.0000002340
    8    4    7    5       -0.0043159696
    8    4    7    6        0.0034925518
    8    4    7    7       -0.1855224180
    8    4    7    8        0.0000000015
    8    5    7    1       -0.0000000018
    8    5    7    2       -0.0000000014
    8    5    7    3       -0.0000000178
    8    5    7    4        0.0009816422
    8    5    7    5       -0.0000000006
    8    5    7    6        0.0000000142
    8    5    7    7        0.0000000347
    8    5    7    8       -0.0000910029
    8    6    7    1        0.0000000013
    8    6    7    2        0.0000000133
    8    6    7    3       -0.0000000032
    8    6    7    4       -0.0028083895
    8    6    7    5        0.0000000155
    8    6    7    6        0.0000000029
    8    6    7    7       -0.0000000154
    8    6    7    8        0.0063781649
    8    7    7    1       -0.0000000010
    8    7    7    2       -0.0000000165
    8    7    7    3       -0.0000000293
    8    7    7    4       -0.0171346006
    8    7    7    5        0.0000000073
    8    7    7    6       -0.0000000057
    8    7    7    7       -0.0000001771
    8    7    7    8        0.0329369980
    8    8    7    1        0.0069702342
    8    8    7    2       -0.0071492641
    8    8    7    3       -0.1606718917
    8    8    7    4       -0.0000002809
    8    8    7    5        0.0050547468
    8    8    7    6       -0.0008573330
    8    8    7    7        0.6234767338
    8    8    7    8       -0.0000000379
    8    1    8    1        0.0557641369
    8    1    8    2        0.0275662753
    8    1    8    3        0.0034753179
    8    1    8    4        0.0000000319
    8    1    8    5        0.0044439623
    8    1    8    6       -0.0124523753
    8    1    8    7       -0.0105288346
    8    1    8    8       -0.0000000270
    8    2    8    1        0.0275662753
    8    2    8    2        0.0530683730
    8    2    8    3        0.0031146030
    8    2    8    4        0.0000000140
    8    2    8    5        0.0052114484
    8    2    8    6       -0.0105693091
    8    2    8    7       -0.0083896310
    8    2    8    8       -0.0000000227
    8    3    8    1        0.0034753179
    8    3    8    2        0.0031146030
    8    3    8    3        0.0157491662
    8    3    8    4       -0.0000002213
    8    3    8    5        0.0015159699
    8    3    8    6       -0.0006129372
    8    3    8    7       -0.0087413337
    8    3    8    8        0.0000002957
    8    4    8    1        0.0000000319
    8    4    8    2        0.0000000140
    8    4    8    3       -0.0000002213
    8    4    8    4        0.1597775437
    8    4    8    5       -0.0000000121
    8    4    8    6       -0.0000000135
    8    4    8    7        0.0000000021
    8    4    8    8       -0.1943142852
    8    5    8    1        0.0044439623
    8    5    8    2        0.0052114484
    8    5    8    3        0.0015159699
    8    5    8    4       -0.0000000121
    8    5    8    5        0.0173045779
    8    5    8    6       -0.0077942781
    8    5    8    7       -0.0000229954
    8    5    8    8        0.0000000272
    8    6    8    1       -0.0124523753
    8    6    8    2       -0.0105693091
    8    6    8    3       -0.0006129372
    8    6    8    4       -0.0000000135
    8    6    8    5       -0.0077942781
    8    6    8    6        0.0333616387
    8    6    8    7        0.0063515185
    8    6    8    8        0.0000000186
    8    7    8    1       -0.0105288346
    8    7    8    2       -0.0083896310
    8    7    8    3       -0.0087413337
    8    7    8    4        0.0000000021
    8    7    8    5       -0.0000229954
    8    7    8    6        0.0063515185
    8    7    8    7        0.0329684052
    8    7    8    8       -0.0000000379
    8    8    8    1       -0.0000000270
    8    8    8    2       -0.0000000227
    8    8    8    3        0.0000002957
    8    8    8    4       -0.1943142852
    8    8    8    5        0.0000000272
    8    8    8    6        0.0000000186
    8    8    8    7       -0.0000000379
    8    8    8    8        0.6435538970
 end_two_electron_integrals

 Parallel integral file used      16 records with       0 large values


 Task  times  cpu:      608.2s     wall:      610.9s


                                NWChem Input Module
                                -------------------


 Summary of allocated global arrays
-----------------------------------
  No active global arrays


MA_summarize_allocated_blocks: starting scan ...
MA_summarize_allocated_blocks: scan completed: 0 heap blocks, 0 stack blocks
MA usage statistics:

	allocation statistics:
					      heap	     stack
					      ----	     -----
	current number of blocks	         0	         0
	maximum number of blocks	        18	        42
	current total bytes		         0	         0
	maximum total bytes		  25775960	4725685720
	maximum total K-bytes		     25776	   4725686
	maximum total M-bytes		        26	      4726


                                     CITATION
                                     --------
                Please cite the following reference when publishing
                           results obtained with NWChem:

          E. Apra, E. J. Bylaska, W. A. de Jong, N. Govind, K. Kowalski,
       T. P. Straatsma, M. Valiev, H. J. J. van Dam, Y. Alexeev, J. Anchell,
       V. Anisimov, F. W. Aquino, R. Atta-Fynn, J. Autschbach, N. P. Bauman,
     J. C. Becca, D. E. Bernholdt, K. Bhaskaran-Nair, S. Bogatko, P. Borowski,
         J. Boschen, J. Brabec, A. Bruner, E. Cauet, Y. Chen, G. N. Chuev,
      C. J. Cramer, J. Daily, M. J. O. Deegan, T. H. Dunning Jr., M. Dupuis,
   K. G. Dyall, G. I. Fann, S. A. Fischer, A. Fonari, H. Fruchtl, L. Gagliardi,
      J. Garza, N. Gawande, S. Ghosh, K. Glaesemann, A. W. Gotz, J. Hammond,
       V. Helms, E. D. Hermes, K. Hirao, S. Hirata, M. Jacquelin, L. Jensen,
   B. G. Johnson, H. Jonsson, R. A. Kendall, M. Klemm, R. Kobayashi, V. Konkov,
      S. Krishnamoorthy, M. Krishnan, Z. Lin, R. D. Lins, R. J. Littlefield,
      A. J. Logsdail, K. Lopata, W. Ma, A. V. Marenich, J. Martin del Campo,
   D. Mejia-Rodriguez, J. E. Moore, J. M. Mullin, T. Nakajima, D. R. Nascimento,
    J. A. Nichols, P. J. Nichols, J. Nieplocha, A. Otero-de-la-Roza, B. Palmer,
    A. Panyala, T. Pirojsirikul, B. Peng, R. Peverati, J. Pittner, L. Pollack,
   R. M. Richard, P. Sadayappan, G. C. Schatz, W. A. Shelton, D. W. Silverstein,
   D. M. A. Smith, T. A. Soares, D. Song, M. Swart, H. L. Taylor, G. S. Thomas,
            V. Tipparaju, D. G. Truhlar, K. Tsemekhman, T. Van Voorhis,
      A. Vazquez-Mayagoitia, P. Verma, O. Villa, A. Vishnu, K. D. Vogiatzis,
        D. Wang, J. H. Weare, M. J. Williamson, T. L. Windus, K. Wolinski,
        A. T. Wong, Q. Wu, C. Yang, Q. Yu, M. Zacharias, Z. Zhang, Y. Zhao,
                                and R. J. Harrison
                        "NWChem: Past, present, and future
                         J. Chem. Phys. 152, 184102 (2020)
                               doi:10.1063/5.0004997

                                      AUTHORS
                                      -------
  E. Apra, E. J. Bylaska, N. Govind, K. Kowalski, M. Valiev, D. Mejia-Rodriguez,
       A. Kunitsa, N. P. Bauman, A. Panyala, W. A. de Jong, T. P. Straatsma,
        H. J. J. van Dam, D. Wang, T. L. Windus, J. Hammond, J. Autschbach,
    K. Bhaskaran-Nair, J. Brabec, K. Lopata, S. A. Fischer, S. Krishnamoorthy,
     M. Jacquelin, W. Ma, M. Klemm, O. Villa, Y. Chen, V. Anisimov, F. Aquino,
    S. Hirata, M. T. Hackler, Eric Hermes, L. Jensen, J. E. Moore, J. C. Becca,
      V. Konjkov, T. Risthaus, M. Malagoli, A. Marenich, A. Otero-de-la-Roza,
        J. Mullin, P. Nichols, R. Peverati, J. Pittner, Y. Zhao, P.-D. Fan,
        A. Fonari, M. J. Williamson, R. J. Harrison, J. R. Rehr, M. Dupuis,
     D. Silverstein, D. M. A. Smith, J. Nieplocha, V. Tipparaju, M. Krishnan,
     B. E. Van Kuiken, A. Vazquez-Mayagoitia, M. Swart, Q. Wu, T. Van Voorhis,
     A. A. Auer, M. Nooijen, L. D. Crosby, E. Brown, G. Cisneros, G. I. Fann,
   H. Fruchtl, J. Garza, K. Hirao, R. A. Kendall, J. A. Nichols, K. Tsemekhman,
    K. Wolinski, J. Anchell, D. E. Bernholdt, P. Borowski, T. Clark, D. Clerc,
   H. Dachsel, M. J. O. Deegan, K. Dyall, D. Elwood, E. Glendening, M. Gutowski,
   A. C. Hess, J. Jaffe, B. G. Johnson, J. Ju, R. Kobayashi, R. Kutteh, Z. Lin,
   R. Littlefield, X. Long, B. Meng, T. Nakajima, S. Niu, L. Pollack, M. Rosing,
   K. Glaesemann, G. Sandrone, M. Stave, H. Taylor, G. Thomas, J. H. van Lenthe,
                               A. T. Wong, Z. Zhang.

 Total times  cpu:      615.3s     wall:      622.3s
