 argument  1 = input.nw
  NWChem w/ OpenMP: maximum threads =    1



============================== echo of input deck ==============================
 echo
 start H2O
 title "H2O"

 memory total 24 gb

 geometry units bohr
 symmetry c1
        O  0.00000000  0.00000000  0.00000000
        H  0.00000000  2.16605375  0.00000000
        H  1.72558000 -0.64860000  0.00000000
 end

 basis spherical
   * library cc-pVTZ
 end

 mcscf
   active  8
   actelec 10
   multiplicity 1
   maxiter 40
   vectors input h2o.mos
   vectors output h2o.mos
 end

 task mcscf

 scf
   vectors input h2o.mos
   vectors output h2o-trash.mos
   noscf
 end

 tce
   2eorb
   2emet 13
   ccsd
 end

# set tce:print_integrals T
# set tce:qorb 8
# set tce:qela 5
# set tce:qelb 5

 set tce:qducc T
 set tce:nactv 3
 set tce:nonhf T
 set tce:ducc_model 6

 set tce:printtol 0.02

 task tce
================================================================================


                                         
                                         


             Northwest Computational Chemistry Package (NWChem) 7.0.1
             --------------------------------------------------------


                    Environmental Molecular Sciences Laboratory
                       Pacific Northwest National Laboratory
                                Richland, WA 99352

                              Copyright (c) 1994-2020
                       Pacific Northwest National Laboratory
                            Battelle Memorial Institute

             NWChem is an open-source computational chemistry package
                        distributed under the terms of the
                      Educational Community License (ECL) 2.0
             A copy of the license is included with this distribution
                              in the LICENSE.TXT file

                                  ACKNOWLEDGMENT
                                  --------------

            This software and its documentation were developed at the
            EMSL at Pacific Northwest National Laboratory, a multiprogram
            national laboratory, operated for the U.S. Department of Energy
            by Battelle under Contract Number DE-AC05-76RL01830. Support
            for this work was provided by the Department of Energy Office
            of Biological and Environmental Research, Office of Basic
            Energy Sciences, and the Office of Advanced Scientific Computing.


           Job information
           ---------------

    hostname        = WE46210
    program         = /home/baum612/code/nwchem/bin/LINUX64/nwchem
    date            = Fri Feb 16 19:43:46 2024

    compiled        = Fri_Feb_16_11:09:52_2024
    source          = /home/baum612/code/nwchem
    nwchem branch   = 7.0.0
    nwchem revision = nwchem_on_git-4191-g39d87d64de
    ga revision     = 5.8.1
    use scalapack   = F
    input           = input.nw
    prefix          = H2O.
    data base       = ./H2O.db
    status          = startup
    nproc           =        1
    time left       =     -1s



           Memory information
           ------------------

    heap     =  805306362 doubles =   6144.0 Mbytes
    stack    =  805306367 doubles =   6144.0 Mbytes
    global   = 1610612736 doubles =  12288.0 Mbytes (distinct from heap & stack)
    total    = 3221225465 doubles =  24576.0 Mbytes
    verify   = yes
    hardfail = no 


           Directory information
           ---------------------

  0 permanent = .
  0 scratch   = .




                                NWChem Input Module
                                -------------------


                                        H2O
                                        ---
 Turning off AUTOSYM since
 SYMMETRY directive was detected!


          ------
          auto-z
          ------
  no constraints, skipping    0.0000000000000000     
  no constraints, skipping    0.0000000000000000     


                             Geometry "geometry" -> ""
                             -------------------------

 Output coordinates in a.u. (scale by  1.000000000 to convert to a.u.)

  No.       Tag          Charge          X              Y              Z
 ---- ---------------- ---------- -------------- -------------- --------------
    1 O                    8.0000    -0.17255800    -0.15174538     0.00000000
    2 H                    1.0000    -0.17255800     2.01430838     0.00000000
    3 H                    1.0000     1.55302200    -0.80034538     0.00000000

      Atomic Mass 
      ----------- 

      O                 15.994910
      H                  1.007825


 Effective nuclear repulsion energy (a.u.)       8.3359340302

            Nuclear Dipole moment (a.u.) 
            ----------------------------
        X                 Y               Z
 ---------------- ---------------- ----------------
    -0.0000000000     0.0000000000     0.0000000000



                                Z-matrix (autoz)
                                -------- 

 Units are Angstrom for bonds and degrees for angles

      Type          Name      I     J     K     L     M      Value
      ----------- --------  ----- ----- ----- ----- ----- ----------
    1 Stretch                  1     2                       1.14623
    2 Stretch                  1     3                       0.97551
    3 Bend                     2     1     3               110.59992


            XYZ format geometry
            -------------------
     3
 geometry
 O                    -0.09131377    -0.08030020     0.00000000
 H                    -0.09131377     1.06592616     0.00000000
 H                     0.82182391    -0.42352456     0.00000000

 ==============================================================================
                                internuclear distances
 ------------------------------------------------------------------------------
       center one      |      center two      | atomic units |       a.u.
 ------------------------------------------------------------------------------
    3 H                |   1 O                |     1.84345  |     1.84345
 ------------------------------------------------------------------------------
                         number of included internuclear distances:          1
 ==============================================================================





 Summary of "ao basis" -> "" (spherical)
 ------------------------------------------------------------------------------
       Tag                 Description            Shells   Functions and Types
 ---------------- ------------------------------  ------  ---------------------
 *                          cc-pVTZ                   on all atoms 


                      Basis "ao basis" -> "ao basis" (spherical)
                      -----
  O (Oxygen)
  ----------
            Exponent  Coefficients 
       -------------- ---------------------------------------------------------
  1 S  1.53300000E+04  0.000508
  1 S  2.29900000E+03  0.003929
  1 S  5.22400000E+02  0.020243
  1 S  1.47300000E+02  0.079181
  1 S  4.75500000E+01  0.230687
  1 S  1.67600000E+01  0.433118
  1 S  6.20700000E+00  0.350260
  1 S  6.88200000E-01 -0.008154

  2 S  1.53300000E+04 -0.000115
  2 S  2.29900000E+03 -0.000895
  2 S  5.22400000E+02 -0.004636
  2 S  1.47300000E+02 -0.018724
  2 S  4.75500000E+01 -0.058463
  2 S  1.67600000E+01 -0.136463
  2 S  6.20700000E+00 -0.175740
  2 S  6.88200000E-01  0.603418

  3 S  1.75200000E+00  1.000000

  4 S  2.38400000E-01  1.000000

  5 P  3.44600000E+01  0.015928
  5 P  7.74900000E+00  0.099740
  5 P  2.28000000E+00  0.310492

  6 P  7.15600000E-01  1.000000

  7 P  2.14000000E-01  1.000000

  8 D  2.31400000E+00  1.000000

  9 D  6.45000000E-01  1.000000

 10 F  1.42800000E+00  1.000000

  H (Hydrogen)
  ------------
            Exponent  Coefficients 
       -------------- ---------------------------------------------------------
  1 S  3.38700000E+01  0.006068
  1 S  5.09500000E+00  0.045308
  1 S  1.15900000E+00  0.202822

  2 S  3.25800000E-01  1.000000

  3 S  1.02700000E-01  1.000000

  4 P  1.40700000E+00  1.000000

  5 P  3.88000000E-01  1.000000

  6 D  1.05700000E+00  1.000000



 Summary of "ao basis" -> "ao basis" (spherical)
 ------------------------------------------------------------------------------
       Tag                 Description            Shells   Functions and Types
 ---------------- ------------------------------  ------  ---------------------
 O                          cc-pVTZ                 10       30   4s3p2d1f
 H                          cc-pVTZ                  6       14   3s2p1d



                            NWChem Direct MCSCF Module
                            --------------------------


                                        H2O


     -----------------------------------
       Basis functions:             58
       Inactive shells:              0
       Active shells:                8
       Active electrons:            10
       Symmetry:                    a       
       Multiplicity:                 1
       Orbital rotations:          400
     -----------------------------------

     -----------------------------------
       E2 extrapolation:             F
       Conjugacy:                    T
       Micro CI relax:               T
       Canonical orbitals:           T
       Maximum iterations:          40
       Converge threshold:    1.00E-04
       Conjugacy resets:            20
       Initial levelshift:        0.10
     -----------------------------------

 Loading old vectors from job with title :

H2O


   input molecular orbitals = ./h2o.mos
  output molecular orbtials = ./h2o.mos

       No. of determinants:          3136


  Starting Orbital Energies
   -20.556491    -1.311314    -0.697521    -0.567376    -0.519395    -0.033465
    -0.025813    -0.015805     0.308099     0.335603     0.610667     0.691465
     0.818562     0.826293     0.971465     1.117442     1.187752     1.255036
     1.406782     1.936827     2.050742     2.087583     2.156732     2.296921
     2.606862     2.824578     3.344550     3.458902     3.467719     3.507817
     3.560551     3.719283     3.864866     3.884507     3.898244     4.003115
     4.077956     4.168586     4.253297     4.295316     4.524229     4.624505
     4.951756     5.146008     5.525281     5.848152     6.115304     6.393000
     6.777909     6.886685     6.980705     7.015299     7.096562     7.143689
     7.382368     7.557893     7.810826    11.540154

  Orbital Symmetry Irreps
a    a    a    a    a    a    a    a    a    a    a    a    a    a    a   
a    a    a    a    a    a    a    a    a    a    a    a    a    a    a   
a    a    a    a    a    a    a    a    a    a    a    a    a    a    a   
a    a    a    a    a    a    a    a    a    a    a    a    a   

 Integral file          = ./H2O.aoints.0
 Record size in doubles =  65536        No. of integs per rec  =  43688
 Max. records in memory =     49        Max. records in file   = 252511
 No. of bits per label  =      8        No. of bits per value  =     64


 #quartets = 3.213D+04 #integrals = 6.608D+05 #direct =  0.0% #cached =100.0%




          %%%%% MacroIteration   1 %%%%%


          Number of sigma calls:       15
                       o<<<<< (aa):             0.00
                       o<<<<< (bb):             0.00
                       o<<<<< (ab):             0.07
                       o<<<<< (total)           0.08
                       o<<<<< (aa) ff           0.00
                       o<<<<< (aa) gop          0.00
                       o<<<<< (aa) dot          0.00
                       o<<<<< (ab) str          0.00
                       o<<<<< (ab) gath         0.00
                       o<<<<< (ab) dotab        0.00
                       o<<<<< (ab) scat         0.00
                       o<<<<< (ab) sync         0.00
                       o<<<<< Density           0.01
                       o<<<<< Density one       0.01
                       o<<<<< Density two       0.00
                       o<<<<< Density ab        0.00
                       o<<<<< Spin adapt        0.42
                       o<<<<< Symm adapt        0.00

                       o<<<<< (ab) max sync:      0.00

           >>>| Valence CI:            -84.461863982772
           >>>| MCSCF energy:          -76.125929952530
           >>>| Gradient norm:          0.769926355D-02

                              ----- Line search ------

        step       energy         lsg     num-lsg   num-lsh   lsrat    time
      ------- ---------------- --------- --------- --------- ------- --------
       0.0000     -76.12592995 -6.73D-06  0.00D+00  0.00D+00 0.0D+00      1.4

          Number of sigma calls:       14
                       o<<<<< (aa):             0.00
                       o<<<<< (bb):             0.00
                       o<<<<< (ab):             0.06
                       o<<<<< (total)           0.07
                       o<<<<< (aa) ff           0.00
                       o<<<<< (aa) gop          0.00
                       o<<<<< (aa) dot          0.00
                       o<<<<< (ab) str          0.00
                       o<<<<< (ab) gath         0.00
                       o<<<<< (ab) dotab        0.00
                       o<<<<< (ab) scat         0.00
                       o<<<<< (ab) sync         0.00
                       o<<<<< Density           0.01
                       o<<<<< Density one       0.00
                       o<<<<< Density two       0.00
                       o<<<<< Density ab        0.01
                       o<<<<< Spin adapt        0.44
                       o<<<<< Symm adapt        0.00

                       o<<<<< (ab) max sync:      0.00
       1.0000     -76.12593348 -3.16D-07 -3.16D-07  6.42D-06 4.7D-02      2.1
     --- Orbitals canonicalized ---



          %%%%% MacroIteration   2 %%%%%


          Number of sigma calls:       12
                       o<<<<< (aa):             0.00
                       o<<<<< (bb):             0.00
                       o<<<<< (ab):             0.07
                       o<<<<< (total)           0.07
                       o<<<<< (aa) ff           0.00
                       o<<<<< (aa) gop          0.00
                       o<<<<< (aa) dot          0.00
                       o<<<<< (ab) str          0.00
                       o<<<<< (ab) gath         0.00
                       o<<<<< (ab) dotab        0.00
                       o<<<<< (ab) scat         0.00
                       o<<<<< (ab) sync         0.00
                       o<<<<< Density           0.01
                       o<<<<< Density one       0.00
                       o<<<<< Density two       0.00
                       o<<<<< Density ab        0.01
                       o<<<<< Spin adapt        0.34
                       o<<<<< Symm adapt        0.00

                       o<<<<< (ab) max sync:      0.00

           >>>| Valence CI:            -84.461867507871
           >>>| MCSCF energy:          -76.125933477628
           >>>| Gradient norm:          0.713971651D-03
     --- Warning:    2 Hessian diagonals < 0.05 ---
     --- Conjugacy reset ---

                              ----- Line search ------

        step       energy         lsg     num-lsg   num-lsh   lsrat    time
      ------- ---------------- --------- --------- --------- ------- --------
       0.0000     -76.12593348 -1.00D-07  0.00D+00  0.00D+00 0.0D+00      2.8

          Number of sigma calls:       10
                       o<<<<< (aa):             0.00
                       o<<<<< (bb):             0.00
                       o<<<<< (ab):             0.05
                       o<<<<< (total)           0.05
                       o<<<<< (aa) ff           0.00
                       o<<<<< (aa) gop          0.00
                       o<<<<< (aa) dot          0.00
                       o<<<<< (ab) str          0.00
                       o<<<<< (ab) gath         0.00
                       o<<<<< (ab) dotab        0.00
                       o<<<<< (ab) scat         0.00
                       o<<<<< (ab) sync         0.00
                       o<<<<< Density           0.01
                       o<<<<< Density one       0.00
                       o<<<<< Density two       0.00
                       o<<<<< Density ab        0.00
                       o<<<<< Spin adapt        0.27
                       o<<<<< Symm adapt        0.00

                       o<<<<< (ab) max sync:      0.00
       1.0000     -76.12593355 -3.51D-08 -3.51D-08  6.50D-08 3.5D-01      3.3

          Number of sigma calls:       10
                       o<<<<< (aa):             0.00
                       o<<<<< (bb):             0.00
                       o<<<<< (ab):             0.06
                       o<<<<< (total)           0.07
                       o<<<<< (aa) ff           0.00
                       o<<<<< (aa) gop          0.00
                       o<<<<< (aa) dot          0.00
                       o<<<<< (ab) str          0.00
                       o<<<<< (ab) gath         0.00
                       o<<<<< (ab) dotab        0.00
                       o<<<<< (ab) scat         0.00
                       o<<<<< (ab) sync         0.00
                       o<<<<< Density           0.02
                       o<<<<< Density one       0.00
                       o<<<<< Density two       0.00
                       o<<<<< Density ab        0.01
                       o<<<<< Spin adapt        0.36
                       o<<<<< Symm adapt        0.00

                       o<<<<< (ab) max sync:      0.00
       1.5399     -76.12593355  4.10D-11  3.79D-11  6.50D-08 4.1D-04      3.9



          %%%%% MacroIteration   3 %%%%%


          Number of sigma calls:        1
                       o<<<<< (aa):             0.00
                       o<<<<< (bb):             0.00
                       o<<<<< (ab):             0.01
                       o<<<<< (total)           0.01
                       o<<<<< (aa) ff           0.00
                       o<<<<< (aa) gop          0.00
                       o<<<<< (aa) dot          0.00
                       o<<<<< (ab) str          0.00
                       o<<<<< (ab) gath         0.00
                       o<<<<< (ab) dotab        0.00
                       o<<<<< (ab) scat         0.00
                       o<<<<< (ab) sync         0.00
                       o<<<<< Density           0.02
                       o<<<<< Density one       0.01
                       o<<<<< Density two       0.00
                       o<<<<< Density ab        0.01
                       o<<<<< Spin adapt        0.00
                       o<<<<< Symm adapt        0.00

                       o<<<<< (ab) max sync:      0.00

           >>>| Valence CI:            -84.461867584905
           >>>| MCSCF energy:          -76.125933554664
           >>>| Gradient norm:          0.990609345D-04




     ==============================
            MCSCF Converged
     ==============================



          Canonical Eigenvalues

              1      
    1  -20.5568
    2   -1.3107
    3   -0.6966
    4   -0.5669
    5   -0.5193
    6   -0.0337
    7   -0.0258
    8   -0.0158
    9    0.3084
   10    0.3356
   11    0.6106
   12    0.6927
   13    0.8189
   14    0.8258
   15    0.9714
   16    1.1161
   17    1.1878
   18    1.2533
   19    1.4071
   20    1.9347
   21    2.0507
   22    2.0864
   23    2.1575
   24    2.2993
   25    2.6083
   26    2.8232
   27    3.3440
   28    3.4575
   29    3.4668
   30    3.5061
   31    3.5610
   32    3.7150
   33    3.8601
   34    3.8818
   35    3.8973
   36    4.0030
   37    4.0778
   38    4.1639
   39    4.2493
   40    4.2923
   41    4.5221
   42    4.6212
   43    4.9505
   44    5.1429
   45    5.5241
   46    5.8454
   47    6.1085
   48    6.3806
   49    6.7749
   50    6.8862
   51    6.9803
   52    7.0137
   53    7.0964
   54    7.1429
   55    7.3764
   56    7.5565
   57    7.8022
   58   11.5175


          Converged CI vector

   Index           Coefficient          Config. Occupation
         1          0.97046145          1  2  3  4  5  1  2  3  4  5
        22         -0.07401261          1  2  3  4  5  1  2  3  4  8
         3         -0.04602621          1  2  3  4  5  1  2  3  5  6
         8         -0.02705554          1  2  3  4  5  1  2  3  5  7
        27          0.02043354          1  2  3  4  5  1  2  3  6  8
         4         -0.02878380          1  2  3  4  5  1  2  4  5  6
         9          0.03805871          1  2  3  4  5  1  2  4  5  7
        38         -0.02170952          1  2  3  4  5  1  2  4  7  8
      1177         -0.07401261          1  2  3  4  8  1  2  3  4  5
      1198         -0.05159596          1  2  3  4  8  1  2  3  4  8
      1179         -0.02611040          1  2  3  4  8  1  2  3  5  6
      1180         -0.02227530          1  2  3  4  8  1  2  4  5  6
      1185          0.02907619          1  2  3  4  8  1  2  4  5  7
       113         -0.04602621          1  2  3  5  6  1  2  3  4  5
       134         -0.02611040          1  2  3  5  6  1  2  3  4  8
       115         -0.06003016          1  2  3  5  6  1  2  3  5  6
       116         -0.04432352          1  2  3  5  6  1  2  4  5  6
       117         -0.02035861          1  2  3  5  6  1  3  4  5  6
       393         -0.02705554          1  2  3  5  7  1  2  3  4  5
       400         -0.02323168          1  2  3  5  7  1  2  3  5  7
       401          0.02689066          1  2  3  5  7  1  2  4  5  7
      1457          0.02043354          1  2  3  6  8  1  2  3  4  5
       169         -0.02878380          1  2  4  5  6  1  2  3  4  5
       190         -0.02227530          1  2  4  5  6  1  2  3  4  8
       171         -0.04432352          1  2  4  5  6  1  2  3  5  6
       172         -0.04803539          1  2  4  5  6  1  2  4  5  6
       177          0.02005136          1  2  4  5  6  1  2  4  5  7
       173         -0.02195859          1  2  4  5  6  1  3  4  5  6
       449          0.03805871          1  2  4  5  7  1  2  3  4  5
       470          0.02907619          1  2  4  5  7  1  2  3  4  8
       456          0.02689066          1  2  4  5  7  1  2  3  5  7
       452          0.02005136          1  2  4  5  7  1  2  4  5  6
       457         -0.05218352          1  2  4  5  7  1  2  4  5  7
       458          0.02410386          1  2  4  5  7  1  3  4  5  7
      2073         -0.02170952          1  2  4  7  8  1  2  3  4  5
       227         -0.02035861          1  3  4  5  6  1  2  3  5  6
       228         -0.02195859          1  3  4  5  6  1  2  4  5  6
       229         -0.02332901          1  3  4  5  6  1  3  4  5  6
       513          0.02410386          1  3  4  5  7  1  2  4  5  7
       514         -0.02341617          1  3  4  5  7  1  3  4  5  7

          Number of sigma calls:        1
                       o<<<<< (aa):             0.00
                       o<<<<< (bb):             0.00
                       o<<<<< (ab):             0.01
                       o<<<<< (total)           0.01
                       o<<<<< (aa) ff           0.00
                       o<<<<< (aa) gop          0.00
                       o<<<<< (aa) dot          0.00
                       o<<<<< (ab) str          0.00
                       o<<<<< (ab) gath         0.00
                       o<<<<< (ab) dotab        0.00
                       o<<<<< (ab) scat         0.00
                       o<<<<< (ab) sync         0.00
                       o<<<<< Density           0.02
                       o<<<<< Density one       0.01
                       o<<<<< Density two       0.00
                       o<<<<< Density ab        0.01
                       o<<<<< Spin adapt        0.00
                       o<<<<< Symm adapt        0.00

                       o<<<<< (ab) max sync:      0.00



          Natural orbital occupation numbers

              1      
    1    2.0000
    2    1.9986
    3    1.9809
    4    1.9755
    5    1.9633
    6    0.0379
    7    0.0252
    8    0.0186


          Number of sigma calls:       15
                       o<<<<< (aa):             0.00
                       o<<<<< (bb):             0.01
                       o<<<<< (ab):             0.08
                       o<<<<< (total)           0.09
                       o<<<<< (aa) ff           0.00
                       o<<<<< (aa) gop          0.00
                       o<<<<< (aa) dot          0.00
                       o<<<<< (ab) str          0.00
                       o<<<<< (ab) gath         0.00
                       o<<<<< (ab) dotab        0.00
                       o<<<<< (ab) scat         0.00
                       o<<<<< (ab) sync         0.00
                       o<<<<< Density           0.00
                       o<<<<< Density one       0.00
                       o<<<<< Density two       0.00
                       o<<<<< Density ab        0.00
                       o<<<<< Spin adapt        0.40
                       o<<<<< Symm adapt        0.00

                       o<<<<< (ab) max sync:      0.00


       Final MCSCF results 
       ------------------- 

       Total MCSCF energy =    -76.125933554664
            Gradient norm =      9.9D-05

    CPU time for solution =      4.6s
   Wall time for solution =      7.8s



                        Analysis of MCSCF natural orbitals
                        ----------------------------------

 Vector    1  Occ=1.999989D+00  E=-2.055682D+01  Symmetry=a
              MO Center= -9.1D-02, -8.0D-02, -1.4D-10, r^2= 1.6D-02
   Bfn.  Coefficient  Atom+Function         Bfn.  Coefficient  Atom+Function  
  ----- ------------  ---------------      ----- ------------  ---------------
     1      0.972926  1 O  s          

 Vector    2  Occ=1.998595D+00  E=-1.310676D+00  Symmetry=a
              MO Center= -2.9D-01, -2.1D-01,  1.3D-07, r^2= 4.2D-01
   Bfn.  Coefficient  Atom+Function         Bfn.  Coefficient  Atom+Function  
  ----- ------------  ---------------      ----- ------------  ---------------
     2      0.523455  1 O  s                  4      0.393234  1 O  s          

 Vector    3  Occ=1.980898D+00  E=-6.965642D-01  Symmetry=a
              MO Center= -6.3D-02, -6.6D-02, -8.0D-07, r^2= 6.5D-01
   Bfn.  Coefficient  Atom+Function         Bfn.  Coefficient  Atom+Function  
  ----- ------------  ---------------      ----- ------------  ---------------
    10      0.431999  1 O  pz                13      0.393500  1 O  pz         
     7      0.360643  1 O  pz         

 Vector    4  Occ=1.975546D+00  E=-5.668973D-01  Symmetry=a
              MO Center=  3.4D-01, -1.9D-01,  3.6D-07, r^2= 6.0D-01
   Bfn.  Coefficient  Atom+Function         Bfn.  Coefficient  Atom+Function  
  ----- ------------  ---------------      ----- ------------  ---------------
     8      0.343484  1 O  px                 5      0.285963  1 O  px         
    46      0.263890  3 H  s                 11      0.205785  1 O  px         
    45      0.183750  3 H  s          

 Vector    5  Occ=1.963258D+00  E=-5.193212D-01  Symmetry=a
              MO Center= -4.4D-02,  4.3D-01,  1.1D-07, r^2= 7.2D-01
   Bfn.  Coefficient  Atom+Function         Bfn.  Coefficient  Atom+Function  
  ----- ------------  ---------------      ----- ------------  ---------------
     9      0.339486  1 O  py                 6      0.272505  1 O  py         
    32      0.267366  2 H  s                 12      0.201553  1 O  py         
    31      0.164796  2 H  s          

 Vector    6  Occ=3.791764D-02  E=-3.372418D-02  Symmetry=a
              MO Center= -4.0D-02,  6.2D-01,  1.7D-07, r^2= 7.2D-01
   Bfn.  Coefficient  Atom+Function         Bfn.  Coefficient  Atom+Function  
  ----- ------------  ---------------      ----- ------------  ---------------
    32      0.585089  2 H  s                  6     -0.465886  1 O  py         
     9     -0.464993  1 O  py                 2     -0.265714  1 O  s          
    31      0.264489  2 H  s          

 Vector    7  Occ=2.518377D-02  E=-2.582064D-02  Symmetry=a
              MO Center=  5.0D-01, -2.4D-01,  4.0D-07, r^2= 6.6D-01
   Bfn.  Coefficient  Atom+Function         Bfn.  Coefficient  Atom+Function  
  ----- ------------  ---------------      ----- ------------  ---------------
    46      0.655772  3 H  s                  5     -0.517743  1 O  px         
     8     -0.433278  1 O  px                45      0.295283  3 H  s          
     2     -0.280972  1 O  s                  4     -0.197910  1 O  s          

 Vector    8  Occ=1.861190D-02  E=-1.579443D-02  Symmetry=a
              MO Center= -4.6D-03, -2.4D-02, -7.8D-07, r^2= 1.2D+00
   Bfn.  Coefficient  Atom+Function         Bfn.  Coefficient  Atom+Function  
  ----- ------------  ---------------      ----- ------------  ---------------
    13      0.805083  1 O  pz                 7     -0.629246  1 O  pz         
    10     -0.319267  1 O  pz         

 Vector    9  Occ=0.000000D+00  E= 3.083903D-01  Symmetry=a
              MO Center=  5.3D-01,  1.7D-02, -3.9D-07, r^2= 4.7D+00
   Bfn.  Coefficient  Atom+Function         Bfn.  Coefficient  Atom+Function  
  ----- ------------  ---------------      ----- ------------  ---------------
     4      1.823585  1 O  s                 47     -1.434596  3 H  s          
    33     -0.870395  2 H  s                 11      0.708900  1 O  px         
    51      0.465997  3 H  px                38      0.271896  2 H  py         
    32      0.215815  2 H  s                 12      0.200122  1 O  py         
    52     -0.190674  3 H  py         

 Vector   10  Occ=0.000000D+00  E= 3.356355D-01  Symmetry=a
              MO Center=  3.3D-01,  7.0D-01,  1.7D-08, r^2= 5.5D+00
   Bfn.  Coefficient  Atom+Function         Bfn.  Coefficient  Atom+Function  
  ----- ------------  ---------------      ----- ------------  ---------------
    33      1.971628  2 H  s                 47     -1.736013  3 H  s          
    32     -0.648710  2 H  s                 12     -0.548654  1 O  py         
    11      0.377860  1 O  px                46      0.316420  3 H  s          
    51      0.261942  3 H  px                38     -0.235065  2 H  py         

 Vector   11  Occ=0.000000D+00  E= 6.105695D-01  Symmetry=a
              MO Center= -8.3D-02,  3.1D-01,  3.4D-07, r^2= 2.0D+00
   Bfn.  Coefficient  Atom+Function         Bfn.  Coefficient  Atom+Function  
  ----- ------------  ---------------      ----- ------------  ---------------
    46     -2.515499  3 H  s                  4      2.325230  1 O  s          
    11      1.807583  1 O  px                32     -0.849954  2 H  s          
    51      0.696618  3 H  px                37      0.276192  2 H  px         
    33      0.234453  2 H  s                 38      0.231245  2 H  py         
     9     -0.169106  1 O  py                21     -0.152440  1 O  d  0       

 Vector   12  Occ=0.000000D+00  E= 6.926591D-01  Symmetry=a
              MO Center= -6.3D-02, -4.0D-01,  6.2D-08, r^2= 2.4D+00
   Bfn.  Coefficient  Atom+Function         Bfn.  Coefficient  Atom+Function  
  ----- ------------  ---------------      ----- ------------  ---------------
    12      2.271027  1 O  py                32     -1.592262  2 H  s          
    46      1.273453  3 H  s                 11     -1.114652  1 O  px         
    47      0.747724  3 H  s                 33     -0.655789  2 H  s          
    38      0.611056  2 H  py                51     -0.376123  3 H  px         
    52      0.322729  3 H  py                23     -0.272868  1 O  d  2       

 Vector   13  Occ=0.000000D+00  E= 8.188983D-01  Symmetry=a
              MO Center= -2.4D-01, -8.1D-02,  6.5D-08, r^2= 2.3D+00
   Bfn.  Coefficient  Atom+Function         Bfn.  Coefficient  Atom+Function  
  ----- ------------  ---------------      ----- ------------  ---------------
     4      1.773584  1 O  s                 11      1.673120  1 O  px         
    46     -1.660479  3 H  s                 32     -1.177230  2 H  s          
    12      1.066738  1 O  py                52     -1.004687  3 H  py         
    37     -0.834186  2 H  px                38      0.491838  2 H  py         
    51      0.196693  3 H  px                 2      0.195311  1 O  s          

 Vector   14  Occ=0.000000D+00  E= 8.257914D-01  Symmetry=a
              MO Center=  2.8D-01,  4.3D-01, -3.7D-09, r^2= 1.8D+00
   Bfn.  Coefficient  Atom+Function         Bfn.  Coefficient  Atom+Function  
  ----- ------------  ---------------      ----- ------------  ---------------
    39      0.842899  2 H  pz                53     -0.737161  3 H  pz         

 Vector   15  Occ=0.000000D+00  E= 9.713695D-01  Symmetry=a
              MO Center=  1.6D-01,  3.2D-02,  3.5D-07, r^2= 2.1D+00
   Bfn.  Coefficient  Atom+Function         Bfn.  Coefficient  Atom+Function  
  ----- ------------  ---------------      ----- ------------  ---------------
    13      1.186604  1 O  pz                53     -1.061296  3 H  pz         
    39     -0.831068  2 H  pz         

 Vector   16  Occ=0.000000D+00  E= 1.116093D+00  Symmetry=a
              MO Center=  2.6D-01,  1.5D-01,  1.3D-08, r^2= 2.3D+00
   Bfn.  Coefficient  Atom+Function         Bfn.  Coefficient  Atom+Function  
  ----- ------------  ---------------      ----- ------------  ---------------
    46     -2.030455  3 H  s                  4      2.006477  1 O  s          
    11      1.402032  1 O  px                12     -1.307700  1 O  py         
    51      1.063493  3 H  px                37     -0.994053  2 H  px         
    52      0.684060  3 H  py                47     -0.385693  3 H  s          
    32      0.383387  2 H  s                  8      0.280180  1 O  px         

 Vector   17  Occ=0.000000D+00  E= 1.187774D+00  Symmetry=a
              MO Center= -4.9D-02,  2.2D-01,  2.5D-07, r^2= 1.9D+00
   Bfn.  Coefficient  Atom+Function         Bfn.  Coefficient  Atom+Function  
  ----- ------------  ---------------      ----- ------------  ---------------
     4      4.685165  1 O  s                 46     -2.446976  3 H  s          
    32     -1.250371  2 H  s                 11      1.121700  1 O  px         
    51      1.115929  3 H  px                 2     -1.065496  1 O  s          
    52     -0.958221  3 H  py                 8      0.783078  1 O  px         
    47     -0.737367  3 H  s                 12      0.517535  1 O  py         

 Vector   18  Occ=0.000000D+00  E= 1.253313D+00  Symmetry=a
              MO Center= -1.8D-02,  9.8D-01, -1.2D-07, r^2= 2.0D+00
   Bfn.  Coefficient  Atom+Function         Bfn.  Coefficient  Atom+Function  
  ----- ------------  ---------------      ----- ------------  ---------------
     4      4.391378  1 O  s                 38      2.252534  2 H  py         
    46     -1.688313  3 H  s                 32     -1.603066  2 H  s          
    51      1.110816  3 H  px                12      1.067688  1 O  py         
    33     -0.906136  2 H  s                 11      0.625768  1 O  px         
    52     -0.570172  3 H  py                 8      0.504594  1 O  px         


 Wrote Lagrangian and 1- and 2-particle density matrices to ./H2O.mcpdm


     Multipole analysis of the density
     ---------------------------------

     L   x y z        total        nuclear
     -   - - -        -----        -------
     0   0 0 0     -0.000000     10.000000

     1   1 0 0      0.561941     -0.000000
     1   0 1 0      0.434970      0.000000
     1   0 0 1      0.000001      0.000000

     2   2 0 0     -4.255404      2.679864
     2   1 1 0     -0.835663     -1.381060
     2   1 0 1      0.000001      0.000000
     2   0 2 0     -3.276547      4.882204
     2   0 1 1      0.000000      0.000000
     2   0 0 2     -5.653370      0.000000


  Mulliken analysis of the total density
  --------------------------------------

    Atom       Charge   Shell Charges
 -----------   ------   -------------------------------------------------------
    1 O    8     8.49   1.95  1.01  0.24  0.62  1.26  2.06  1.34  0.00  0.02  0.00
    2 H    1     0.75   0.20  0.40  0.09  0.01  0.05  0.00
    3 H    1     0.76   0.25  0.38  0.04  0.02  0.06  0.01

    Mulliken analysis of the active space density
    ---------------------------------------------

    Atom       Charge   Shell Charges
 -----------   ------   -------------------------------------------------------
    1 O    8     8.49   1.95  1.01  0.24  0.62  1.26  2.06  1.34  0.00  0.02  0.00
    2 H    1     0.75   0.20  0.40  0.09  0.01  0.05  0.00
    3 H    1     0.76   0.25  0.38  0.04  0.02  0.06  0.01

 Parallel integral file used      16 records with       0 large values


 Task  times  cpu:        4.7s     wall:        7.9s


                                NWChem Input Module
                                -------------------


                                 NWChem SCF Module
                                 -----------------


                                        H2O



  ao basis        = "ao basis"
  functions       =    58
  atoms           =     3
  closed shells   =     5
  open shells     =     0
  charge          =   0.00
  wavefunction    = RHF 
  input vectors   = ./h2o.mos
  output vectors  = ./h2o-trash.mos
  use symmetry    = F
  symmetry adapt  = F


 Summary of "ao basis" -> "ao basis" (spherical)
 ------------------------------------------------------------------------------
       Tag                 Description            Shells   Functions and Types
 ---------------- ------------------------------  ------  ---------------------
 O                          cc-pVTZ                 10       30   4s3p2d1f
 H                          cc-pVTZ                  6       14   3s2p1d



 Forming initial guess at       8.0s


 Loading old vectors from job with title :

H2O


 Starting SCF solution at       8.0s



 ----------------------------------------------
         Quadratically convergent ROHF

 Convergence threshold     :          1.000E-04
 Maximum no. of iterations :           30
 Final Fock-matrix accuracy:          1.000E-07
 ----------------------------------------------


 Integral file          = ./H2O.aoints.0
 Record size in doubles =  65536        No. of integs per rec  =  43688
 Max. records in memory =     49        Max. records in file   = 252549
 No. of bits per label  =      8        No. of bits per value  =     64


 #quartets = 3.213D+04 #integrals = 6.608D+05 #direct =  0.0% #cached =100.0%



       Final RHF  results 
       ------------------ 

         Total SCF energy =    -76.022662561816
      One-electron energy =   -121.533683775443
      Two-electron energy =     37.175087183385
 Nuclear repulsion energy =      8.335934030242

        Time for solution =      0.2s


             Final eigenvalues
             -----------------

              1      
    1  -20.5568
    2   -1.3107
    3   -0.6966
    4   -0.5669
    5   -0.5193
    6   -0.0337
    7   -0.0258
    8   -0.0158
    9    0.3084
   10    0.3356
   11    0.6106
   12    0.6927
   13    0.8189
   14    0.8258
   15    0.9714

                       ROHF Final Molecular Orbital Analysis
                       -------------------------------------

 Vector    2  Occ=2.000000D+00  E=-1.310676D+00
              MO Center= -2.9D-01, -2.1D-01,  1.3D-07, r^2= 4.2D-01
   Bfn.  Coefficient  Atom+Function         Bfn.  Coefficient  Atom+Function  
  ----- ------------  ---------------      ----- ------------  ---------------
     2      0.523455  1 O  s                  4      0.393234  1 O  s          

 Vector    3  Occ=2.000000D+00  E=-6.965642D-01
              MO Center= -6.3D-02, -6.6D-02, -8.0D-07, r^2= 6.5D-01
   Bfn.  Coefficient  Atom+Function         Bfn.  Coefficient  Atom+Function  
  ----- ------------  ---------------      ----- ------------  ---------------
    10      0.431999  1 O  pz                13      0.393500  1 O  pz         
     7      0.360643  1 O  pz         

 Vector    4  Occ=2.000000D+00  E=-5.668973D-01
              MO Center=  3.4D-01, -1.9D-01,  3.6D-07, r^2= 6.0D-01
   Bfn.  Coefficient  Atom+Function         Bfn.  Coefficient  Atom+Function  
  ----- ------------  ---------------      ----- ------------  ---------------
     8      0.343484  1 O  px                 5      0.285963  1 O  px         
    46      0.263890  3 H  s                 11      0.205785  1 O  px         
    45      0.183750  3 H  s          

 Vector    5  Occ=2.000000D+00  E=-5.193212D-01
              MO Center= -4.4D-02,  4.3D-01,  1.1D-07, r^2= 7.2D-01
   Bfn.  Coefficient  Atom+Function         Bfn.  Coefficient  Atom+Function  
  ----- ------------  ---------------      ----- ------------  ---------------
     9      0.339486  1 O  py                 6      0.272505  1 O  py         
    32      0.267366  2 H  s                 12      0.201553  1 O  py         
    31      0.164796  2 H  s          

 Vector    6  Occ=0.000000D+00  E=-3.372418D-02
              MO Center= -4.0D-02,  6.2D-01,  1.7D-07, r^2= 7.2D-01
   Bfn.  Coefficient  Atom+Function         Bfn.  Coefficient  Atom+Function  
  ----- ------------  ---------------      ----- ------------  ---------------
    32      0.585089  2 H  s                  6     -0.465886  1 O  py         
     9     -0.464993  1 O  py                 2     -0.265714  1 O  s          
    31      0.264489  2 H  s          

 Vector    7  Occ=0.000000D+00  E=-2.582064D-02
              MO Center=  5.0D-01, -2.4D-01,  4.0D-07, r^2= 6.6D-01
   Bfn.  Coefficient  Atom+Function         Bfn.  Coefficient  Atom+Function  
  ----- ------------  ---------------      ----- ------------  ---------------
    46      0.655772  3 H  s                  5     -0.517743  1 O  px         
     8     -0.433278  1 O  px                45      0.295283  3 H  s          
     2     -0.280972  1 O  s                  4     -0.197910  1 O  s          

 Vector    8  Occ=0.000000D+00  E=-1.579443D-02
              MO Center= -4.6D-03, -2.4D-02, -7.8D-07, r^2= 1.2D+00
   Bfn.  Coefficient  Atom+Function         Bfn.  Coefficient  Atom+Function  
  ----- ------------  ---------------      ----- ------------  ---------------
    13      0.805083  1 O  pz                 7     -0.629246  1 O  pz         
    10     -0.319267  1 O  pz         

 Vector    9  Occ=0.000000D+00  E= 3.083903D-01
              MO Center=  5.3D-01,  1.7D-02, -3.9D-07, r^2= 4.7D+00
   Bfn.  Coefficient  Atom+Function         Bfn.  Coefficient  Atom+Function  
  ----- ------------  ---------------      ----- ------------  ---------------
     4      1.823585  1 O  s                 47     -1.434596  3 H  s          
    33     -0.870395  2 H  s                 11      0.708900  1 O  px         
    51      0.465997  3 H  px                38      0.271896  2 H  py         
    32      0.215815  2 H  s                 12      0.200122  1 O  py         
    52     -0.190674  3 H  py         

 Vector   10  Occ=0.000000D+00  E= 3.356355D-01
              MO Center=  3.3D-01,  7.0D-01,  1.7D-08, r^2= 5.5D+00
   Bfn.  Coefficient  Atom+Function         Bfn.  Coefficient  Atom+Function  
  ----- ------------  ---------------      ----- ------------  ---------------
    33      1.971628  2 H  s                 47     -1.736013  3 H  s          
    32     -0.648710  2 H  s                 12     -0.548654  1 O  py         
    11      0.377860  1 O  px                46      0.316420  3 H  s          
    51      0.261942  3 H  px                38     -0.235065  2 H  py         

 Vector   11  Occ=0.000000D+00  E= 6.105695D-01
              MO Center= -8.3D-02,  3.1D-01,  3.4D-07, r^2= 2.0D+00
   Bfn.  Coefficient  Atom+Function         Bfn.  Coefficient  Atom+Function  
  ----- ------------  ---------------      ----- ------------  ---------------
    46     -2.515499  3 H  s                  4      2.325230  1 O  s          
    11      1.807583  1 O  px                32     -0.849954  2 H  s          
    51      0.696618  3 H  px                37      0.276192  2 H  px         
    33      0.234453  2 H  s                 38      0.231245  2 H  py         
     9     -0.169106  1 O  py                21     -0.152440  1 O  d  0       

 Vector   12  Occ=0.000000D+00  E= 6.926591D-01
              MO Center= -6.3D-02, -4.0D-01,  6.2D-08, r^2= 2.4D+00
   Bfn.  Coefficient  Atom+Function         Bfn.  Coefficient  Atom+Function  
  ----- ------------  ---------------      ----- ------------  ---------------
    12      2.271027  1 O  py                32     -1.592262  2 H  s          
    46      1.273453  3 H  s                 11     -1.114652  1 O  px         
    47      0.747724  3 H  s                 33     -0.655789  2 H  s          
    38      0.611056  2 H  py                51     -0.376123  3 H  px         
    52      0.322729  3 H  py                23     -0.272868  1 O  d  2       

 Vector   13  Occ=0.000000D+00  E= 8.188983D-01
              MO Center= -2.4D-01, -8.1D-02,  6.5D-08, r^2= 2.3D+00
   Bfn.  Coefficient  Atom+Function         Bfn.  Coefficient  Atom+Function  
  ----- ------------  ---------------      ----- ------------  ---------------
     4      1.773584  1 O  s                 11      1.673120  1 O  px         
    46     -1.660479  3 H  s                 32     -1.177230  2 H  s          
    12      1.066738  1 O  py                52     -1.004687  3 H  py         
    37     -0.834186  2 H  px                38      0.491838  2 H  py         
    51      0.196693  3 H  px                 2      0.195311  1 O  s          

 Vector   14  Occ=0.000000D+00  E= 8.257914D-01
              MO Center=  2.8D-01,  4.3D-01, -3.7D-09, r^2= 1.8D+00
   Bfn.  Coefficient  Atom+Function         Bfn.  Coefficient  Atom+Function  
  ----- ------------  ---------------      ----- ------------  ---------------
    39      0.842899  2 H  pz                53     -0.737161  3 H  pz         

 Vector   15  Occ=0.000000D+00  E= 9.713695D-01
              MO Center=  1.6D-01,  3.2D-02,  3.5D-07, r^2= 2.1D+00
   Bfn.  Coefficient  Atom+Function         Bfn.  Coefficient  Atom+Function  
  ----- ------------  ---------------      ----- ------------  ---------------
    13      1.186604  1 O  pz                53     -1.061296  3 H  pz         
    39     -0.831068  2 H  pz         


 center of mass
 --------------
 x =  -0.07599894 y =  -0.06683253 z =   0.00000000

 moments of inertia (a.u.)
 ------------------
           5.022616320791           1.275639466010           0.000000000000
           1.275639466010           2.833002082974           0.000000000000
           0.000000000000           0.000000000000           7.855618403765

  Mulliken analysis of the total density
  --------------------------------------

    Atom       Charge   Shell Charges
 -----------   ------   -------------------------------------------------------
    1 O    8     8.50   1.95  1.01  0.23  0.62  1.25  2.08  1.34  0.00  0.02  0.00
    2 H    1     0.75   0.20  0.40  0.09  0.01  0.05  0.00
    3 H    1     0.75   0.25  0.38  0.04  0.02  0.06  0.01

       Multipole analysis of the density wrt the origin
       ------------------------------------------------

     L   x y z        total         open         nuclear
     -   - - -        -----         ----         -------
     0   0 0 0     -0.000000      0.000000     10.000000

     1   1 0 0      0.573343      0.000000     -0.000000
     1   0 1 0      0.449305      0.000000      0.000000
     1   0 0 1      0.000001      0.000000      0.000000

     2   2 0 0     -4.232347      0.000000      2.679864
     2   1 1 0     -0.845217      0.000000     -1.381060
     2   1 0 1      0.000001      0.000000      0.000000
     2   0 2 0     -3.230901      0.000000      4.882204
     2   0 1 1      0.000000      0.000000      0.000000
     2   0 0 2     -5.635484      0.000000      0.000000


 Parallel integral file used      16 records with       0 large values

                   NWChem Extensible Many-Electron Theory Module
                   ---------------------------------------------

              ======================================================
                   This portion of the program was automatically
                  generated by a Tensor Contraction Engine (TCE).
                  The development of this portion of the program
                 and TCE was supported by US Department of Energy,
                Office of Science, Office of Basic Energy Science.
                      TCE is a product of Battelle and PNNL.
              Please cite: S.Hirata, J.Phys.Chem.A 107, 9887 (2003).
              ======================================================

                                        H2O


            General Information
            -------------------
      Number of processors :     1
         Wavefunction type : Restricted Hartree-Fock
          No. of electrons :    10
           Alpha electrons :     5
            Beta electrons :     5
           No. of orbitals :   116
            Alpha orbitals :    58
             Beta orbitals :    58
        Alpha frozen cores :     0
         Beta frozen cores :     0
     Alpha frozen virtuals :     0
      Beta frozen virtuals :     0
         Spin multiplicity : singlet 
    Number of AO functions :    58
       Number of AO shells :    22
        Use of symmetry is : off
      Symmetry adaption is : off
         Schwarz screening : 0.10D-09

          Correlation Information
          -----------------------
          Calculation type : Coupled-cluster singles & doubles                           
   Perturbative correction : none                                                        
            Max iterations :      100
        Residual threshold : 0.10D-06
     T(0) DIIS level shift : 0.00D+00
     L(0) DIIS level shift : 0.00D+00
     T(1) DIIS level shift : 0.00D+00
     L(1) DIIS level shift : 0.00D+00
     T(R) DIIS level shift : 0.00D+00
     T(I) DIIS level shift : 0.00D+00
   CC-T/L Amplitude update :  5-th order DIIS
                I/O scheme : Global Array Library
        L-threshold :  0.10D-06
        EOM-threshold :  0.10D-06
 no EOMCCSD initial starts read in
 TCE RESTART OPTIONS
 READ_INT:   F
 WRITE_INT:  F
 READ_TA:    F
 WRITE_TA:   F
 READ_XA:    F
 WRITE_XA:   F
 READ_IN3:   F
 WRITE_IN3:  F
 SLICE:      F
 D4D5:       F
 quantumc:   F
 qrotation:  F
 pwtce:      F
 qducc:      T
 nacto:                         0
 nrotv:                         0
 nrot:                          0

            Memory Information
            ------------------
          Available GA space size is    1610609372 doubles
          Available MA space size is    1610609772 doubles

 Maximum block size        32 doubles

 tile_dim =     27

 Block   Spin    Irrep     Size     Offset   Alpha
 -------------------------------------------------
   1    alpha     a      5 doubles       0       1
   2    beta      a      5 doubles       5       1
   3    alpha     a     26 doubles      10       3
   4    alpha     a     27 doubles      36       4
   5    beta      a     26 doubles      63       3
   6    beta      a     27 doubles      89       4

 Global array virtual files algorithm will be used

 Parallel file system coherency ......... OK

 Integral file          = ./H2O.aoints.0
 Record size in doubles =  65536        No. of integs per rec  =  43688
 Max. records in memory =     49        Max. records in file   = 252549
 No. of bits per label  =      8        No. of bits per value  =     64


 #quartets = 3.213D+04 #integrals = 6.608D+05 #direct =  0.0% #cached =100.0%


 Fock matrix recomputed
 1-e file size   =             3364
 1-e file name   = ./H2O.f1
 Cpu & wall time / sec            0.1            0.1
 4-electron integrals stored in orbital form

 v2    file size   =          3631290
 4-index algorithm nr.  13 is used
 imaxsize =       30
 imaxsize ichop =        0
 Cpu & wall time / sec            1.7            1.7
 T1-number-of-tasks                    2

 t1 file size   =              265
 t1 file name   = ./H2O.t1
 t1 file handle =       -998
 T2-number-of-boxes                    7

 t2 file size   =           122900
 t2 file name   = ./H2O.t2
 t2 file handle =       -996
CCSD iterations
 ---------------------------------------------------------
 Iter          Residuum       Correlation     Cpu    Wall 
 ---------------------------------------------------------
NEW TASK SCHEDULING
CCSD_T1_NTS --- OK
CCSD_T2_NTS --- OK
    1   1.0876883396945  -0.4526383024836     0.2     0.2
    2   1.9289399894044   0.0343860981175     0.3     0.3
    3   3.5942052468126  -0.8754505677831     0.2     0.3
    4   7.1937403096610   0.7807442001442     0.2     0.2
    5   9.6929743540953  -2.1724235833215     0.2     0.2
 MICROCYCLE DIIS UPDATE:                    5                    5
    6   0.0661777494812  -0.2897208379826     0.2     0.2
    7   0.0845376199381  -0.2773511788407     0.2     0.2
    8   0.1505979385167  -0.3003936070886     0.2     0.2
    9   0.2775666372468  -0.2506987992586     0.3     0.3
   10   0.5477453281119  -0.2792668146899     0.3     0.3
 MICROCYCLE DIIS UPDATE:                   10                    5
   11   0.0058164320572  -0.2879705221551     0.3     0.3
   12   0.0052635343362  -0.2886283921914     0.2     0.2
   13   0.0100569984626  -0.2875401456963     0.2     0.2
   14   0.0209462086788  -0.2896201606914     0.2     0.2
   15   0.0443790251546  -0.2858831904579     0.3     0.3
 MICROCYCLE DIIS UPDATE:                   15                    5
   16   0.0003225760133  -0.2883193466826     0.2     0.2
   17   0.0002685184182  -0.2882824617280     0.3     0.3
   18   0.0004571932029  -0.2883515610461     0.4     0.4
   19   0.0009168888680  -0.2882307549285     0.3     0.3
   20   0.0019169373457  -0.2884530699819     0.3     0.3
 MICROCYCLE DIIS UPDATE:                   20                    5
   21   0.0000303182286  -0.2883084510055     0.2     0.3
   22   0.0000307419930  -0.2883113108318     0.2     0.3
   23   0.0000563581414  -0.2883051704976     0.3     0.3
   24   0.0001159933232  -0.2883170169079     0.2     0.2
   25   0.0002455034202  -0.2882950441237     0.2     0.2
 MICROCYCLE DIIS UPDATE:                   25                    5
   26   0.0000048467089  -0.2883095990906     0.2     0.2
   27   0.0000045279504  -0.2883088787997     0.3     0.3
   28   0.0000079917708  -0.2883101470832     0.3     0.3
   29   0.0000161049867  -0.2883078869204     0.3     0.3
   30   0.0000336849738  -0.2883120189103     0.3     0.3
 MICROCYCLE DIIS UPDATE:                   30                    5
   31   0.0000007415491  -0.2883093188584     0.3     0.3
   32   0.0000007450139  -0.2883093842410     0.3     0.3
   33   0.0000013914717  -0.2883092419117     0.2     0.2
   34   0.0000028803591  -0.2883095125736     0.3     0.3
   35   0.0000061411805  -0.2883090160373     0.3     0.3
 MICROCYCLE DIIS UPDATE:                   35                    5
   36   0.0000001399945  -0.2883093453063     0.3     0.3
   37   0.0000001294752  -0.2883093239012     0.3     0.3
   38   0.0000002251605  -0.2883093611888     0.2     0.2
   39   0.0000004499414  -0.2883092943689     0.2     0.2
   40   0.0000009355557  -0.2883094168603     0.2     0.3
 MICROCYCLE DIIS UPDATE:                   40                    5
   41   0.0000000227404  -0.2883093367673     0.2     0.2
 -----------------------------------------------------------------
 Iterations converged
 CCSD correlation energy / hartree =        -0.288309336767282
 CCSD total energy / hartree       =       -76.310971898583176

 Singles contributions

 Doubles contributions
     6a   (alpha)     7a   (alpha) ---     4a   (alpha)     5a   (alpha)        0.0212238727
     6a   (alpha)     7a   (alpha) ---     5a   (alpha)     4a   (alpha)       -0.0212238727
     6a   (alpha)     8a   (alpha) ---     3a   (alpha)     5a   (alpha)        0.0276022944
     6a   (alpha)     8a   (alpha) ---     5a   (alpha)     3a   (alpha)       -0.0276022944
     7a   (alpha)     6a   (alpha) ---     4a   (alpha)     5a   (alpha)       -0.0212238727
     7a   (alpha)     6a   (alpha) ---     5a   (alpha)     4a   (alpha)        0.0212238727
     7a   (alpha)     8a   (alpha) ---     3a   (alpha)     4a   (alpha)        0.0262128611
     7a   (alpha)     8a   (alpha) ---     4a   (alpha)     3a   (alpha)       -0.0262128611
     8a   (alpha)     6a   (alpha) ---     3a   (alpha)     5a   (alpha)       -0.0276022944
     8a   (alpha)     6a   (alpha) ---     5a   (alpha)     3a   (alpha)        0.0276022944
     8a   (alpha)     7a   (alpha) ---     3a   (alpha)     4a   (alpha)       -0.0262128611
     8a   (alpha)     7a   (alpha) ---     4a   (alpha)     3a   (alpha)        0.0262128611
     6a   (alpha)     6a   (beta ) ---     5a   (alpha)     5a   (beta )       -0.1095481025
     6a   (alpha)     7a   (beta ) ---     5a   (alpha)     4a   (beta )       -0.0324888836
     6a   (alpha)     8a   (beta ) ---     5a   (alpha)     3a   (beta )       -0.0383096182
     7a   (alpha)     6a   (beta ) ---     4a   (alpha)     5a   (beta )       -0.0324888836
     7a   (alpha)     7a   (beta ) ---     4a   (alpha)     4a   (beta )       -0.0796866890
     7a   (alpha)     8a   (beta ) ---     4a   (alpha)     3a   (beta )       -0.0360865614
     8a   (alpha)     6a   (beta ) ---     3a   (alpha)     5a   (beta )       -0.0383096182
     8a   (alpha)     7a   (beta ) ---     3a   (alpha)     4a   (beta )       -0.0360865614
     8a   (alpha)     8a   (beta ) ---     3a   (alpha)     3a   (beta )       -0.0525077102
     8a   (alpha)    17a   (beta ) ---     3a   (alpha)     2a   (beta )       -0.0203279169
    17a   (alpha)     8a   (beta ) ---     2a   (alpha)     3a   (beta )       -0.0203279169
 Ground state specification:
 exp(T)|Ref>~(1+T)|Ref>
 ------- a(p)+/a(q) strings ----------

 singles norm

 doubles norm

 Reference string
  0.99405307920221198      :(1a)+ (2a)+ (3a)+ (4a)+ (5a)+ (1b)+ (2b)+ (3b)+ (4b)+ (5b)+ |0>

 Singles strings

 Doubles strings
 -0.10889662863744216      :(6a)+ (6b)+ (5b)  (5a)  (1a)+ (2a)+ (3a)+ (4a)+ (5a)+ (1b)+ (2b)+ (3b)+ (4b)+ (5b)+ |0>
 -------------------------------------
 enrep_tce =    8.3359340302424361     
  EHF(total)         =       -76.02266256
  Shift (HFtot-HFA)  =         0.00000000
 ALL OCCUPIED ORBITALS ARE ACTIVE IN DUCC --> NO SHIFT
 Number of active orbitals                    8
 Number of active alpha electrons                    5
 Number of active beta electrons                    5
  nos                    10
  nvs                   106
 noas                     5
 nobs                     5
 nvas                    53
 nvbs                    53
 nactv                     3
 DUCC MODEL =                     6
 NONHF =  T
 F-T1 correlation    =   -5.8978410177487052E-005
 V-T1-T1 correlation =    1.4955580596869320E-005
 V-T2 correlation    =  -0.28826531393785088     
 Total correlation   =  -0.28830933676743148     
 F-T1(Ext) correlation         =   -5.1270270460034369E-005
 V-T1(Ext)-T1(Ext) correlation =    2.1860911101672262E-006
 V-T2(Ext) correlation         =  -0.19334381959984692     
 Total Ext correlation         =  -0.19339290377919680     
1-BODY TIME =  280.383 SECONDS.
  HHHH TIME =  261.951 SECONDS.
  PPPP TIME =    0.925 SECONDS.
  HHHP TIME =   20.409 SECONDS.
  PPPH TIME =    1.959 SECONDS.
  HPHP TIME =   17.919 SECONDS.
  HHPP TIME =    7.515 SECONDS.
 ONE-BODY UNITARY CHECK
 TWO-BODY UNITARY CHECK
                    1                    1                    1                    2   2.1331414906861074E-011
                    1                    1                    1                    4  -2.3244851852576997E-011
                    1                    1                    1                    5  -2.9759753504081231E-011
                    1                    1                    2                    1  -2.1331411529261465E-011
                    1                    1                    2                    4  -2.0703132971481827E-011
                    1                    1                    2                    5   9.9878783193277365E-012
                    1                    1                    4                    1   2.3244849528817276E-011
                    1                    1                    4                    2   2.0703132935493680E-011
                    1                    1                    4                    5  -1.4029130594417476E-011
                    1                    1                    5                    1   2.9759752005675604E-011
                    1                    1                    5                    2  -9.9878783248280740E-012
                    1                    1                    5                    4   1.4029130593555553E-011
                    1                    2                    1                    1  -2.1331414906861074E-011
                    1                    2                    1                    4   1.4528839936689408E-011
                    1                    2                    1                    5   4.9203417382126524E-011
                    1                    2                    2                    1   1.8073875729385236E-010
                    1                    2                    2                    2  -4.0923457414771244E-010
                    1                    2                    2                    4  -7.4725545196052678E-011
                    1                    2                    2                    5  -3.0608605060267191E-010
                    1                    2                    3                    3  -2.0410144015026630E-011
                    1                    2                    4                    1  -9.8290812988732768E-011
                    1                    2                    4                    2   4.3426263106327578E-010
                    1                    2                    4                    4  -1.0179117226122184E-010
                    1                    2                    4                    5  -4.8221348030071109E-011
                    1                    2                    5                    1  -8.4267367389534442E-011
                    1                    2                    5                    2   5.1746099592742123E-010
                    1                    2                    5                    4  -1.9553684325467231E-010
                    1                    2                    5                    5  -7.7318081127006030E-011
                    1                    3                    2                    3  -5.9156348049260732E-010
                    1                    3                    3                    1   4.3527537130216842E-010
                    1                    3                    3                    2  -1.0694317254672514E-009
                    1                    3                    3                    4  -3.9878523226677398E-010
                    1                    3                    3                    5  -5.6094336120526833E-010
                    1                    3                    4                    3   1.2173624504285829E-009
                    1                    3                    5                    3   1.3493715641382797E-009
                    1                    4                    1                    1   2.3244851852576997E-011
                    1                    4                    1                    2  -1.4528839936689408E-011
                    1                    4                    1                    5  -1.0059383881433348E-012
                    1                    4                    2                    1  -1.0176789966287458E-010
                    1                    4                    2                    2   1.7459623893728177E-010
                    1                    4                    2                    4  -1.7347916939774999E-010
                    1                    4                    2                    5   2.3511432194591245E-010
                    1                    4                    3                    3   3.6628437522735835E-011
                    1                    4                    4                    1   5.8718363504794979E-011
                    1                    4                    4                    2   4.5837102342904945E-011
                    1                    4                    4                    4  -5.6440962298296206E-011
                    1                    4                    4                    5  -1.0051640171246379E-009
                    1                    4                    5                    1   3.7012018450077733E-011
                    1                    4                    5                    2  -5.8702560678082841E-010
                    1                    4                    5                    4   1.6302624398015220E-009
                    1                    4                    5                    5   1.7509090425650443E-010
                    1                    5                    1                    1   2.9759753504081231E-011
                    1                    5                    1                    2  -4.9203417382126524E-011
                    1                    5                    1                    4   1.0059383881433348E-012
                    1                    5                    2                    1  -5.6339427914608997E-011
                    1                    5                    2                    2   5.3072739187672561E-011
                    1                    5                    2                    4   4.0540736967551588E-010
                    1                    5                    2                    5  -4.8210873574566770E-010
                    1                    5                    3                    3   5.8363737330650068E-011
                    1                    5                    4                    1   2.1002536515490888E-011
                    1                    5                    4                    2  -5.2517959149263674E-010
                    1                    5                    4                    4   1.4261556054285097E-010
                    1                    5                    4                    5   1.5282972751912149E-009
                    1                    5                    5                    1  -1.4818846150177478E-010
                    1                    5                    5                    2   1.2547049900793472E-009
                    1                    5                    5                    4  -1.4515270617410092E-009
                    1                    5                    5                    5  -3.1761847707536619E-010
                    1                    6                    1                    7  -3.1236668807110846E-010
                    1                    6                    1                    9  -1.0062065070037818E-010
                    1                    6                    1                   10  -5.3174561975843915E-011
                    1                    6                    2                    6   1.2149750650003455E-010
                    1                    6                    2                    7  -5.7695281191483261E-010
                    1                    6                    2                    9   1.7103511228827584E-010
                    1                    6                    2                   10   9.2145545859366462E-011
                    1                    6                    3                    8  -6.3578165995781255E-010
                    1                    6                    4                    6   3.3461608484053329E-011
                    1                    6                    4                    7  -9.0593432820577913E-011
                    1                    6                    4                    9  -1.8034256726862097E-010
                    1                    6                    4                   10   2.1000083833336292E-010
                    1                    6                    5                    6   1.6780354883394466E-011
                    1                    6                    5                    7  -7.7461356556493555E-011
                    1                    6                    5                    9   2.6613597913990872E-010
                    1                    6                    5                   10  -8.8272087556129364E-011
                    1                    6                    6                    2   3.3369787488801705E-010
                    1                    6                    6                    4   7.7375758578135390E-011
                    1                    6                    6                    5   2.3414839511737284E-011
                    1                    6                    7                    1  -1.4282869331694314E-010
                    1                    6                    7                    2   5.7695281191483261E-010
                    1                    6                    7                    4  -1.9173824572331355E-010
                    1                    6                    7                    5  -8.2157670098538527E-011
                    1                    6                    8                    3   6.3578165995781255E-010
                    1                    6                    9                    1  -1.0216716361810541E-011
                    1                    6                    9                    2   1.1129657037558388E-010
                    1                    6                    9                    4   1.8034256726862097E-010
                    1                    6                    9                    5  -2.2402997295820071E-010
                    1                    6                   10                    1   1.2979367580712164E-011
                    1                    6                   10                    2   6.7473480904085836E-011
                    1                    6                   10                    4  -2.5210684451507093E-010
                    1                    6                   10                    5   8.8272087556129364E-011
                    1                    7                    1                    6   3.1236668807110846E-010
                    1                    7                    1                    9   2.2691512731320973E-011
                    1                    7                    1                   10   1.7468019218591646E-011
                    1                    7                    2                    6   2.1412111667062916E-010
                    1                    7                    2                    7  -8.9742785078228415E-010
                    1                    7                    2                    9   9.0724119839943884E-010
                    1                    7                    2                   10   1.4262043924323509E-009
                    1                    7                    3                    8   1.5877275535980395E-009
                    1                    7                    4                    6  -2.3496243698514080E-010
                    1                    7                    4                    7   1.6599390577354267E-009
                    1                    7                    4                    9   3.3195617261949639E-010
                    1                    7                    4                   10  -7.9817701016324238E-010
                    1                    7                    5                    6  -2.4322688774083140E-010
                    1                    7                    5                    7   2.4828769769336123E-009
                    1                    7                    5                    9  -8.8853950954738414E-010
                    1                    7                    5                   10  -4.6306123865913484E-011
                    1                    7                    6                    1  -3.3369795815474390E-010
                    1                    7                    6                    4  -8.1626751798763442E-012
                    1                    7                    6                    5   3.1735418980216590E-011
                    1                    7                    7                    1  -3.3381519770614432E-011
                    1                    7                    7                    2   4.8819332604255194E-010
                    1                    7                    7                    4  -9.8196694699181908E-010
                    1                    7                    7                    5  -1.7322905956906887E-009
                    1                    7                    8                    3  -1.6081377202104008E-009
                    1                    7                    9                    1   1.3667160545655088E-010
                    1                    7                    9                    2  -1.2256762302147173E-009
                    1                    7                    9                    4  -4.3374735053669511E-010
                    1                    7                    9                    5   7.4995566706629116E-010
                    1                    7                   10                    1   1.5895936737037042E-010
                    1                    7                   10                    2  -1.9654158565397817E-009
                    1                    7                   10                    4   6.9300266219984863E-010
                    1                    7                   10                    5  -3.1011967299710008E-011
                    1                    8                    2                    8   9.4310014311926871E-010
                    1                    8                    3                    6   9.1536445090412144E-011
                    1                    8                    3                    7   1.5625423351040002E-009
                    1                    8                    3                    9   4.5311519380336618E-010
                    1                    8                    3                   10   5.5031530114130200E-010
                    1                    8                    4                    8   1.5600599484119626E-009
                    1                    8                    5                    8   1.8363626123202303E-009
                    1                    8                    7                    3  -1.5346641353553014E-009
                    1                    8                    8                    1   3.4373726087721934E-010
                    1                    8                    8                    2  -2.6319735193375271E-009
                    1                    8                    8                    4  -8.5190053839348523E-010
                    1                    8                    8                    5  -1.1112588189053640E-009
                    1                    8                    9                    3  -3.4269731063324427E-010
                    1                    8                   10                    3  -4.8699089899573167E-010
                    1                    9                    1                    6   1.0062065070037818E-010
                    1                    9                    1                    7  -2.2691512731320973E-011
                    1                    9                    1                   10   4.4509708418960514E-012
                    1                    9                    2                    6  -1.7329237903592615E-010
                    1                    9                    2                    7   9.0052040130350619E-010
                    1                    9                    2                    9   2.7812042079078392E-010
                    1                    9                    2                   10  -1.8859732081166064E-010
                    1                    9                    3                    8   9.8194776268489825E-010
                    1                    9                    4                    6   7.2476573353963403E-011
                    1                    9                    4                    7   4.1519511266574494E-010
                    1                    9                    4                    9   3.8756747906473765E-009
                    1                    9                    4                   10  -6.0150203828185367E-011
                    1                    9                    5                    6   5.4115867603038437E-011
                    1                    9                    5                    7  -7.9761664151722575E-010
                    1                    9                    5                    9   1.4637207316429285E-009
                    1                    9                    5                   10   9.3254187791963483E-010
                    1                    9                    6                    1  -7.7375800211498813E-011
                    1                    9                    6                    2   8.1626756135572132E-012
                    1                    9                    6                    5  -5.4569716800845214E-012
                    1                    9                    7                    1   7.1524469506811794E-011
                    1                    9                    7                    2  -7.2592415628972007E-010
                    1                    9                    7                    4  -4.5159955636142612E-010
                    1                    9                    7                    5   4.2371164872068504E-010
                    1                    9                    8                    3  -9.4531932802455199E-010
                    1                    9                    9                    1  -1.3757439631945090E-011
                    1                    9                    9                    2  -3.6935807537497034E-010
                    1                    9                    9                    4  -3.9321157493249492E-009
                    1                    9                    9                    5  -9.4501381069436730E-010
                    1                    9                   10                    1  -1.7103835708853765E-011
                    1                    9                   10                    2   2.1059103050800887E-010
                    1                    9                   10                    4   1.6654170403862523E-010
                    1                    9                   10                    5  -7.5745097347090784E-010
                    1                   10                    1                    6   5.3174561975843915E-011
                    1                   10                    1                    7  -1.7468019218591646E-011
                    1                   10                    1                    9  -4.4509708418960514E-012
                    1                   10                    2                    6  -1.6543272893070060E-010
                    1                   10                    2                    7   1.1501159681744089E-009
[...]
    8    2    3    1       -0.0195076160
    8    2    3    2       -0.0511888340
    8    2    3    3        0.0000000497
    8    2    3    4       -0.0052153969
    8    2    3    5       -0.0043978599
    8    2    3    6        0.0118277185
    8    2    3    7        0.0112890025
    8    2    3    8       -0.0000000550
    8    3    3    1        0.0000000182
    8    3    3    2        0.0000000308
    8    3    3    3       -0.2000064468
    8    3    3    4       -0.0000000567
    8    3    3    5       -0.0000000122
    8    3    3    6       -0.0000000566
    8    3    3    7       -0.0000001012
    8    3    3    8        0.1583695522
    8    4    3    1       -0.0032086323
    8    4    3    2       -0.0003462123
    8    4    3    3       -0.0000001235
    8    4    3    4       -0.0055032773
    8    4    3    5       -0.0003849757
    8    4    3    6        0.0023525355
    8    4    3    7        0.0169217980
    8    4    3    8        0.0000000666
    8    5    3    1       -0.0027489772
    8    5    3    2        0.0004242708
    8    5    3    3       -0.0000000434
    8    5    3    4       -0.0002510236
    8    5    3    5       -0.0044469450
    8    5    3    6        0.0151616368
    8    5    3    7        0.0007400316
    8    5    3    8        0.0000000095
    8    6    3    1        0.0067771569
    8    6    3    2        0.0247356068
    8    6    3    3       -0.0000001029
    8    6    3    4        0.0063238329
    8    6    3    5        0.0251139763
    8    6    3    6       -0.0181816371
    8    6    3    7       -0.0023657005
    8    6    3    8        0.0000000273
    8    7    3    1        0.0069599285
    8    7    3    2        0.0245674804
    8    7    3    3       -0.0000001566
    8    7    3    4        0.0284637531
    8    7    3    5        0.0035989681
    8    7    3    6       -0.0025872504
    8    7    3    7       -0.0177780084
    8    7    3    8        0.0000000482
    8    8    3    1       -0.0000000229
    8    8    3    2       -0.0000001781
    8    8    3    3        0.6485290484
    8    8    3    4        0.0000000229
    8    8    3    5       -0.0000000278
    8    8    3    6        0.0000000715
    8    8    3    7        0.0000001174
    8    8    3    8       -0.1822464109
    8    1    4    1       -0.0000000116
    8    1    4    2       -0.0000000317
    8    1    4    3       -0.0074769464
    8    1    4    4       -0.0000000077
    8    1    4    5       -0.0000000090
    8    1    4    6        0.0000000097
    8    1    4    7        0.0000000211
    8    1    4    8        0.0038750132
    8    2    4    1       -0.0000000185
    8    2    4    2       -0.0000000421
    8    2    4    3       -0.0047680747
    8    2    4    4       -0.0000000004
    8    2    4    5       -0.0000000044
    8    2    4    6        0.0000000151
    8    2    4    7        0.0000000022
    8    2    4    8        0.0039707133
    8    3    4    1        0.0029031779
    8    3    4    2        0.0042361933
    8    3    4    3       -0.0000000538
    8    3    4    4       -0.1416626519
    8    3    4    5       -0.0040594448
    8    3    4    6        0.0067201005
    8    3    4    7        0.1186067048
    8    3    4    8        0.0000000666
    8    4    4    1        0.0000000121
    8    4    4    2        0.0000000083
    8    4    4    3       -0.0048091811
    8    4    4    4       -0.0000001213
    8    4    4    5        0.0000000035
    8    4    4    6       -0.0000000042
    8    4    4    7        0.0000000140
    8    4    4    8        0.0168059645
    8    5    4    1       -0.0000000016
    8    5    4    2        0.0000000055
    8    5    4    3       -0.0002891773
    8    5    4    4       -0.0000000244
    8    5    4    5        0.0000000037
    8    5    4    6        0.0000000068
    8    5    4    7        0.0000000237
    8    5    4    8        0.0016515443
    8    6    4    1        0.0000000059
    8    6    4    2        0.0000000278
    8    6    4    3        0.0065158711
    8    6    4    4       -0.0000000451
    8    6    4    5        0.0000000088
    8    6    4    6       -0.0000000039
    8    6    4    7        0.0000000111
    8    6    4    8       -0.0005889465
    8    7    4    1       -0.0000000102
    8    7    4    2       -0.0000000409
    8    7    4    3        0.0276729889
    8    7    4    4       -0.0000001611
    8    7    4    5        0.0000000062
    8    7    4    6        0.0000000038
    8    7    4    7       -0.0000000249
    8    7    4    8       -0.0064550843
    8    8    4    1       -0.0046190843
    8    8    4    2        0.0069965546
    8    8    4    3        0.0000000229
    8    8    4    4        0.5627573104
    8    8    4    5        0.0095117540
    8    8    4    6       -0.0090595942
    8    8    4    7       -0.1527388933
    8    8    4    8       -0.0000001224
    8    1    5    1        0.0000000030
    8    1    5    2       -0.0000000149
    8    1    5    3       -0.0063740374
    8    1    5    4       -0.0000000089
    8    1    5    5       -0.0000000069
    8    1    5    6        0.0000000128
    8    1    5    7        0.0000000025
    8    1    5    8        0.0032692030
    8    2    5    1       -0.0000000092
    8    2    5    2       -0.0000000256
    8    2    5    3       -0.0040232610
    8    2    5    4       -0.0000000044
    8    2    5    5       -0.0000000035
    8    2    5    6        0.0000000010
    8    2    5    7        0.0000000096
    8    2    5    8        0.0037535109
    8    3    5    1        0.0021310607
    8    3    5    2        0.0035761147
    8    3    5    3       -0.0000000100
    8    3    5    4       -0.0041021067
    8    3    5    5       -0.1292134023
    8    3    5    6        0.1154540945
    8    3    5    7       -0.0049474260
    8    3    5    8        0.0000000095
    8    4    5    1        0.0000000001
    8    4    5    2        0.0000000065
    8    4    5    3       -0.0004238395
    8    4    5    4        0.0000000037
    8    4    5    5       -0.0000000723
    8    4    5    6        0.0000000685
    8    4    5    7        0.0000000014
    8    4    5    8        0.0016515443
    8    5    5    1        0.0000000104
    8    5    5    2        0.0000000112
    8    5    5    3       -0.0037143751
    8    5    5    4        0.0000000038
    8    5    5    5       -0.0000000415
    8    5    5    6       -0.0000000056
    8    5    5    7       -0.0000000059
    8    5    5    8        0.0165371357
    8    6    5    1       -0.0000000126
    8    6    5    2       -0.0000000280
    8    6    5    3        0.0242017457
    8    6    5    4        0.0000000085
    8    6    5    5       -0.0000000791
    8    6    5    6        0.0000000101
    8    6    5    7        0.0000000125
    8    6    5    8       -0.0058155025
    8    7    5    1        0.0000000044
    8    7    5    2        0.0000000282
    8    7    5    3        0.0038596193
    8    7    5    4        0.0000000065
    8    7    5    5       -0.0000000597
    8    7    5    6        0.0000000424
    8    7    5    7        0.0000000044
    8    7    5    8        0.0002932801
    8    8    5    1       -0.0034883576
    8    8    5    2        0.0055478078
    8    8    5    3       -0.0000000278
    8    8    5    4        0.0095117540
    8    8    5    5        0.5382123047
    8    8    5    6       -0.1570362646
    8    8    5    7        0.0065495674
    8    8    5    8       -0.0000000476
    8    1    6    1       -0.0000000228
    8    1    6    2        0.0000000114
    8    1    6    3        0.0087729682
    8    1    6    4        0.0000000093
    8    1    6    5        0.0000000115
    8    1    6    6       -0.0000000173
    8    1    6    7       -0.0000000042
    8    1    6    8       -0.0104492693
    8    2    6    1        0.0000000082
    8    2    6    2        0.0000000252
    8    2    6    3        0.0122429350
    8    2    6    4        0.0000000150
    8    2    6    5        0.0000000122
    8    2    6    6       -0.0000000007
    8    2    6    7       -0.0000000074
    8    2    6    8       -0.0084290897
    8    3    6    1       -0.0047290058
    8    3    6    2        0.0120240329
    8    3    6    3       -0.0000000666
    8    3    6    4        0.0058042590
    8    3    6    5        0.1121805876
    8    3    6    6       -0.1615195257
    8    3    6    7        0.0039107230
    8    3    6    8        0.0000000273
    8    4    6    1       -0.0000000021
    8    4    6    2        0.0000000124
    8    4    6    3        0.0020630678
    8    4    6    4       -0.0000000075
    8    4    6    5        0.0000000653
    8    4    6    6       -0.0000000908
    8    4    6    7        0.0000000069
    8    4    6    8       -0.0005889465
    8    5    6    1       -0.0000000147
    8    5    6    2       -0.0000000054
    8    5    6    3        0.0152559670
    8    5    6    4        0.0000000078
    8    5    6    5       -0.0000000107
    8    5    6    6       -0.0000000408
    8    5    6    7        0.0000000129
    8    5    6    8       -0.0058155025
    8    6    6    1        0.0000000204
    8    6    6    2        0.0000000251
    8    6    6    3       -0.0182671186
    8    6    6    4       -0.0000000043
    8    6    6    5        0.0000000125
    8    6    6    6       -0.0000000884
    8    6    6    7       -0.0000000079
    8    6    6    8        0.0271291541
    8    7    6    1       -0.0000000070
    8    7    6    2       -0.0000000145
    8    7    6    3       -0.0028344014
    8    7    6    4        0.0000000040
    8    7    6    5        0.0000000426
    8    7    6    6       -0.0000000614
    8    7    6    7       -0.0000000121
    8    7    6    8        0.0058381130
    8    8    6    1        0.0067643841
    8    8    6    2       -0.0146803250
    8    8    6    3        0.0000000715
    8    8    6    4       -0.0090595942
    8    8    6    5       -0.1570362646
    8    8    6    6        0.5626500318
    8    8    6    7       -0.0018939223
    8    8    6    8       -0.0000000937
    8    1    7    1       -0.0000000260
    8    1    7    2        0.0000000067
    8    1    7    3        0.0087607096
    8    1    7    4        0.0000000188
    8    1    7    5        0.0000000025
    8    1    7    6       -0.0000000041
    8    1    7    7       -0.0000000157
    8    1    7    8       -0.0106282017
    8    2    7    1        0.0000000062
    8    2    7    2        0.0000000093
    8    2    7    3        0.0117600458
    8    2    7    4        0.0000000154
    8    2    7    5        0.0000000079
    8    2    7    6       -0.0000000078
    8    2    7    7       -0.0000000017
    8    2    7    8       -0.0080466866
    8    3    7    1       -0.0046972926
    8    3    7    2        0.0095380470
    8    3    7    3       -0.0000001159
    8    3    7    4        0.1141552016
    8    3    7    5       -0.0055551417
    8    3    7    6        0.0039925644
    8    3    7    7       -0.1727240088
    8    3    7    8        0.0000000482
    8    4    7    1       -0.0000000188
    8    4    7    2       -0.0000000056
    8    4    7    3        0.0169306914
    8    4    7    4        0.0000000092
    8    4    7    5        0.0000000013
    8    4    7    6        0.0000000064
    8    4    7    7       -0.0000001452
    8    4    7    8       -0.0064550843
    8    5    7    1        0.0000000005
    8    5    7    2        0.0000000092
    8    5    7    3        0.0004942901
    8    5    7    4        0.0000000209
    8    5    7    5       -0.0000000085
    8    5    7    6        0.0000000138
    8    5    7    7       -0.0000000301
    8    5    7    8        0.0002932801
    8    6    7    1       -0.0000000057
    8    6    7    2       -0.0000000097
    8    6    7    3       -0.0025670051
    8    6    7    4        0.0000000108
    8    6    7    5        0.0000000132
    8    6    7    6       -0.0000000078
    8    6    7    7       -0.0000000493
    8    6    7    8        0.0058381130
    8    7    7    1        0.0000000254
    8    7    7    2        0.0000000243
    8    7    7    3       -0.0178660141
    8    7    7    4       -0.0000000224
    8    7    7    5        0.0000000040
    8    7    7    6       -0.0000000122
    8    7    7    7       -0.0000002001
    8    7    7    8        0.0301988696
    8    8    7    1        0.0065671100
    8    8    7    2       -0.0103537500
    8    8    7    3        0.0000001174
    8    8    7    4       -0.1527388933
    8    8    7    5        0.0065495674
    8    8    7    6       -0.0018939223
    8    8    7    7        0.5865542842
    8    8    7    8       -0.0000001281
    8    1    8    1        0.0529186000
    8    1    8    2        0.0263386680
    8    1    8    3       -0.0000000255
    8    1    8    4        0.0036393819
    8    1    8    5        0.0030757699
    8    1    8    6       -0.0103062926
    8    1    8    7       -0.0104820784
    8    1    8    8        0.0000000460
    8    2    8    1        0.0263386680
    8    2    8    2        0.0504435727
    8    2    8    3       -0.0000000367
    8    2    8    4        0.0037991003
    8    2    8    5        0.0035649417
    8    2    8    6       -0.0090679236
    8    2    8    7       -0.0086790667
    8    2    8    8        0.0000000467
    8    3    8    1       -0.0000000255
    8    3    8    2       -0.0000000367
    8    3    8    3        0.1529623239
    8    3    8    4        0.0000000637
    8    3    8    5        0.0000000088
    8    3    8    6        0.0000000273
    8    3    8    7        0.0000000496
    8    3    8    8       -0.1822464109
    8    4    8    1        0.0036393819
    8    4    8    2        0.0037991003
    8    4    8    3        0.0000000637
    8    4    8    4        0.0162662355
    8    4    8    5        0.0015418147
    8    4    8    6       -0.0005044553
    8    4    8    7       -0.0067596001
    8    4    8    8       -0.0000001224
    8    5    8    1        0.0030757699
    8    5    8    2        0.0035649417
    8    5    8    3        0.0000000088
    8    5    8    4        0.0015418147
    8    5    8    5        0.0170268721
    8    5    8    6       -0.0061047197
    8    5    8    7        0.0003923489
    8    5    8    8       -0.0000000476
    8    6    8    1       -0.0103062926
    8    6    8    2       -0.0090679236
    8    6    8    3        0.0000000273
    8    6    8    4       -0.0005044553
    8    6    8    5       -0.0061047197
    8    6    8    6        0.0271541808
    8    6    8    7        0.0058071657
    8    6    8    8       -0.0000000937
    8    7    8    1       -0.0104820784
    8    7    8    2       -0.0086790667
    8    7    8    3        0.0000000496
    8    7    8    4       -0.0067596001
    8    7    8    5        0.0003923489
    8    7    8    6        0.0058071657
    8    7    8    7        0.0302283884
    8    7    8    8       -0.0000001281
    8    8    8    1        0.0000000460
    8    8    8    2        0.0000000467
    8    8    8    3       -0.1822464109
    8    8    8    4       -0.0000001224
    8    8    8    5       -0.0000000476
    8    8    8    6       -0.0000000937
    8    8    8    7       -0.0000001281
    8    8    8    8        0.6097643745
 end_two_electron_integrals

 Parallel integral file used      16 records with       0 large values


 Task  times  cpu:      618.4s     wall:      620.8s


                                NWChem Input Module
                                -------------------


 Summary of allocated global arrays
-----------------------------------
  No active global arrays


MA_summarize_allocated_blocks: starting scan ...
MA_summarize_allocated_blocks: scan completed: 0 heap blocks, 0 stack blocks
MA usage statistics:

	allocation statistics:
					      heap	     stack
					      ----	     -----
	current number of blocks	         0	         0
	maximum number of blocks	        18	        42
	current total bytes		         0	         0
	maximum total bytes		  25775960	4725685720
	maximum total K-bytes		     25776	   4725686
	maximum total M-bytes		        26	      4726


                                     CITATION
                                     --------
                Please cite the following reference when publishing
                           results obtained with NWChem:

          E. Apra, E. J. Bylaska, W. A. de Jong, N. Govind, K. Kowalski,
       T. P. Straatsma, M. Valiev, H. J. J. van Dam, Y. Alexeev, J. Anchell,
       V. Anisimov, F. W. Aquino, R. Atta-Fynn, J. Autschbach, N. P. Bauman,
     J. C. Becca, D. E. Bernholdt, K. Bhaskaran-Nair, S. Bogatko, P. Borowski,
         J. Boschen, J. Brabec, A. Bruner, E. Cauet, Y. Chen, G. N. Chuev,
      C. J. Cramer, J. Daily, M. J. O. Deegan, T. H. Dunning Jr., M. Dupuis,
   K. G. Dyall, G. I. Fann, S. A. Fischer, A. Fonari, H. Fruchtl, L. Gagliardi,
      J. Garza, N. Gawande, S. Ghosh, K. Glaesemann, A. W. Gotz, J. Hammond,
       V. Helms, E. D. Hermes, K. Hirao, S. Hirata, M. Jacquelin, L. Jensen,
   B. G. Johnson, H. Jonsson, R. A. Kendall, M. Klemm, R. Kobayashi, V. Konkov,
      S. Krishnamoorthy, M. Krishnan, Z. Lin, R. D. Lins, R. J. Littlefield,
      A. J. Logsdail, K. Lopata, W. Ma, A. V. Marenich, J. Martin del Campo,
   D. Mejia-Rodriguez, J. E. Moore, J. M. Mullin, T. Nakajima, D. R. Nascimento,
    J. A. Nichols, P. J. Nichols, J. Nieplocha, A. Otero-de-la-Roza, B. Palmer,
    A. Panyala, T. Pirojsirikul, B. Peng, R. Peverati, J. Pittner, L. Pollack,
   R. M. Richard, P. Sadayappan, G. C. Schatz, W. A. Shelton, D. W. Silverstein,
   D. M. A. Smith, T. A. Soares, D. Song, M. Swart, H. L. Taylor, G. S. Thomas,
            V. Tipparaju, D. G. Truhlar, K. Tsemekhman, T. Van Voorhis,
      A. Vazquez-Mayagoitia, P. Verma, O. Villa, A. Vishnu, K. D. Vogiatzis,
        D. Wang, J. H. Weare, M. J. Williamson, T. L. Windus, K. Wolinski,
        A. T. Wong, Q. Wu, C. Yang, Q. Yu, M. Zacharias, Z. Zhang, Y. Zhao,
                                and R. J. Harrison
                        "NWChem: Past, present, and future
                         J. Chem. Phys. 152, 184102 (2020)
                               doi:10.1063/5.0004997

                                      AUTHORS
                                      -------
  E. Apra, E. J. Bylaska, N. Govind, K. Kowalski, M. Valiev, D. Mejia-Rodriguez,
       A. Kunitsa, N. P. Bauman, A. Panyala, W. A. de Jong, T. P. Straatsma,
        H. J. J. van Dam, D. Wang, T. L. Windus, J. Hammond, J. Autschbach,
    K. Bhaskaran-Nair, J. Brabec, K. Lopata, S. A. Fischer, S. Krishnamoorthy,
     M. Jacquelin, W. Ma, M. Klemm, O. Villa, Y. Chen, V. Anisimov, F. Aquino,
    S. Hirata, M. T. Hackler, Eric Hermes, L. Jensen, J. E. Moore, J. C. Becca,
      V. Konjkov, T. Risthaus, M. Malagoli, A. Marenich, A. Otero-de-la-Roza,
        J. Mullin, P. Nichols, R. Peverati, J. Pittner, Y. Zhao, P.-D. Fan,
        A. Fonari, M. J. Williamson, R. J. Harrison, J. R. Rehr, M. Dupuis,
     D. Silverstein, D. M. A. Smith, J. Nieplocha, V. Tipparaju, M. Krishnan,
     B. E. Van Kuiken, A. Vazquez-Mayagoitia, M. Swart, Q. Wu, T. Van Voorhis,
     A. A. Auer, M. Nooijen, L. D. Crosby, E. Brown, G. Cisneros, G. I. Fann,
   H. Fruchtl, J. Garza, K. Hirao, R. A. Kendall, J. A. Nichols, K. Tsemekhman,
    K. Wolinski, J. Anchell, D. E. Bernholdt, P. Borowski, T. Clark, D. Clerc,
   H. Dachsel, M. J. O. Deegan, K. Dyall, D. Elwood, E. Glendening, M. Gutowski,
   A. C. Hess, J. Jaffe, B. G. Johnson, J. Ju, R. Kobayashi, R. Kutteh, Z. Lin,
   R. Littlefield, X. Long, B. Meng, T. Nakajima, S. Niu, L. Pollack, M. Rosing,
   K. Glaesemann, G. Sandrone, M. Stave, H. Taylor, G. Thomas, J. H. van Lenthe,
                               A. T. Wong, Z. Zhang.

 Total times  cpu:      623.1s     wall:      628.7s
