 argument  1 = input.nw
  NWChem w/ OpenMP: maximum threads =    1



============================== echo of input deck ==============================
 echo
 start HF
 title "HF"

 memory total 24 gb

 geometry units bohr
 symmetry c1
        F  0.00000000  0.00000000  0.00000000
        H  0.00000000  2.25225  0.00000000
 end

 basis spherical
   * library cc-pVTZ
 end

 mcscf
   active  8
   actelec 10
   multiplicity 1
   maxiter 40
   vectors input HF.mos
   vectors output HF.mos
 end

 task mcscf

 scf
   vectors input HF.mos
   vectors output HF-trash.mos
   noscf
 end

 tce
   2eorb
   2emet 13
   ccsd
   maxiter 500
 end

# set tce:print_integrals T
# set tce:qorb 8
# set tce:qela 5
# set tce:qelb 5

 set tce:qducc T
 set tce:nactv 3
 set tce:nonhf T
 set tce:ducc_model 3

 set tce:printtol 0.02

 task tce
================================================================================


                                         
                                         


             Northwest Computational Chemistry Package (NWChem) 7.0.1
             --------------------------------------------------------


                    Environmental Molecular Sciences Laboratory
                       Pacific Northwest National Laboratory
                                Richland, WA 99352

                              Copyright (c) 1994-2020
                       Pacific Northwest National Laboratory
                            Battelle Memorial Institute

             NWChem is an open-source computational chemistry package
                        distributed under the terms of the
                      Educational Community License (ECL) 2.0
             A copy of the license is included with this distribution
                              in the LICENSE.TXT file

                                  ACKNOWLEDGMENT
                                  --------------

            This software and its documentation were developed at the
            EMSL at Pacific Northwest National Laboratory, a multiprogram
            national laboratory, operated for the U.S. Department of Energy
            by Battelle under Contract Number DE-AC05-76RL01830. Support
            for this work was provided by the Department of Energy Office
            of Biological and Environmental Research, Office of Basic
            Energy Sciences, and the Office of Advanced Scientific Computing.


           Job information
           ---------------

    hostname        = WE46210
    program         = /home/baum612/code/nwchem/bin/LINUX64/nwchem
    date            = Mon Nov  6 12:38:59 2023

    compiled        = Mon_Nov_06_10:06:57_2023
    source          = /home/baum612/code/nwchem
    nwchem branch   = 7.0.0
    nwchem revision = nwchem_on_git-4191-g39d87d64de
    ga revision     = 5.8.1
    use scalapack   = F
    input           = input.nw
    prefix          = HF.
    data base       = ./HF.db
    status          = startup
    nproc           =        1
    time left       =     -1s



           Memory information
           ------------------

    heap     =  805306362 doubles =   6144.0 Mbytes
    stack    =  805306367 doubles =   6144.0 Mbytes
    global   = 1610612736 doubles =  12288.0 Mbytes (distinct from heap & stack)
    total    = 3221225465 doubles =  24576.0 Mbytes
    verify   = yes
    hardfail = no 


           Directory information
           ---------------------

  0 permanent = .
  0 scratch   = .




                                NWChem Input Module
                                -------------------


                                        HF
                                        --
 Turning off AUTOSYM since
 SYMMETRY directive was detected!


          ------
          auto-z
          ------
     1 autoz failed with cvr_scaling = 1.2 changing to 1.3
  no constraints, skipping    0.0000000000000000     
  no constraints, skipping    0.0000000000000000     


                             Geometry "geometry" -> ""
                             -------------------------

 Output coordinates in a.u. (scale by  1.000000000 to convert to a.u.)

  No.       Tag          Charge          X              Y              Z
 ---- ---------------- ---------- -------------- -------------- --------------
    1 F                    9.0000     0.00000000    -0.22522500     0.00000000
    2 H                    1.0000     0.00000000     2.02702500     0.00000000

      Atomic Mass 
      ----------- 

      F                 18.998400
      H                  1.007825


 Effective nuclear repulsion energy (a.u.)       3.9960039960

            Nuclear Dipole moment (a.u.) 
            ----------------------------
        X                 Y               Z
 ---------------- ---------------- ----------------
     0.0000000000     0.0000000000     0.0000000000



                                Z-matrix (autoz)
                                -------- 

 Units are Angstrom for bonds and degrees for angles

      Type          Name      I     J     K     L     M      Value
      ----------- --------  ----- ----- ----- ----- ----- ----------
    1 Stretch                  1     2                       1.19184


            XYZ format geometry
            -------------------
     2
 geometry
 F                     0.00000000    -0.11918395     0.00000000
 H                     0.00000000     1.07265551     0.00000000



 Summary of "ao basis" -> "" (spherical)
 ------------------------------------------------------------------------------
       Tag                 Description            Shells   Functions and Types
 ---------------- ------------------------------  ------  ---------------------
 *                          cc-pVTZ                   on all atoms 


                      Basis "ao basis" -> "ao basis" (spherical)
                      -----
  F (Fluorine)
  ------------
            Exponent  Coefficients 
       -------------- ---------------------------------------------------------
  1 S  1.95000000E+04  0.000507
  1 S  2.92300000E+03  0.003923
  1 S  6.64500000E+02  0.020200
  1 S  1.87500000E+02  0.079010
  1 S  6.06200000E+01  0.230439
  1 S  2.14200000E+01  0.432872
  1 S  7.95000000E+00  0.349964
  1 S  8.81500000E-01 -0.007892

  2 S  1.95000000E+04 -0.000117
  2 S  2.92300000E+03 -0.000912
  2 S  6.64500000E+02 -0.004717
  2 S  1.87500000E+02 -0.019086
  2 S  6.06200000E+01 -0.059655
  2 S  2.14200000E+01 -0.140010
  2 S  7.95000000E+00 -0.176782
  2 S  8.81500000E-01  0.605043

  3 S  2.25700000E+00  1.000000

  4 S  3.04100000E-01  1.000000

  5 P  4.38800000E+01  0.016665
  5 P  9.92600000E+00  0.104472
  5 P  2.93000000E+00  0.317260

  6 P  9.13200000E-01  1.000000

  7 P  2.67200000E-01  1.000000

  8 D  3.10700000E+00  1.000000

  9 D  8.55000000E-01  1.000000

 10 F  1.91700000E+00  1.000000

  H (Hydrogen)
  ------------
            Exponent  Coefficients 
       -------------- ---------------------------------------------------------
  1 S  3.38700000E+01  0.006068
  1 S  5.09500000E+00  0.045308
  1 S  1.15900000E+00  0.202822

  2 S  3.25800000E-01  1.000000

  3 S  1.02700000E-01  1.000000

  4 P  1.40700000E+00  1.000000

  5 P  3.88000000E-01  1.000000

  6 D  1.05700000E+00  1.000000



 Summary of "ao basis" -> "ao basis" (spherical)
 ------------------------------------------------------------------------------
       Tag                 Description            Shells   Functions and Types
 ---------------- ------------------------------  ------  ---------------------
 F                          cc-pVTZ                 10       30   4s3p2d1f
 H                          cc-pVTZ                  6       14   3s2p1d



                            NWChem Direct MCSCF Module
                            --------------------------


                                        HF


     -----------------------------------
       Basis functions:             44
       Inactive shells:              0
       Active shells:                8
       Active electrons:            10
       Symmetry:                    a       
       Multiplicity:                 1
       Orbital rotations:          288
     -----------------------------------

     -----------------------------------
       E2 extrapolation:             F
       Conjugacy:                    T
       Micro CI relax:               T
       Canonical orbitals:           T
       Maximum iterations:          40
       Converge threshold:    1.00E-04
       Conjugacy resets:            20
       Initial levelshift:        0.10
     -----------------------------------

 Loading old vectors from job with title :

HF


   input molecular orbitals = ./HF.mos
  output molecular orbtials = ./HF.mos

       No. of determinants:          3136


  Starting Orbital Energies
   -26.294772    -1.549954    -0.704314    -0.635035    -0.635035    -0.040324
    -0.007643    -0.003566     0.372242     0.785104     0.785104     1.017217
     1.017217     1.094969     1.707331     2.254754     2.254754     2.372799
     2.372799     2.593722     3.442457     3.442457     3.820958     3.820958
     3.948224     4.024556     4.024556     4.395784     5.187539     5.187539
     6.136015     7.419187     7.419187     7.444991     7.444991     7.817652
     7.817652     7.877524     8.887296     8.887296     9.181146     9.181146
     9.222432    10.465800

  Orbital Symmetry Irreps
a    a    a    a    a    a    a    a    a    a    a    a    a    a    a   
a    a    a    a    a    a    a    a    a    a    a    a    a    a    a   
a    a    a    a    a    a    a    a    a    a    a    a    a    a   

 Integral file          = ./HF.aoints.0
 Record size in doubles =  65536        No. of integs per rec  =  43688
 Max. records in memory =     18        Max. records in file   = 280410
 No. of bits per label  =      8        No. of bits per value  =     64


 #quartets = 9.316D+03 #integrals = 1.251D+05 #direct =  0.0% #cached =100.0%




          %%%%% MacroIteration   1 %%%%%


          Number of sigma calls:       21
                       o<<<<< (aa):             0.00
                       o<<<<< (bb):             0.01
                       o<<<<< (ab):             0.11
                       o<<<<< (total)           0.12
                       o<<<<< (aa) ff           0.00
                       o<<<<< (aa) gop          0.00
                       o<<<<< (aa) dot          0.00
                       o<<<<< (ab) str          0.00
                       o<<<<< (ab) gath         0.00
                       o<<<<< (ab) dotab        0.00
                       o<<<<< (ab) scat         0.00
                       o<<<<< (ab) sync         0.00
                       o<<<<< Density           0.01
                       o<<<<< Density one       0.00
                       o<<<<< Density two       0.00
                       o<<<<< Density ab        0.01
                       o<<<<< Spin adapt        0.19
                       o<<<<< Symm adapt        0.00

                       o<<<<< (ab) max sync:      0.00

           >>>| Valence CI:           -104.057205808238
           >>>| MCSCF energy:         -100.061201812234
           >>>| Gradient norm:          0.715532125D-01
     --- Warning:   27 Hessian diagonals < 0.05 ---

                              ----- Line search ------

        step       energy         lsg     num-lsg   num-lsh   lsrat    time
      ------- ---------------- --------- --------- --------- ------- --------
       0.0000    -100.06120181 -4.94D-04  0.00D+00  0.00D+00 0.0D+00      0.8

          Number of sigma calls:       21
                       o<<<<< (aa):             0.00
                       o<<<<< (bb):             0.01
                       o<<<<< (ab):             0.12
                       o<<<<< (total)           0.13
                       o<<<<< (aa) ff           0.00
                       o<<<<< (aa) gop          0.00
                       o<<<<< (aa) dot          0.00
                       o<<<<< (ab) str          0.00
                       o<<<<< (ab) gath         0.00
                       o<<<<< (ab) dotab        0.00
                       o<<<<< (ab) scat         0.00
                       o<<<<< (ab) sync         0.00
                       o<<<<< Density           0.02
                       o<<<<< Density one       0.00
                       o<<<<< Density two       0.00
                       o<<<<< Density ab        0.01
                       o<<<<< Spin adapt        0.29
                       o<<<<< Symm adapt        0.00

                       o<<<<< (ab) max sync:      0.00
       1.0000    -100.06147347 -4.85D-05 -4.87D-05  4.46D-04 9.8D-02      1.3
     --- Orbitals canonicalized ---



          %%%%% MacroIteration   2 %%%%%


          Number of sigma calls:       17
                       o<<<<< (aa):             0.00
                       o<<<<< (bb):             0.01
                       o<<<<< (ab):             0.08
                       o<<<<< (total)           0.09
                       o<<<<< (aa) ff           0.00
                       o<<<<< (aa) gop          0.00
                       o<<<<< (aa) dot          0.00
                       o<<<<< (ab) str          0.00
                       o<<<<< (ab) gath         0.00
                       o<<<<< (ab) dotab        0.00
                       o<<<<< (ab) scat         0.00
                       o<<<<< (ab) sync         0.00
                       o<<<<< Density           0.01
                       o<<<<< Density one       0.00
                       o<<<<< Density two       0.00
                       o<<<<< Density ab        0.01
                       o<<<<< Spin adapt        0.15
                       o<<<<< Symm adapt        0.00

                       o<<<<< (ab) max sync:      0.00

           >>>| Valence CI:           -104.057477469909
           >>>| MCSCF energy:         -100.061473473905
           >>>| Gradient norm:          0.129991139D-01
     --- Warning:   27 Hessian diagonals < 0.05 ---
     --- Conjugacy reset ---

                              ----- Line search ------

        step       energy         lsg     num-lsg   num-lsh   lsrat    time
      ------- ---------------- --------- --------- --------- ------- --------
       0.0000    -100.06147347 -1.88D-05  0.00D+00  0.00D+00 0.0D+00      1.7

          Number of sigma calls:       17
                       o<<<<< (aa):             0.00
                       o<<<<< (bb):             0.01
                       o<<<<< (ab):             0.08
                       o<<<<< (total)           0.09
                       o<<<<< (aa) ff           0.00
                       o<<<<< (aa) gop          0.00
                       o<<<<< (aa) dot          0.00
                       o<<<<< (ab) str          0.00
                       o<<<<< (ab) gath         0.00
                       o<<<<< (ab) dotab        0.00
                       o<<<<< (ab) scat         0.00
                       o<<<<< (ab) sync         0.00
                       o<<<<< Density           0.02
                       o<<<<< Density one       0.01
                       o<<<<< Density two       0.00
                       o<<<<< Density ab        0.01
                       o<<<<< Spin adapt        0.18
                       o<<<<< Symm adapt        0.00

                       o<<<<< (ab) max sync:      0.00
       1.0000    -100.06148656 -7.34D-06 -7.35D-06  1.15D-05 3.9D-01      2.1

          Number of sigma calls:       17
                       o<<<<< (aa):             0.00
                       o<<<<< (bb):             0.01
                       o<<<<< (ab):             0.06
                       o<<<<< (total)           0.07
                       o<<<<< (aa) ff           0.00
                       o<<<<< (aa) gop          0.00
                       o<<<<< (aa) dot          0.00
                       o<<<<< (ab) str          0.00
                       o<<<<< (ab) gath         0.00
                       o<<<<< (ab) dotab        0.00
                       o<<<<< (ab) scat         0.00
                       o<<<<< (ab) sync         0.00
                       o<<<<< Density           0.00
                       o<<<<< Density one       0.00
                       o<<<<< Density two       0.00
                       o<<<<< Density ab        0.00
                       o<<<<< Spin adapt        0.16
                       o<<<<< Symm adapt        0.00

                       o<<<<< (ab) max sync:      0.00
       1.6403    -100.06148888  8.08D-08  7.55D-08  1.16D-05 4.3D-03      2.4



          %%%%% MacroIteration   3 %%%%%


          Number of sigma calls:        1
                       o<<<<< (aa):             0.00
                       o<<<<< (bb):             0.00
                       o<<<<< (ab):             0.01
                       o<<<<< (total)           0.01
                       o<<<<< (aa) ff           0.00
                       o<<<<< (aa) gop          0.00
                       o<<<<< (aa) dot          0.00
                       o<<<<< (ab) str          0.00
                       o<<<<< (ab) gath         0.00
                       o<<<<< (ab) dotab        0.00
                       o<<<<< (ab) scat         0.00
                       o<<<<< (ab) sync         0.00
                       o<<<<< Density           0.01
                       o<<<<< Density one       0.00
                       o<<<<< Density two       0.00
                       o<<<<< Density ab        0.00
                       o<<<<< Spin adapt        0.00
                       o<<<<< Symm adapt        0.00

                       o<<<<< (ab) max sync:      0.00

           >>>| Valence CI:           -104.057492878190
           >>>| MCSCF energy:         -100.061488882186
           >>>| Gradient norm:          0.213706531D-02
     --- Warning:   48 Hessian diagonals < 0.05 ---

                              ----- Line search ------

        step       energy         lsg     num-lsg   num-lsh   lsrat    time
      ------- ---------------- --------- --------- --------- ------- --------
       0.0000    -100.06148888 -7.47D-07  0.00D+00  0.00D+00 0.0D+00      2.5

          Number of sigma calls:       14
                       o<<<<< (aa):             0.00
                       o<<<<< (bb):             0.01
                       o<<<<< (ab):             0.09
                       o<<<<< (total)           0.10
                       o<<<<< (aa) ff           0.00
                       o<<<<< (aa) gop          0.00
                       o<<<<< (aa) dot          0.00
                       o<<<<< (ab) str          0.00
                       o<<<<< (ab) gath         0.00
                       o<<<<< (ab) dotab        0.00
                       o<<<<< (ab) scat         0.00
                       o<<<<< (ab) sync         0.00
                       o<<<<< Density           0.01
                       o<<<<< Density one       0.00
                       o<<<<< Density two       0.00
                       o<<<<< Density ab        0.01
                       o<<<<< Spin adapt        0.15
                       o<<<<< Symm adapt        0.00

                       o<<<<< (ab) max sync:      0.00
       1.0000    -100.06148936 -2.08D-07 -2.08D-07  5.39D-07 2.8D-01      2.8

          Number of sigma calls:       13
                       o<<<<< (aa):             0.01
                       o<<<<< (bb):             0.01
                       o<<<<< (ab):             0.07
                       o<<<<< (total)           0.09
                       o<<<<< (aa) ff           0.00
                       o<<<<< (aa) gop          0.00
                       o<<<<< (aa) dot          0.00
                       o<<<<< (ab) str          0.00
                       o<<<<< (ab) gath         0.00
                       o<<<<< (ab) dotab        0.00
                       o<<<<< (ab) scat         0.00
                       o<<<<< (ab) sync         0.00
                       o<<<<< Density           0.02
                       o<<<<< Density one       0.01
                       o<<<<< Density two       0.00
                       o<<<<< Density ab        0.01
                       o<<<<< Spin adapt        0.23
                       o<<<<< Symm adapt        0.00

                       o<<<<< (ab) max sync:      0.00
       1.3854    -100.06148940  9.49D-11  9.00D-11  5.39D-07 1.3D-04      3.2



          %%%%% MacroIteration   4 %%%%%


          Number of sigma calls:        1
                       o<<<<< (aa):             0.00
                       o<<<<< (bb):             0.00
                       o<<<<< (ab):             0.01
                       o<<<<< (total)           0.01
                       o<<<<< (aa) ff           0.00
                       o<<<<< (aa) gop          0.00
                       o<<<<< (aa) dot          0.00
                       o<<<<< (ab) str          0.00
                       o<<<<< (ab) gath         0.00
                       o<<<<< (ab) dotab        0.00
                       o<<<<< (ab) scat         0.00
                       o<<<<< (ab) sync         0.00
                       o<<<<< Density           0.02
                       o<<<<< Density one       0.00
                       o<<<<< Density two       0.00
                       o<<<<< Density ab        0.01
                       o<<<<< Spin adapt        0.00
                       o<<<<< Symm adapt        0.00

                       o<<<<< (ab) max sync:      0.00

           >>>| Valence CI:           -104.057493395629
           >>>| MCSCF energy:         -100.061489399625
           >>>| Gradient norm:          0.381881791D-03
     --- Warning:   48 Hessian diagonals < 0.05 ---

                              ----- Line search ------

        step       energy         lsg     num-lsg   num-lsh   lsrat    time
      ------- ---------------- --------- --------- --------- ------- --------
       0.0000    -100.06148940 -6.44D-08  0.00D+00  0.00D+00 0.0D+00      3.3

          Number of sigma calls:       13
                       o<<<<< (aa):             0.00
                       o<<<<< (bb):             0.00
                       o<<<<< (ab):             0.06
                       o<<<<< (total)           0.06
                       o<<<<< (aa) ff           0.00
                       o<<<<< (aa) gop          0.00
                       o<<<<< (aa) dot          0.00
                       o<<<<< (ab) str          0.00
                       o<<<<< (ab) gath         0.00
                       o<<<<< (ab) dotab        0.00
                       o<<<<< (ab) scat         0.00
                       o<<<<< (ab) sync         0.00
                       o<<<<< Density           0.01
                       o<<<<< Density one       0.00
                       o<<<<< Density two       0.00
                       o<<<<< Density ab        0.01
                       o<<<<< Spin adapt        0.23
                       o<<<<< Symm adapt        0.00

                       o<<<<< (ab) max sync:      0.00
       1.0000    -100.06148944 -1.57D-08 -1.57D-08  4.87D-08 2.4D-01      3.7

          Number of sigma calls:       11
                       o<<<<< (aa):             0.00
                       o<<<<< (bb):             0.00
                       o<<<<< (ab):             0.05
                       o<<<<< (total)           0.05
                       o<<<<< (aa) ff           0.00
                       o<<<<< (aa) gop          0.00
                       o<<<<< (aa) dot          0.00
                       o<<<<< (ab) str          0.00
                       o<<<<< (ab) gath         0.00
                       o<<<<< (ab) dotab        0.00
                       o<<<<< (ab) scat         0.00
                       o<<<<< (ab) sync         0.00
                       o<<<<< Density           0.02
                       o<<<<< Density one       0.00
                       o<<<<< Density two       0.00
                       o<<<<< Density ab        0.01
                       o<<<<< Spin adapt        0.16
                       o<<<<< Symm adapt        0.00

                       o<<<<< (ab) max sync:      0.00
       1.3213    -100.06148944  7.40D-13  9.75D-13  4.87D-08 1.1D-05      3.9



          %%%%% MacroIteration   5 %%%%%


          Number of sigma calls:        1
                       o<<<<< (aa):             0.00
                       o<<<<< (bb):             0.00
                       o<<<<< (ab):             0.00
                       o<<<<< (total)           0.00
                       o<<<<< (aa) ff           0.00
                       o<<<<< (aa) gop          0.00
                       o<<<<< (aa) dot          0.00
                       o<<<<< (ab) str          0.00
                       o<<<<< (ab) gath         0.00
                       o<<<<< (ab) dotab        0.00
                       o<<<<< (ab) scat         0.00
                       o<<<<< (ab) sync         0.00
                       o<<<<< Density           0.02
                       o<<<<< Density one       0.01
                       o<<<<< Density two       0.00
                       o<<<<< Density ab        0.01
                       o<<<<< Spin adapt        0.00
                       o<<<<< Symm adapt        0.00

                       o<<<<< (ab) max sync:      0.00

           >>>| Valence CI:           -104.057493438179
           >>>| MCSCF energy:         -100.061489442175
           >>>| Gradient norm:          0.145225972D-03
     --- Warning:   48 Hessian diagonals < 0.05 ---

                              ----- Line search ------

        step       energy         lsg     num-lsg   num-lsh   lsrat    time
      ------- ---------------- --------- --------- --------- ------- --------
       0.0000    -100.06148944 -3.79D-09  0.00D+00  0.00D+00 0.0D+00      4.1

          Number of sigma calls:       11
                       o<<<<< (aa):             0.00
                       o<<<<< (bb):             0.00
                       o<<<<< (ab):             0.06
                       o<<<<< (total)           0.06
                       o<<<<< (aa) ff           0.00
                       o<<<<< (aa) gop          0.00
                       o<<<<< (aa) dot          0.00
                       o<<<<< (ab) str          0.00
                       o<<<<< (ab) gath         0.00
                       o<<<<< (ab) dotab        0.00
                       o<<<<< (ab) scat         0.00
                       o<<<<< (ab) sync         0.00
                       o<<<<< Density           0.00
                       o<<<<< Density one       0.00
                       o<<<<< Density two       0.00
                       o<<<<< Density ab        0.00
                       o<<<<< Spin adapt        0.22
                       o<<<<< Symm adapt        0.00

                       o<<<<< (ab) max sync:      0.00
       1.0000    -100.06148944 -1.70D-09 -1.70D-09  2.09D-09 4.5D-01      4.4

          Number of sigma calls:       11
                       o<<<<< (aa):             0.00
                       o<<<<< (bb):             0.00
                       o<<<<< (ab):             0.05
                       o<<<<< (total)           0.06
                       o<<<<< (aa) ff           0.00
                       o<<<<< (aa) gop          0.00
                       o<<<<< (aa) dot          0.00
                       o<<<<< (ab) str          0.00
                       o<<<<< (ab) gath         0.00
                       o<<<<< (ab) dotab        0.00
                       o<<<<< (ab) scat         0.00
                       o<<<<< (ab) sync         0.00
                       o<<<<< Density           0.00
                       o<<<<< Density one       0.00
                       o<<<<< Density two       0.00
                       o<<<<< Density ab        0.00
                       o<<<<< Spin adapt        0.19
                       o<<<<< Symm adapt        0.00

                       o<<<<< (ab) max sync:      0.00
       1.8126    -100.06148945 -2.19D-13  1.65D-13  2.09D-09 5.8D-05      4.8



          %%%%% MacroIteration   6 %%%%%


          Number of sigma calls:        1
                       o<<<<< (aa):             0.00
                       o<<<<< (bb):             0.00
                       o<<<<< (ab):             0.01
                       o<<<<< (total)           0.01
                       o<<<<< (aa) ff           0.00
                       o<<<<< (aa) gop          0.00
                       o<<<<< (aa) dot          0.00
                       o<<<<< (ab) str          0.00
                       o<<<<< (ab) gath         0.00
                       o<<<<< (ab) dotab        0.00
                       o<<<<< (ab) scat         0.00
                       o<<<<< (ab) sync         0.00
                       o<<<<< Density           0.01
                       o<<<<< Density one       0.01
                       o<<<<< Density two       0.00
                       o<<<<< Density ab        0.00
                       o<<<<< Spin adapt        0.00
                       o<<<<< Symm adapt        0.00

                       o<<<<< (ab) max sync:      0.00

           >>>| Valence CI:           -104.057493441611
           >>>| MCSCF energy:         -100.061489445607
           >>>| Gradient norm:          0.651772745D-04




     ==============================
            MCSCF Converged
     ==============================



          Canonical Eigenvalues

              1      
    1  -26.2967
    2   -1.5439
    3   -0.6899
    4   -0.6342
    5   -0.6342
    6   -0.0442
    7   -0.0075
    8   -0.0035
    9    0.3722
   10    0.7751
   11    0.7751
   12    1.0202
   13    1.0202
   14    1.0778
   15    1.7206
   16    2.2601
   17    2.2601
   18    2.3468
   19    2.3468
   20    2.5913
   21    3.4303
   22    3.4303
   23    3.8004
   24    3.8004
   25    3.8981
   26    3.9857
   27    3.9857
   28    4.3400
   29    5.1638
   30    5.1638
   31    6.0902
   32    7.4203
   33    7.4203
   34    7.4308
   35    7.4308
   36    7.7368
   37    7.7368
   38    7.8268
   39    8.8838
   40    8.8838
   41    9.1459
   42    9.1459
   43    9.2327
   44   10.2691


          Converged CI vector

   Index           Coefficient          Config. Occupation
         1         -0.98040734          1  2  3  4  5  1  2  3  4  5
         4         -0.06024531          1  2  3  4  5  1  2  4  5  6
       169         -0.06024531          1  2  4  5  6  1  2  3  4  5
       172          0.15302343          1  2  4  5  6  1  2  4  5  6
       173          0.02794309          1  2  4  5  6  1  3  4  5  6
       178         -0.02576949          1  2  4  5  6  1  3  4  5  7
       228          0.02794309          1  3  4  5  6  1  2  4  5  6
       229          0.02138586          1  3  4  5  6  1  3  4  5  6
       508         -0.02576949          1  3  4  5  7  1  2  4  5  6

          Number of sigma calls:        1
                       o<<<<< (aa):             0.00
                       o<<<<< (bb):             0.00
                       o<<<<< (ab):             0.00
                       o<<<<< (total)           0.00
                       o<<<<< (aa) ff           0.00
                       o<<<<< (aa) gop          0.00
                       o<<<<< (aa) dot          0.00
                       o<<<<< (ab) str          0.00
                       o<<<<< (ab) gath         0.00
                       o<<<<< (ab) dotab        0.00
                       o<<<<< (ab) scat         0.00
                       o<<<<< (ab) sync         0.00
                       o<<<<< Density           0.01
                       o<<<<< Density one       0.01
                       o<<<<< Density two       0.00
                       o<<<<< Density ab        0.00
                       o<<<<< Spin adapt        0.00
                       o<<<<< Symm adapt        0.00

                       o<<<<< (ab) max sync:      0.00



          Natural orbital occupation numbers

              1      
    1    2.0000
    2    1.9992
    3    1.9992
    4    1.9945
    5    1.9430
    6    0.0572
    7    0.0049
    8    0.0022


          Number of sigma calls:       21
                       o<<<<< (aa):             0.00
                       o<<<<< (bb):             0.01
                       o<<<<< (ab):             0.11
                       o<<<<< (total)           0.12
                       o<<<<< (aa) ff           0.00
                       o<<<<< (aa) gop          0.00
                       o<<<<< (aa) dot          0.00
                       o<<<<< (ab) str          0.00
                       o<<<<< (ab) gath         0.00
                       o<<<<< (ab) dotab        0.00
                       o<<<<< (ab) scat         0.00
                       o<<<<< (ab) sync         0.00
                       o<<<<< Density           0.01
                       o<<<<< Density one       0.01
                       o<<<<< Density two       0.00
                       o<<<<< Density ab        0.00
                       o<<<<< Spin adapt        0.15
                       o<<<<< Symm adapt        0.00

                       o<<<<< (ab) max sync:      0.00


       Final MCSCF results 
       ------------------- 

       Total MCSCF energy =   -100.061489445606
            Gradient norm =      6.5D-05

    CPU time for solution =      5.1s
   Wall time for solution =      8.2s



                        Analysis of MCSCF natural orbitals
                        ----------------------------------

 Vector    1  Occ=1.999979D+00  E=-2.629668D+01  Symmetry=a
              MO Center=  6.4D-14, -1.2D-01, -1.6D-14, r^2= 1.2D-02
   Bfn.  Coefficient  Atom+Function         Bfn.  Coefficient  Atom+Function  
  ----- ------------  ---------------      ----- ------------  ---------------
     1      0.975920  1 F  s          

 Vector    2  Occ=1.999192D+00  E=-1.543891D+00  Symmetry=a
              MO Center=  1.4D-12, -1.0D-01, -4.4D-15, r^2= 4.6D-01
   Bfn.  Coefficient  Atom+Function         Bfn.  Coefficient  Atom+Function  
  ----- ------------  ---------------      ----- ------------  ---------------
     8      0.469594  1 F  px                 5      0.385771  1 F  px         
    11      0.358576  1 F  px         

 Vector    3  Occ=1.999192D+00  E=-6.898902D-01  Symmetry=a
              MO Center=  2.7D-15, -1.0D-01,  8.4D-13, r^2= 4.6D-01
   Bfn.  Coefficient  Atom+Function         Bfn.  Coefficient  Atom+Function  
  ----- ------------  ---------------      ----- ------------  ---------------
    10      0.469594  1 F  pz                 7      0.385771  1 F  pz         
    13      0.358576  1 F  pz         

 Vector    4  Occ=1.994451D+00  E=-6.341674D-01  Symmetry=a
              MO Center= -1.4D-12, -1.8D-01, -7.6D-13, r^2= 3.5D-01
   Bfn.  Coefficient  Atom+Function         Bfn.  Coefficient  Atom+Function  
  ----- ------------  ---------------      ----- ------------  ---------------
     2      0.566934  1 F  s                  4      0.382577  1 F  s          
     3      0.167569  1 F  s          

 Vector    5  Occ=1.942979D+00  E=-6.341673D-01  Symmetry=a
              MO Center= -5.5D-14,  2.8D-01, -4.3D-14, r^2= 7.0D-01
   Bfn.  Coefficient  Atom+Function         Bfn.  Coefficient  Atom+Function  
  ----- ------------  ---------------      ----- ------------  ---------------
     9      0.375854  1 F  py                 6      0.305076  1 F  py         
    32      0.266812  2 H  s                 12      0.247435  1 F  py         
    31      0.154536  2 H  s          

 Vector    6  Occ=5.715755D-02  E=-4.422947D-02  Symmetry=a
              MO Center= -2.5D-15,  6.3D-01, -9.8D-16, r^2= 7.2D-01
   Bfn.  Coefficient  Atom+Function         Bfn.  Coefficient  Atom+Function  
  ----- ------------  ---------------      ----- ------------  ---------------
    32      0.590816  2 H  s                  9     -0.441678  1 F  py         
     6     -0.411825  1 F  py                31      0.274575  2 H  s          
     4     -0.196507  1 F  s          

 Vector    7  Occ=4.870812D-03  E=-7.481759D-03  Symmetry=a
              MO Center=  6.9D-15, -3.4D-01, -2.4D-14, r^2= 7.7D-01
   Bfn.  Coefficient  Atom+Function         Bfn.  Coefficient  Atom+Function  
  ----- ------------  ---------------      ----- ------------  ---------------
     4      1.290980  1 F  s                  3     -0.766163  1 F  s          
     2     -0.678238  1 F  s                 12     -0.241990  1 F  py         
     6      0.191818  1 F  py         

 Vector    8  Occ=2.179126D-03  E=-3.536617D-03  Symmetry=a
              MO Center=  2.4D-15, -1.9D-01, -3.3D-15, r^2= 4.6D-01
   Bfn.  Coefficient  Atom+Function         Bfn.  Coefficient  Atom+Function  
  ----- ------------  ---------------      ----- ------------  ---------------
    23      0.597597  1 F  d  2              21      0.345043  1 F  d  0       
    18      0.339336  1 F  d  2               6     -0.220002  1 F  py         
    12      0.198525  1 F  py                16      0.195928  1 F  d  0       

 Vector    9  Occ=0.000000D+00  E= 3.722054D-01  Symmetry=a
              MO Center=  1.3D-14,  1.4D+00,  8.5D-15, r^2= 3.3D+00
   Bfn.  Coefficient  Atom+Function         Bfn.  Coefficient  Atom+Function  
  ----- ------------  ---------------      ----- ------------  ---------------
    33      1.801251  2 H  s                  4     -0.914379  1 F  s          
    32     -0.847681  2 H  s                 12     -0.330091  1 F  py         
     2      0.292716  1 F  s                 38     -0.176886  2 H  py         

 Vector   10  Occ=0.000000D+00  E= 7.751131D-01  Symmetry=a
              MO Center=  1.2D-15,  9.5D-01,  2.9D-15, r^2= 1.1D+00
   Bfn.  Coefficient  Atom+Function         Bfn.  Coefficient  Atom+Function  
  ----- ------------  ---------------      ----- ------------  ---------------
    39      0.965845  2 H  pz                10     -0.333254  1 F  pz         
    13      0.193362  1 F  pz         

 Vector   11  Occ=0.000000D+00  E= 7.751131D-01  Symmetry=a
              MO Center=  4.5D-15,  9.5D-01,  7.7D-16, r^2= 1.1D+00
   Bfn.  Coefficient  Atom+Function         Bfn.  Coefficient  Atom+Function  
  ----- ------------  ---------------      ----- ------------  ---------------
    37      0.965845  2 H  px                 8     -0.333254  1 F  px         
    11      0.193362  1 F  px         

 Vector   12  Occ=0.000000D+00  E= 1.020169D+00  Symmetry=a
              MO Center=  1.7D-16, -1.1D-01, -1.3D-15, r^2= 1.6D+00
   Bfn.  Coefficient  Atom+Function         Bfn.  Coefficient  Atom+Function  
  ----- ------------  ---------------      ----- ------------  ---------------
    13      1.301732  1 F  pz                10     -0.667410  1 F  pz         
    39     -0.646424  2 H  pz                 7     -0.210898  1 F  pz         

 Vector   13  Occ=0.000000D+00  E= 1.020169D+00  Symmetry=a
              MO Center= -1.3D-14, -1.1D-01,  5.4D-16, r^2= 1.6D+00
   Bfn.  Coefficient  Atom+Function         Bfn.  Coefficient  Atom+Function  
  ----- ------------  ---------------      ----- ------------  ---------------
    11      1.301732  1 F  px                 8     -0.667410  1 F  px         
    37     -0.646424  2 H  px                 5     -0.210898  1 F  px         

 Vector   14  Occ=0.000000D+00  E= 1.077829D+00  Symmetry=a
              MO Center=  1.2D-14,  1.1D+00,  2.5D-15, r^2= 1.5D+00
   Bfn.  Coefficient  Atom+Function         Bfn.  Coefficient  Atom+Function  
  ----- ------------  ---------------      ----- ------------  ---------------
    38      1.119770  2 H  py                32      0.568423  2 H  s          
    12     -0.533477  1 F  py                33     -0.497218  2 H  s          
     9      0.494723  1 F  py                 4      0.444821  1 F  s          

 Vector   15  Occ=0.000000D+00  E= 1.720625D+00  Symmetry=a
              MO Center=  4.7D-17, -7.9D-02,  1.4D-17, r^2= 2.4D+00
   Bfn.  Coefficient  Atom+Function         Bfn.  Coefficient  Atom+Function  
  ----- ------------  ---------------      ----- ------------  ---------------
     4      3.447269  1 F  s                 12      2.736227  1 F  py         
    32     -2.704459  2 H  s                 38      2.353159  2 H  py         
     2     -0.771538  1 F  s                 23     -0.651198  1 F  d  2       
    33     -0.439414  2 H  s                 21     -0.376011  1 F  d  0       
     1     -0.322844  1 F  s                  3     -0.252295  1 F  s          

 Vector   16  Occ=0.000000D+00  E= 2.260072D+00  Symmetry=a
              MO Center=  3.9D-15, -8.0D-02,  1.9D-15, r^2= 6.1D-01
   Bfn.  Coefficient  Atom+Function         Bfn.  Coefficient  Atom+Function  
  ----- ------------  ---------------      ----- ------------  ---------------
    22      0.985393  1 F  d  1       

 Vector   17  Occ=0.000000D+00  E= 2.260072D+00  Symmetry=a
              MO Center=  3.3D-15, -8.0D-02,  2.4D-15, r^2= 6.1D-01
   Bfn.  Coefficient  Atom+Function         Bfn.  Coefficient  Atom+Function  
  ----- ------------  ---------------      ----- ------------  ---------------
    21      0.853349  1 F  d  0              23     -0.492741  1 F  d  2       

 Vector   18  Occ=0.000000D+00  E= 2.346757D+00  Symmetry=a
              MO Center=  2.1D-15,  1.6D-01,  3.4D-16, r^2= 8.4D-01
   Bfn.  Coefficient  Atom+Function         Bfn.  Coefficient  Atom+Function  
  ----- ------------  ---------------      ----- ------------  ---------------
    19      0.924098  1 F  d -2              37     -0.399083  2 H  px         
    40     -0.245112  2 H  d -2              11      0.168926  1 F  px         


 Wrote Lagrangian and 1- and 2-particle density matrices to ./HF.mcpdm


     Multipole analysis of the density
     ---------------------------------

     L   x y z        total        nuclear
     -   - - -        -----        -------
     0   0 0 0     -0.000000     10.000000

     1   1 0 0      0.000000      0.000000
     1   0 1 0      0.814081      0.000000
     1   0 0 1      0.000000      0.000000

     2   2 0 0     -4.288151      0.000000
     2   1 1 0     -0.000000      0.000000
     2   1 0 1      0.000000      0.000000
     2   0 2 0     -2.110084      4.565367
     2   0 1 1      0.000000      0.000000
     2   0 0 2     -4.288151      0.000000


  Mulliken analysis of the total density
  --------------------------------------

    Atom       Charge   Shell Charges
 -----------   ------   -------------------------------------------------------
    1 F    9     9.33   1.95  1.07  0.27  0.66  1.52  2.38  1.47  0.00  0.01  0.00
    2 H    1     0.67   0.17  0.37  0.07  0.01  0.04  0.01

    Mulliken analysis of the active space density
    ---------------------------------------------

    Atom       Charge   Shell Charges
 -----------   ------   -------------------------------------------------------
    1 F    9     9.33   1.95  1.07  0.27  0.66  1.52  2.38  1.47  0.00  0.01  0.00
    2 H    1     0.67   0.17  0.37  0.07  0.01  0.04  0.01

 Parallel integral file used       3 records with       0 large values


 Task  times  cpu:        5.1s     wall:        8.3s


                                NWChem Input Module
                                -------------------


                                 NWChem SCF Module
                                 -----------------


                                        HF



  ao basis        = "ao basis"
  functions       =    44
  atoms           =     2
  closed shells   =     5
  open shells     =     0
  charge          =   0.00
  wavefunction    = RHF 
  input vectors   = ./HF.mos
  output vectors  = ./HF-trash.mos
  use symmetry    = F
  symmetry adapt  = F


 Summary of "ao basis" -> "ao basis" (spherical)
 ------------------------------------------------------------------------------
       Tag                 Description            Shells   Functions and Types
 ---------------- ------------------------------  ------  ---------------------
 F                          cc-pVTZ                 10       30   4s3p2d1f
 H                          cc-pVTZ                  6       14   3s2p1d



 Forming initial guess at       8.3s


 Loading old vectors from job with title :

HF


 Starting SCF solution at       8.3s



 ----------------------------------------------
         Quadratically convergent ROHF

 Convergence threshold     :          1.000E-04
 Maximum no. of iterations :           30
 Final Fock-matrix accuracy:          1.000E-07
 ----------------------------------------------


 Integral file          = ./HF.aoints.0
 Record size in doubles =  65536        No. of integs per rec  =  43688
 Max. records in memory =     18        Max. records in file   = 280418
 No. of bits per label  =      8        No. of bits per value  =     64


 #quartets = 9.316D+03 #integrals = 1.251D+05 #direct =  0.0% #cached =100.0%



       Final RHF  results 
       ------------------ 

         Total SCF energy =    -99.996307639459
      One-electron energy =   -148.480429390917
      Two-electron energy =     44.488117755454
 Nuclear repulsion energy =      3.996003996004

        Time for solution =      0.1s


             Final eigenvalues
             -----------------

              1      
    1  -26.2967
    2   -1.5439
    3   -0.6899
    4   -0.6342
    5   -0.6342
    6   -0.0442
    7   -0.0075
    8   -0.0035
    9    0.3722
   10    0.7751
   11    0.7751
   12    1.0202
   13    1.0202
   14    1.0778
   15    1.7206

                       ROHF Final Molecular Orbital Analysis
                       -------------------------------------

 Vector    2  Occ=2.000000D+00  E=-1.543891D+00
              MO Center=  1.4D-12, -1.0D-01, -4.4D-15, r^2= 4.6D-01
   Bfn.  Coefficient  Atom+Function         Bfn.  Coefficient  Atom+Function  
  ----- ------------  ---------------      ----- ------------  ---------------
     8      0.469594  1 F  px                 5      0.385771  1 F  px         
    11      0.358576  1 F  px         

 Vector    3  Occ=2.000000D+00  E=-6.898902D-01
              MO Center=  2.7D-15, -1.0D-01,  8.4D-13, r^2= 4.6D-01
   Bfn.  Coefficient  Atom+Function         Bfn.  Coefficient  Atom+Function  
  ----- ------------  ---------------      ----- ------------  ---------------
    10      0.469594  1 F  pz                 7      0.385771  1 F  pz         
    13      0.358576  1 F  pz         

 Vector    4  Occ=2.000000D+00  E=-6.341674D-01
              MO Center= -1.4D-12, -1.8D-01, -7.6D-13, r^2= 3.5D-01
   Bfn.  Coefficient  Atom+Function         Bfn.  Coefficient  Atom+Function  
  ----- ------------  ---------------      ----- ------------  ---------------
     2      0.566934  1 F  s                  4      0.382577  1 F  s          
     3      0.167569  1 F  s          

 Vector    5  Occ=2.000000D+00  E=-6.341673D-01
              MO Center= -5.5D-14,  2.8D-01, -4.3D-14, r^2= 7.0D-01
   Bfn.  Coefficient  Atom+Function         Bfn.  Coefficient  Atom+Function  
  ----- ------------  ---------------      ----- ------------  ---------------
     9      0.375854  1 F  py                 6      0.305076  1 F  py         
    32      0.266812  2 H  s                 12      0.247435  1 F  py         
    31      0.154536  2 H  s          

 Vector    6  Occ=0.000000D+00  E=-4.422947D-02
              MO Center= -2.5D-15,  6.3D-01, -9.8D-16, r^2= 7.2D-01
   Bfn.  Coefficient  Atom+Function         Bfn.  Coefficient  Atom+Function  
  ----- ------------  ---------------      ----- ------------  ---------------
    32      0.590816  2 H  s                  9     -0.441678  1 F  py         
     6     -0.411825  1 F  py                31      0.274575  2 H  s          
     4     -0.196507  1 F  s          

 Vector    7  Occ=0.000000D+00  E=-7.481759D-03
              MO Center=  6.9D-15, -3.4D-01, -2.4D-14, r^2= 7.7D-01
   Bfn.  Coefficient  Atom+Function         Bfn.  Coefficient  Atom+Function  
  ----- ------------  ---------------      ----- ------------  ---------------
     4      1.290980  1 F  s                  3     -0.766163  1 F  s          
     2     -0.678238  1 F  s                 12     -0.241990  1 F  py         
     6      0.191818  1 F  py         

 Vector    8  Occ=0.000000D+00  E=-3.536617D-03
              MO Center=  2.4D-15, -1.9D-01, -3.3D-15, r^2= 4.6D-01
   Bfn.  Coefficient  Atom+Function         Bfn.  Coefficient  Atom+Function  
  ----- ------------  ---------------      ----- ------------  ---------------
    23      0.597597  1 F  d  2              21      0.345043  1 F  d  0       
    18      0.339336  1 F  d  2               6     -0.220002  1 F  py         
    12      0.198525  1 F  py                16      0.195928  1 F  d  0       

 Vector    9  Occ=0.000000D+00  E= 3.722054D-01
              MO Center=  1.3D-14,  1.4D+00,  8.5D-15, r^2= 3.3D+00
   Bfn.  Coefficient  Atom+Function         Bfn.  Coefficient  Atom+Function  
  ----- ------------  ---------------      ----- ------------  ---------------
    33      1.801251  2 H  s                  4     -0.914379  1 F  s          
    32     -0.847681  2 H  s                 12     -0.330091  1 F  py         
     2      0.292716  1 F  s                 38     -0.176886  2 H  py         

 Vector   10  Occ=0.000000D+00  E= 7.751131D-01
              MO Center=  1.2D-15,  9.5D-01,  2.9D-15, r^2= 1.1D+00
   Bfn.  Coefficient  Atom+Function         Bfn.  Coefficient  Atom+Function  
  ----- ------------  ---------------      ----- ------------  ---------------
    39      0.965845  2 H  pz                10     -0.333254  1 F  pz         
    13      0.193362  1 F  pz         

 Vector   11  Occ=0.000000D+00  E= 7.751131D-01
              MO Center=  4.5D-15,  9.5D-01,  7.7D-16, r^2= 1.1D+00
   Bfn.  Coefficient  Atom+Function         Bfn.  Coefficient  Atom+Function  
  ----- ------------  ---------------      ----- ------------  ---------------
    37      0.965845  2 H  px                 8     -0.333254  1 F  px         
    11      0.193362  1 F  px         

 Vector   12  Occ=0.000000D+00  E= 1.020169D+00
              MO Center=  1.7D-16, -1.1D-01, -1.3D-15, r^2= 1.6D+00
   Bfn.  Coefficient  Atom+Function         Bfn.  Coefficient  Atom+Function  
  ----- ------------  ---------------      ----- ------------  ---------------
    13      1.301732  1 F  pz                10     -0.667410  1 F  pz         
    39     -0.646424  2 H  pz                 7     -0.210898  1 F  pz         

 Vector   13  Occ=0.000000D+00  E= 1.020169D+00
              MO Center= -1.3D-14, -1.1D-01,  5.4D-16, r^2= 1.6D+00
   Bfn.  Coefficient  Atom+Function         Bfn.  Coefficient  Atom+Function  
  ----- ------------  ---------------      ----- ------------  ---------------
    11      1.301732  1 F  px                 8     -0.667410  1 F  px         
    37     -0.646424  2 H  px                 5     -0.210898  1 F  px         

 Vector   14  Occ=0.000000D+00  E= 1.077829D+00
              MO Center=  1.2D-14,  1.1D+00,  2.5D-15, r^2= 1.5D+00
   Bfn.  Coefficient  Atom+Function         Bfn.  Coefficient  Atom+Function  
  ----- ------------  ---------------      ----- ------------  ---------------
    38      1.119770  2 H  py                32      0.568423  2 H  s          
    12     -0.533477  1 F  py                33     -0.497218  2 H  s          
     9      0.494723  1 F  py                 4      0.444821  1 F  s          

 Vector   15  Occ=0.000000D+00  E= 1.720625D+00
              MO Center=  4.7D-17, -7.9D-02,  1.4D-17, r^2= 2.4D+00
   Bfn.  Coefficient  Atom+Function         Bfn.  Coefficient  Atom+Function  
  ----- ------------  ---------------      ----- ------------  ---------------
     4      3.447269  1 F  s                 12      2.736227  1 F  py         
    32     -2.704459  2 H  s                 38      2.353159  2 H  py         
     2     -0.771538  1 F  s                 23     -0.651198  1 F  d  2       
    33     -0.439414  2 H  s                 21     -0.376011  1 F  d  0       
     1     -0.322844  1 F  s                  3     -0.252295  1 F  s          


 center of mass
 --------------
 x =   0.00000000 y =  -0.11176662 z =   0.00000000

 moments of inertia (a.u.)
 ------------------
           4.854787184719           0.000000000000           0.000000000000
           0.000000000000           0.000000000000           0.000000000000
           0.000000000000           0.000000000000           4.854787184719

  Mulliken analysis of the total density
  --------------------------------------

    Atom       Charge   Shell Charges
 -----------   ------   -------------------------------------------------------
    1 F    9     9.34   1.95  1.07  0.27  0.66  1.51  2.39  1.48  0.00  0.01  0.00
    2 H    1     0.66   0.17  0.36  0.07  0.01  0.04  0.01

       Multipole analysis of the density wrt the origin
       ------------------------------------------------

     L   x y z        total         open         nuclear
     -   - - -        -----         ----         -------
     0   0 0 0     -0.000000      0.000000     10.000000

     1   1 0 0      0.000000      0.000000      0.000000
     1   0 1 0      0.850048      0.000000      0.000000
     1   0 0 1     -0.000000      0.000000      0.000000

     2   2 0 0     -4.285810      0.000000      0.000000
     2   1 1 0      0.000000      0.000000      0.000000
     2   1 0 1      0.000000      0.000000      0.000000
     2   0 2 0     -2.036313      0.000000      4.565367
     2   0 1 1      0.000000      0.000000      0.000000
     2   0 0 2     -4.285810      0.000000      0.000000


 Parallel integral file used       3 records with       0 large values

                   NWChem Extensible Many-Electron Theory Module
                   ---------------------------------------------

              ======================================================
                   This portion of the program was automatically
                  generated by a Tensor Contraction Engine (TCE).
                  The development of this portion of the program
                 and TCE was supported by US Department of Energy,
                Office of Science, Office of Basic Energy Science.
                      TCE is a product of Battelle and PNNL.
              Please cite: S.Hirata, J.Phys.Chem.A 107, 9887 (2003).
              ======================================================

                                        HF


            General Information
            -------------------
      Number of processors :     1
         Wavefunction type : Restricted Hartree-Fock
          No. of electrons :    10
           Alpha electrons :     5
            Beta electrons :     5
           No. of orbitals :    88
            Alpha orbitals :    44
             Beta orbitals :    44
        Alpha frozen cores :     0
         Beta frozen cores :     0
     Alpha frozen virtuals :     0
      Beta frozen virtuals :     0
         Spin multiplicity : singlet 
    Number of AO functions :    44
       Number of AO shells :    16
        Use of symmetry is : off
      Symmetry adaption is : off
         Schwarz screening : 0.10D-09

          Correlation Information
          -----------------------
          Calculation type : Coupled-cluster singles & doubles                           
   Perturbative correction : none                                                        
            Max iterations :      500
        Residual threshold : 0.10D-06
     T(0) DIIS level shift : 0.00D+00
     L(0) DIIS level shift : 0.00D+00
     T(1) DIIS level shift : 0.00D+00
     L(1) DIIS level shift : 0.00D+00
     T(R) DIIS level shift : 0.00D+00
     T(I) DIIS level shift : 0.00D+00
   CC-T/L Amplitude update :  5-th order DIIS
                I/O scheme : Global Array Library
        L-threshold :  0.10D-06
        EOM-threshold :  0.10D-06
 no EOMCCSD initial starts read in
 TCE RESTART OPTIONS
 READ_INT:   F
 WRITE_INT:  F
 READ_TA:    F
 WRITE_TA:   F
 READ_XA:    F
 WRITE_XA:   F
 READ_IN3:   F
 WRITE_IN3:  F
 SLICE:      F
 D4D5:       F
 quantumc:   F
 qrotation:  F
 pwtce:      F
 qducc:      T
 nacto:                         0
 nrotv:                         0
 nrot:                          0

            Memory Information
            ------------------
          Available GA space size is    1610610800 doubles
          Available MA space size is    1610610316 doubles

 Maximum block size        32 doubles

 tile_dim =     20

 Block   Spin    Irrep     Size     Offset   Alpha
 -------------------------------------------------
   1    alpha     a      5 doubles       0       1
   2    beta      a      5 doubles       5       1
   3    alpha     a     19 doubles      10       3
   4    alpha     a     20 doubles      29       4
   5    beta      a     19 doubles      49       3
   6    beta      a     20 doubles      68       4

 Global array virtual files algorithm will be used

 Parallel file system coherency ......... OK

 Integral file          = ./HF.aoints.0
 Record size in doubles =  65536        No. of integs per rec  =  43688
 Max. records in memory =     18        Max. records in file   = 280418
 No. of bits per label  =      8        No. of bits per value  =     64


 #quartets = 9.316D+03 #integrals = 1.251D+05 #direct =  0.0% #cached =100.0%


 Fock matrix recomputed
 1-e file size   =             1936
 1-e file name   = ./HF.f1
 Cpu & wall time / sec            0.1            0.1
 4-electron integrals stored in orbital form

 v2    file size   =          1153346
 4-index algorithm nr.  13 is used
 imaxsize =       30
 imaxsize ichop =        0
 Cpu & wall time / sec            0.6            0.6
 T1-number-of-tasks                    2

 t1 file size   =              195
 t1 file name   = ./HF.t1
 t1 file handle =       -998
 T2-number-of-boxes                    7

 t2 file size   =            66550
 t2 file name   = ./HF.t2
 t2 file handle =       -996
CCSD iterations
 ---------------------------------------------------------
 Iter          Residuum       Correlation     Cpu    Wall 
 ---------------------------------------------------------
NEW TASK SCHEDULING
CCSD_T1_NTS --- OK
CCSD_T2_NTS --- OK
    1   1.4770806772439  -0.4309245374404     0.1     0.1
    2   5.2609428265214   0.0317955478944     0.1     0.1
    3  24.8806508454675  -1.2572609703489     0.1     0.1
    4  91.9092646489404   4.1862234447703     0.1     0.1
    5 681.3763674495165  -8.1111726205112     0.1     0.1
 MICROCYCLE DIIS UPDATE:                    5                    5
    6   0.2119654343921  -0.2954450975201     0.1     0.1
    7   0.6722318713450  -0.3066318677739     0.1     0.1
    8   3.1865931663422  -0.2648201087424     0.1     0.1
    9  16.6621067211150  -0.1978631463818     0.1     0.1
   10  58.2757710186888   2.6684756520488     0.1     0.1
 MICROCYCLE DIIS UPDATE:                   10                    5
   11   0.0373969193678  -0.2958493078503     0.1     0.1
   12   0.0611070331386  -0.2985060947638     0.1     0.1
   13   0.2870640508550  -0.2986781454244     0.1     0.1
   14   1.5032285699335  -0.3075453544492     0.1     0.1
   15   8.0387177317890  -0.1794770396609     0.1     0.1
 MICROCYCLE DIIS UPDATE:                   15                    5
   16   0.0073618342171  -0.2998229716807     0.1     0.1
   17   0.0104008157296  -0.2993058267899     0.1     0.1
   18   0.0372321155395  -0.2997183905586     0.1     0.1
   19   0.1515664380893  -0.2999435543359     0.1     0.1
   20   0.6432484209226  -0.2979379446866     0.1     0.1
 MICROCYCLE DIIS UPDATE:                   20                    5
   21   0.0010845290544  -0.2996522587140     0.1     0.1
   22   0.0019485611510  -0.2997035013794     0.1     0.1
   23   0.0085406369679  -0.2996529524304     0.1     0.1
   24   0.0440217094232  -0.3000997110250     0.1     0.1
   25   0.2373767899433  -0.2970032169547     0.1     0.1
 MICROCYCLE DIIS UPDATE:                   25                    5
   26   0.0002757305520  -0.2997145767421     0.1     0.1
   27   0.0004826681760  -0.2996924009663     0.1     0.1
   28   0.0020121957505  -0.2997378578918     0.1     0.1
   29   0.0094601619889  -0.2996061662743     0.1     0.1
   30   0.0458643958651  -0.3000587116769     0.1     0.1
 MICROCYCLE DIIS UPDATE:                   30                    5
   31   0.0000721665187  -0.2997052235002     0.1     0.1
   32   0.0001242093487  -0.2997093843916     0.1     0.1
   33   0.0005147886429  -0.2997037398034     0.1     0.1
   34   0.0025677167695  -0.2997407814123     0.1     0.1
   35   0.0137291794686  -0.2995181861332     0.1     0.1
 MICROCYCLE DIIS UPDATE:                   35                    5
   36   0.0000209674225  -0.2997095645619     0.1     0.1
   37   0.0000298835174  -0.2997077854454     0.1     0.1
   38   0.0001088967849  -0.2997113967539     0.1     0.1
   39   0.0004768913448  -0.2997016132798     0.1     0.1
   40   0.0021923355971  -0.2997336587195     0.1     0.1
 MICROCYCLE DIIS UPDATE:                   40                    5
   41   0.0000055245421  -0.2997089316736     0.1     0.1
   42   0.0000143823706  -0.2997092207539     0.1     0.1
   43   0.0000711980362  -0.2997082232331     0.1     0.1
   44   0.0003763397967  -0.2997140468434     0.1     0.1
   45   0.0020345921140  -0.2996818508604     0.1     0.1
 MICROCYCLE DIIS UPDATE:                   45                    5
   46   0.0000015170011  -0.2997091286888     0.1     0.1
   47   0.0000017577772  -0.2997090303592     0.1     0.1
   48   0.0000056429116  -0.2997092433942     0.1     0.1
   49   0.0000240549910  -0.2997086867772     0.1     0.1
   50   0.0001107175177  -0.2997104699676     0.1     0.1
 MICROCYCLE DIIS UPDATE:                   50                    5
   51   0.0000003894909  -0.2997091036093     0.1     0.1
   52   0.0000008415746  -0.2997091132346     0.1     0.1
   53   0.0000038264855  -0.2997090617427     0.1     0.1
   54   0.0000192221317  -0.2997093754388     0.1     0.1
   55   0.0001013653243  -0.2997076689567     0.1     0.1
 MICROCYCLE DIIS UPDATE:                   55                    5
   56   0.0000001124918  -0.2997091094858     0.1     0.1
   57   0.0000001207501  -0.2997091044572     0.1     0.1
   58   0.0000003636239  -0.2997091166480     0.1     0.1
   59   0.0000015607201  -0.2997090907707     0.1     0.1
   60   0.0000074954712  -0.2997091445006     0.1     0.1
 MICROCYCLE DIIS UPDATE:                   60                    5
   61   0.0000000291486  -0.2997091091498     0.1     0.1
 -----------------------------------------------------------------
 Iterations converged
 CCSD correlation energy / hartree =        -0.299709109149784
 CCSD total energy / hartree       =      -100.296016748608835

 Singles contributions

 Doubles contributions
     6a   (alpha)    10a   (alpha) ---     3a   (alpha)     5a   (alpha)        0.0220333131
     6a   (alpha)    10a   (alpha) ---     5a   (alpha)     3a   (alpha)       -0.0220333131
     6a   (alpha)    11a   (alpha) ---     2a   (alpha)     5a   (alpha)        0.0220333077
     6a   (alpha)    11a   (alpha) ---     5a   (alpha)     2a   (alpha)       -0.0220333077
    10a   (alpha)     6a   (alpha) ---     3a   (alpha)     5a   (alpha)       -0.0220333131
    10a   (alpha)     6a   (alpha) ---     5a   (alpha)     3a   (alpha)        0.0220333131
    11a   (alpha)     6a   (alpha) ---     2a   (alpha)     5a   (alpha)       -0.0220333077
    11a   (alpha)     6a   (alpha) ---     5a   (alpha)     2a   (alpha)        0.0220333077
     6a   (alpha)     6a   (beta ) ---     5a   (alpha)     5a   (beta )       -0.1308912128
     6a   (alpha)     7a   (beta ) ---     5a   (alpha)     4a   (beta )       -0.0241190273
     6a   (alpha)    10a   (beta ) ---     5a   (alpha)     3a   (beta )       -0.0289601385
     6a   (alpha)    11a   (beta ) ---     5a   (alpha)     2a   (beta )       -0.0289601383
     6a   (alpha)    12a   (beta ) ---     5a   (alpha)     3a   (beta )       -0.0231067803
     6a   (alpha)    13a   (beta ) ---     5a   (alpha)     2a   (beta )       -0.0231067803
     7a   (alpha)     6a   (beta ) ---     4a   (alpha)     5a   (beta )       -0.0241190273
     7a   (alpha)     7a   (beta ) ---     4a   (alpha)     4a   (beta )       -0.0207282314
    10a   (alpha)     6a   (beta ) ---     3a   (alpha)     5a   (beta )       -0.0289601385
    11a   (alpha)     6a   (beta ) ---     2a   (alpha)     5a   (beta )       -0.0289601383
    12a   (alpha)     6a   (beta ) ---     3a   (alpha)     5a   (beta )       -0.0231067803
    12a   (alpha)    12a   (beta ) ---     3a   (alpha)     3a   (beta )       -0.0289002347
    12a   (alpha)    13a   (beta ) ---     3a   (alpha)     2a   (beta )       -0.0203299777
    13a   (alpha)     6a   (beta ) ---     2a   (alpha)     5a   (beta )       -0.0231067803
    13a   (alpha)    12a   (beta ) ---     2a   (alpha)     3a   (beta )       -0.0203299777
    13a   (alpha)    13a   (beta ) ---     2a   (alpha)     2a   (beta )       -0.0289002362
 Ground state specification:
 exp(T)|Ref>~(1+T)|Ref>
 ------- a(p)+/a(q) strings ----------

 singles norm

 doubles norm

 Reference string
  0.99154226799333223      :(1a)+ (2a)+ (3a)+ (4a)+ (5a)+ (1b)+ (2b)+ (3b)+ (4b)+ (5b)+ |0>

 Singles strings

 Doubles strings
 -0.12978417000019293      :(6a)+ (6b)+ (5b)  (5a)  (1a)+ (2a)+ (3a)+ (4a)+ (5a)+ (1b)+ (2b)+ (3b)+ (4b)+ (5b)+ |0>
 -------------------------------------
 enrep_tce =    3.9960039960039935     
  EHF(total)         =       -99.99630764
  Shift (HFtot-HFA)  =         0.00000000
 ALL OCCUPIED ORBITALS ARE ACTIVE IN DUCC --> NO SHIFT
 Number of active orbitals                    8
 Number of active alpha electrons                    5
 Number of active beta electrons                    5
  nos                    10
  nvs                    78
 noas                     5
 nobs                     5
 nvas                    39
 nvbs                    39
 nactv                     3
 DUCC MODEL =                     3
 NONHF =  T
 F-T1 correlation    =   -4.6369848293042153E-004
 V-T1-T1 correlation =   -2.0320007934462324E-005
 V-T2 correlation    =  -0.29922509065886305     
 Total correlation   =  -0.29970910914972793     
 F-T1(Ext) correlation         =   -6.7041892030975423E-005
 V-T1(Ext)-T1(Ext) correlation =    5.7332307478363841E-005
 V-T2(Ext) correlation         =  -0.24464033352080197     
 Total Ext correlation         =  -0.24465004310535460     
1-BODY TIME =    0.342 SECONDS.
  HHHH TIME =    1.910 SECONDS.
  PPPP TIME =    0.000 SECONDS.
  HHHP TIME =    0.538 SECONDS.
  PPPH TIME =    0.072 SECONDS.
  HPHP TIME =    0.055 SECONDS.
  HHPP TIME =    0.291 SECONDS.
 ONE-BODY UNITARY CHECK
 TWO-BODY UNITARY CHECK
 TWO-BODY ANTISYMMETRY CHECK
 TRANSFORMED ~FOCK~ MATRIX
    1    1       -26.3247927600
    1    4        -0.0387947198
    1    5        -0.0117738524
    1    6         0.0006184330
    1    7         0.0058834452
    1    8         0.0008261723
    2    2        -0.7155310754
    3    3        -0.7155309793
    4    1        -0.0387947198
    4    4        -1.5587140446
    4    5        -0.1422742593
    4    6        -0.0044094054
    4    7         0.0040298894
    4    8         0.0034668796
    5    1        -0.0117738524
    5    4        -0.1422742593
    5    5        -0.7469583994
    5    6         0.0271087825
    5    7        -0.0023711593
    5    8        -0.0017902013
    6    1         0.0006184330
    6    4        -0.0044094054
    6    5         0.0271087825
    6    6         0.4260258574
    6    7        -0.0784805917
    6    8         0.0543384971
    7    1         0.0058834452
    7    4         0.0040298894
    7    5        -0.0023711593
    7    6        -0.0784805917
    7    7         1.7771479402
    7    8         0.1678449726
    8    1         0.0008261723
    8    4         0.0034668796
    8    5        -0.0017902013
    8    6         0.0543384971
    8    7         0.1678449726
    8    8         3.0121786922
 begin_one_electron_integrals
    1    1       -40.8626031012
    1    4         0.7075812943
    1    5        -0.0002900861
    1    6        -0.1456452185
    1    7        -0.7244653847
    1    8         0.0946526740
    2    2        -8.3422106531
    3    3        -8.3422106584
    4    1         0.7075812943
    4    4        -9.3164715956
    4    5        -0.0052050884
    4    6         0.3352332310
    4    7         1.9545789192
    4    8        -0.2091374383
    5    1        -0.0002900861
    5    4        -0.0052050884
    5    5        -7.3097553716
    5    6         2.2369726158
    5    7        -0.4902191042
    5    8         0.6461289223
    6    1        -0.1456452185
    6    4         0.3352332310
    6    5         2.2369726158
    6    6        -6.4595893757
    6    7        -0.0124113272
    6    8        -0.2327981233
    7    1        -0.7244653847
    7    4         1.9545789192
    7    5        -0.4902191042
    7    6        -0.0124113272
    7    7        -5.7638229166
    7    8         0.1480855457
    8    1         0.0946526740
    8    4        -0.2091374383
    8    5         0.6461289223
    8    6        -0.2327981233
    8    7         0.1480855457
    8    8        -4.9684455746
 end_one_electron_integrals
 begin_two_electron_integrals
    1    1    1    1        5.3535363031
    1    1    1    4       -0.5332187049
    1    1    1    5       -0.0063791744
    1    1    1    6        0.1124601076
    1    1    1    7        0.5794926219
    1    1    1    8       -0.0745728914
    1    2    1    2        0.0357981828
    1    3    1    3        0.0357981883
    1    4    1    1       -0.5332187049
    1    4    1    4        0.0843137690
    1    4    1    5       -0.0024648334
    1    4    1    6       -0.0147661120
    1    4    1    7       -0.1003748837
    1    4    1    8        0.0148800195
    1    5    1    1       -0.0063791744
    1    5    1    4       -0.0024648334
    1    5    1    5        0.0241127536
    1    5    1    6       -0.0309741903
    1    5    1    7        0.0101970166
    1    5    1    8       -0.0126583837
    1    6    1    1        0.1124601076
    1    6    1    4       -0.0147661120
    1    6    1    5       -0.0309741903
    1    6    1    6        0.0423523444
    1    6    1    7        0.0070082865
    1    6    1    8        0.0128898197
    1    7    1    1        0.5794926219
    1    7    1    4       -0.1003748837
    1    7    1    5        0.0101970166
    1    7    1    6        0.0070082865
    1    7    1    7        0.1118594376
    1    7    1    8       -0.0192881426
    1    8    1    1       -0.0745728914
    1    8    1    4        0.0148800195
    1    8    1    5       -0.0126583837
    1    8    1    6        0.0128898197
    1    8    1    7       -0.0192881426
    1    8    1    8        0.0102497157
    1    1    2    2        1.2169500721
    1    2    2    1        0.0394095706
    1    2    2    4        0.0391158113
    1    2    2    5        0.0010650034
    1    2    2    6       -0.0074181592
    1    2    2    7       -0.0202298564
    1    2    2    8        0.0184498994
    1    4    2    2       -0.0159059515
    1    5    2    2        0.0004880059
    1    6    2    2        0.0021127120
    1    7    2    2        0.0143327208
    1    8    2    2        0.0027294051
    1    1    3    3        1.2169500733
    1    3    3    1        0.0394095706
    1    3    3    4        0.0391158134
    1    3    3    5        0.0010650027
    1    3    3    6       -0.0074181928
    1    3    3    7       -0.0202300185
    1    3    3    8        0.0184513252
    1    4    3    3       -0.0159059511
    1    5    3    3        0.0004880057
    1    6    3    3        0.0021127119
    1    7    3    3        0.0143326825
    1    8    3    3        0.0027297590
    1    1    4    1       -0.5332187049
    1    1    4    4        1.2832483436
    1    1    4    5       -0.0395991237
    1    1    4    6       -0.0714837081
    1    1    4    7       -0.5066941489
    1    1    4    8        0.0652006629
    1    2    4    2        0.0387115452
    1    3    4    3        0.0387115489
    1    4    4    1        0.0867296033
    1    4    4    4       -0.0229234706
    1    4    4    5       -0.0023312171
    1    4    4    6        0.0058751870
    1    4    4    7        0.0235645554
    1    4    4    8       -0.0037065391
    1    5    4    1       -0.0022720442
    1    5    4    4       -0.0064515258
    1    5    4    5        0.0265592061
    1    5    4    6       -0.0228768252
    1    5    4    7        0.0072992781
    1    5    4    8       -0.0021724012
    1    6    4    1       -0.0152071471
    1    6    4    4        0.0118752485
    1    6    4    5       -0.0314012606
    1    6    4    6        0.0261348790
    1    6    4    7       -0.0124894971
    1    6    4    8        0.0029930483
    1    7    4    1       -0.1015450058
    1    7    4    4        0.0200132646
    1    7    4    5        0.0098770519
    1    7    4    6       -0.0118656349
    1    7    4    7       -0.0178861557
    1    7    4    8        0.0032066589
    1    8    4    1        0.0151663320
    1    8    4    4       -0.0000436289
    1    8    4    5       -0.0109769435
    1    8    4    6        0.0088065416
    1    8    4    7        0.0003651955
    1    8    4    8        0.0071455042
    1    1    5    1       -0.0063791744
    1    1    5    4       -0.0395991237
    1    1    5    5        0.9704392204
    1    1    5    6       -0.4536453477
    1    1    5    7        0.1093418413
    1    1    5    8       -0.1381601725
    1    2    5    2        0.0011986948
    1    3    5    3        0.0011986969
    1    4    5    1       -0.0022720442
    1    4    5    4       -0.0022874500
    1    4    5    5       -0.0108468101
    1    4    5    6        0.0084071594
    1    4    5    7       -0.0009657038
    1    4    5    8        0.0066713825
    1    5    5    1        0.0253526361
    1    5    5    4        0.0266847884
    1    5    5    5        0.0056452257
    1    5    5    6       -0.0012336441
    1    5    5    7       -0.0181953543
    1    5    5    8       -0.0201781321
    1    6    5    1       -0.0308706585
    1    6    5    4       -0.0314529342
    1    6    5    5       -0.0042963050
    1    6    5    6        0.0003985309
    1    6    5    7        0.0212815351
    1    6    5    8        0.0207516788
    1    7    5    1        0.0101349521
    1    7    5    4        0.0099380856
    1    7    5    5        0.0092040993
    1    7    5    6       -0.0057058340
    1    7    5    7       -0.0050648871
    1    7    5    8       -0.0100595351
    1    8    5    1       -0.0125905306
    1    8    5    4       -0.0110044800
    1    8    5    5       -0.0085340637
    1    8    5    6        0.0053366916
    1    8    5    7        0.0064379662
    1    8    5    8        0.0096803774
    1    1    6    1        0.1124601076
    1    1    6    4       -0.0714837081
    1    1    6    5       -0.4536453477
    1    1    6    6        0.9855666317
    1    1    6    7       -0.0242271805
    1    1    6    8        0.0939446072
    1    2    6    2       -0.0069590593
    1    3    6    3       -0.0069590974
    1    4    6    1       -0.0152071471
    1    4    6    4        0.0053647104
    1    4    6    5        0.0072977533
    1    4    6    6       -0.0169823773
    1    4    6    7       -0.0031330545
    1    4    6    8       -0.0074014470
    1    5    6    1       -0.0308706585
    1    5    6    4       -0.0223207130
    1    5    6    5       -0.0017540141
    1    5    6    6        0.0108870244
    1    5    6    7        0.0223017547
    1    5    6    8        0.0179703871
    1    6    6    1        0.0413834723
    1    6    6    4        0.0258031993
    1    6    6    5       -0.0001551374
    1    6    6    6       -0.0093622155
    1    6    6    7       -0.0259719820
    1    6    6    8       -0.0200352464
    1    7    6    1        0.0068321761
    1    7    6    4       -0.0126962908
    1    7    6    5       -0.0075449809
    1    7    6    6        0.0160899931
    1    7    6    7        0.0105653234
    1    7    6    8        0.0111867536
    1    8    6    1        0.0126528070
    1    8    6    4        0.0089953960
    1    8    6    5        0.0061093872
    1    8    6    6       -0.0119819253
    1    8    6    7       -0.0085258291
    1    8    6    8       -0.0108318905
    1    1    7    1        0.5794926219
    1    1    7    4       -0.5066941489
    1    1    7    5        0.1093418413
    1    1    7    6       -0.0242271805
    1    1    7    7        1.1696221916
    1    1    7    8       -0.0407154157
    1    2    7    2       -0.0192647228
    1    3    7    3       -0.0192648730
    1    4    7    1       -0.1015450058
    1    4    7    4        0.0215110673
    1    4    7    5       -0.0007668473
    1    4    7    6       -0.0031401538
    1    4    7    7       -0.0319857124
    1    4    7    8        0.0053578671
    1    5    7    1        0.0101349521
    1    5    7    4        0.0070015498
    1    5    7    5       -0.0177424417
    1    5    7    6        0.0222933839
    1    5    7    7       -0.0157877512
    1    5    7    8        0.0046782145
    1    6    7    1        0.0068321761
    1    6    7    4       -0.0133214486
    1    6    7    5        0.0221416812
    1    6    7    6       -0.0257860483
    1    6    7    7        0.0248372389
    1    6    7    8       -0.0062793554
    1    7    7    1        0.1168341442
    1    7    7    4       -0.0227077323
    1    7    7    5       -0.0047180551
    1    7    7    6        0.0105527854
    1    7    7    7        0.0277910191
    1    7    7    8       -0.0054109866
    1    8    7    1       -0.0204822012
    1    8    7    4        0.0013343280
    1    8    7    5        0.0065558066
    1    8    7    6       -0.0084105685
    1    8    7    7        0.0001280010
    1    8    7    8       -0.0051979855
    1    1    8    1       -0.0745728914
    1    1    8    4        0.0652006629
    1    1    8    5       -0.1381601725
    1    1    8    6        0.0939446072
    1    1    8    7       -0.0407154157
    1    1    8    8        1.0465899973
    1    2    8    2        0.0167572501
    1    3    8    3        0.0167585651
    1    4    8    1        0.0151663320
    1    4    8    4       -0.0035239647
    1    4    8    5        0.0064281948
    1    4    8    6       -0.0074308003
    1    4    8    7        0.0055036411
    1    4    8    8       -0.0067513930
    1    5    8    1       -0.0125905306
    1    5    8    4       -0.0021421761
    1    5    8    5       -0.0194642375
    1    5    8    6        0.0180508327
    1    5    8    7        0.0047690867
    1    5    8    8        0.0052937468
    1    6    8    1        0.0126528070
    1    6    8    4        0.0028840241
    1    6    8    5        0.0222466608
    1    6    8    6       -0.0198171111
    1    6    8    7       -0.0063974699
    1    6    8    8       -0.0051989357
    1    7    8    1       -0.0204822012
    1    7    8    4        0.0046748892
    1    7    8    5       -0.0113825330
    1    7    8    6        0.0111300179
    1    7    8    7       -0.0053392999
    1    7    8    8        0.0054359860
    1    8    8    1        0.0109820544
    1    8    8    4        0.0073342932
    1    8    8    5        0.0105142498
    1    8    8    6       -0.0107707929
    1    8    8    7       -0.0051280240
    1    8    8    8       -0.0066648323
    2    1    1    2        0.0394095706
    2    2    1    1        1.2169500721
[...]
    7    7    5    5        0.6075572277
    7    7    5    6       -0.1921125420
    7    7    5    7        0.0479752752
    7    7    5    8       -0.0020975064
    7    8    5    1        0.0047690867
    7    8    5    4        0.0226955080
    7    8    5    5        0.0226742902
    7    8    5    6       -0.0105913254
    7    8    5    7        0.0047990634
    7    8    5    8       -0.0223113170
    7    1    6    1        0.0070082865
    7    1    6    4       -0.0118656349
    7    1    6    5       -0.0057058340
    7    1    6    6        0.0160899931
    7    1    6    7        0.0105527854
    7    1    6    8        0.0111300179
    7    2    6    2        0.0061445759
    7    3    6    3        0.0061445999
    7    4    6    1       -0.0124894971
    7    4    6    4        0.0010795722
    7    4    6    5        0.0949696011
    7    4    6    6       -0.1315657975
    7    4    6    7        0.0199302238
    7    4    6    8       -0.0103895526
    7    5    6    1        0.0212815351
    7    5    6    4        0.0338377273
    7    5    6    5       -0.0035754976
    7    5    6    6        0.0359549631
    7    5    6    7       -0.0346382637
    7    5    6    8       -0.0213988230
    7    6    6    1       -0.0259719820
    7    6    6    4       -0.0479066064
    7    6    6    5        0.0102584551
    7    6    6    6        0.0209243671
    7    6    6    7        0.0460813261
    7    6    6    8        0.0351879277
    7    7    6    1        0.0248372389
    7    7    6    4        0.0124170856
    7    7    6    5       -0.1921125420
    7    7    6    6        0.5572487367
    7    7    6    7       -0.0339465443
    7    7    6    8       -0.0160364861
    7    8    6    1       -0.0063974699
    7    8    6    4       -0.0113848926
    7    8    6    5       -0.0087617947
    7    8    6    6        0.0252538248
    7    8    6    7        0.0048250814
    7    8    6    8        0.0156181513
    7    1    7    1        0.1118594376
    7    1    7    4       -0.0178861557
    7    1    7    5       -0.0050648871
    7    1    7    6        0.0105653234
    7    1    7    7        0.0277910191
    7    1    7    8       -0.0053392999
    7    2    7    2        0.0534408383
    7    3    7    3        0.0534408663
    7    4    7    1       -0.0178861557
    7    4    7    4        0.1187909059
    7    4    7    5       -0.0380390864
    7    4    7    6        0.0195898272
    7    4    7    7       -0.1409082668
    7    4    7    8       -0.0002191852
    7    5    7    1       -0.0050648871
    7    5    7    4       -0.0380390864
    7    5    7    5        0.0458916451
    7    5    7    6       -0.0353188165
    7    5    7    7        0.0479752752
    7    5    7    8        0.0050568711
    7    6    7    1        0.0105653234
    7    6    7    4        0.0195898272
    7    6    7    5       -0.0353188165
    7    6    7    6        0.0460813261
    7    6    7    7       -0.0339465443
    7    6    7    8        0.0048250814
    7    7    7    1        0.0277910191
    7    7    7    4       -0.1409082668
    7    7    7    5        0.0479752752
    7    7    7    6       -0.0339465443
    7    7    7    7        0.6831907874
    7    7    7    8       -0.0028057176
    7    8    7    1       -0.0053392999
    7    8    7    4       -0.0002191852
    7    8    7    5        0.0050568711
    7    8    7    6        0.0048250814
    7    8    7    7       -0.0028057176
    7    8    7    8        0.0321179830
    7    1    8    1       -0.0192881426
    7    1    8    4        0.0032066589
    7    1    8    5       -0.0100595351
    7    1    8    6        0.0111867536
    7    1    8    7       -0.0054109866
    7    1    8    8        0.0054359860
    7    2    8    2       -0.0003719293
    7    3    8    3       -0.0003721693
    7    4    8    1        0.0003651955
    7    4    8    4       -0.0037825911
    7    4    8    5        0.0274746537
    7    4    8    6       -0.0107772936
    7    4    8    7       -0.0021328871
    7    4    8    8       -0.1405498931
    7    5    8    1        0.0064379662
    7    5    8    4        0.0099291511
    7    5    8    5        0.0070157809
    7    5    8    6       -0.0228619314
    7    5    8    7        0.0047990634
    7    5    8    8        0.0232398357
    7    6    8    1       -0.0085258291
    7    6    8    4       -0.0007524004
    7    6    8    5       -0.0463843046
    7    6    8    6        0.0351879277
    7    6    8    7        0.0048250814
    7    6    8    8        0.0065823831
    7    7    8    1        0.0001280010
    7    7    8    4        0.0026997376
    7    7    8    5       -0.0020975064
    7    7    8    6       -0.0160364861
    7    7    8    7       -0.0028057176
    7    7    8    8        0.6924576502
    7    8    8    1       -0.0051280240
    7    8    8    4       -0.0069179110
    7    8    8    5       -0.0222323622
    7    8    8    6        0.0156181513
    7    8    8    7        0.0321179830
    7    8    8    8        0.0121188620
    8    1    1    1       -0.0745728914
    8    1    1    4        0.0151663320
    8    1    1    5       -0.0125905306
    8    1    1    6        0.0126528070
    8    1    1    7       -0.0204822012
    8    1    1    8        0.0109820544
    8    2    1    2        0.0167572501
    8    3    1    3        0.0167585651
    8    4    1    1        0.0652006629
    8    4    1    4       -0.0035239647
    8    4    1    5       -0.0021421761
    8    4    1    6        0.0028840241
    8    4    1    7        0.0046748892
    8    4    1    8        0.0073342932
    8    5    1    1       -0.1381601725
    8    5    1    4        0.0064281948
    8    5    1    5       -0.0194642375
    8    5    1    6        0.0222466608
    8    5    1    7       -0.0113825330
    8    5    1    8        0.0105142498
    8    6    1    1        0.0939446072
    8    6    1    4       -0.0074308003
    8    6    1    5        0.0180508327
    8    6    1    6       -0.0198171111
    8    6    1    7        0.0111300179
    8    6    1    8       -0.0107707929
    8    7    1    1       -0.0407154157
    8    7    1    4        0.0055036411
    8    7    1    5        0.0047690867
    8    7    1    6       -0.0063974699
    8    7    1    7       -0.0053392999
    8    7    1    8       -0.0051280240
    8    8    1    1        1.0465899973
    8    8    1    4       -0.0067513930
    8    8    1    5        0.0052937468
    8    8    1    6       -0.0051989357
    8    8    1    7        0.0054359860
    8    8    1    8       -0.0066648323
    8    1    2    2        0.0027294051
    8    2    2    1        0.0184498994
    8    2    2    4        0.0705317626
    8    2    2    5        0.0005844807
    8    2    2    6       -0.0089907622
    8    2    2    7       -0.0064348046
    8    2    2    8        0.0516272290
    8    4    2    2        0.0486492595
    8    5    2    2       -0.0540385163
    8    6    2    2        0.0100176752
    8    7    2    2        0.0050210499
    8    8    2    2        0.7750999742
    8    1    3    3        0.0027297590
    8    3    3    1        0.0184513252
    8    3    3    4        0.0705376671
    8    3    3    5        0.0005847640
    8    3    3    6       -0.0089917066
    8    3    3    7       -0.0064355302
    8    3    3    8        0.0516329257
    8    4    3    3        0.0486518747
    8    5    3    3       -0.0540384387
    8    6    3    3        0.0100171390
    8    7    3    3        0.0050207418
    8    8    3    3        0.7751034040
    8    1    4    1        0.0148800195
    8    1    4    4       -0.0000436289
    8    1    4    5       -0.0110044800
    8    1    4    6        0.0089953960
    8    1    4    7        0.0013343280
    8    1    4    8        0.0073342932
    8    2    4    2        0.0671880086
    8    3    4    3        0.0671936753
    8    4    4    1       -0.0037065391
    8    4    4    4        0.0148344390
    8    4    4    5        0.0063714246
    8    4    4    6       -0.0145024715
    8    4    4    7       -0.0041571503
    8    4    4    8        0.0794345487
    8    5    4    1        0.0066713825
    8    5    4    4       -0.0359395521
    8    5    4    5       -0.0969076464
    8    5    4    6        0.0663039667
    8    5    4    7        0.0235757216
    8    5    4    8       -0.0054519302
    8    6    4    1       -0.0074014470
    8    6    4    4       -0.0053520808
    8    6    4    5        0.0670265631
    8    6    4    6       -0.0496926756
    8    6    4    7       -0.0103895526
    8    6    4    8       -0.0005201421
    8    7    4    1        0.0053578671
    8    7    4    4        0.0063735037
    8    7    4    5        0.0226955080
    8    7    4    6       -0.0113848926
    8    7    4    7       -0.0002191852
    8    7    4    8       -0.0069179110
    8    8    4    1       -0.0067513930
    8    8    4    4        0.8309893363
    8    8    4    5       -0.0159703741
    8    8    4    6       -0.0239707937
    8    8    4    7       -0.1405498931
    8    8    4    8       -0.0411991278
    8    1    5    1       -0.0126583837
    8    1    5    4       -0.0109769435
    8    1    5    5       -0.0085340637
    8    1    5    6        0.0061093872
    8    1    5    7        0.0065558066
    8    1    5    8        0.0105142498
    8    2    5    2        0.0005195602
    8    3    5    3        0.0005198964
    8    4    5    1       -0.0021724012
    8    4    5    4        0.0065879921
    8    4    5    5       -0.0342487460
    8    4    5    6        0.0168792844
    8    4    5    7        0.0066785149
    8    4    5    8       -0.0054519302
    8    5    5    1       -0.0201781321
    8    5    5    4       -0.0974995383
    8    5    5    5       -0.0886156258
    8    5    5    6        0.0106516545
    8    5    5    7        0.0144985992
    8    5    5    8        0.1171852799
    8    6    5    1        0.0179703871
    8    6    5    4        0.0670722796
    8    6    5    5        0.0303507302
    8    6    5    6       -0.0140961417
    8    6    5    7       -0.0213988230
    8    6    5    8       -0.0723969661
    8    7    5    1        0.0046782145
    8    7    5    4        0.0225422103
    8    7    5    5        0.0226742902
    8    7    5    6       -0.0087617947
    8    7    5    7        0.0050568711
    8    7    5    8       -0.0222323622
    8    8    5    1        0.0052937468
    8    8    5    4       -0.0159703741
    8    8    5    5        0.7179604405
    8    8    5    6       -0.2188792693
    8    8    5    7        0.0232398357
    8    8    5    8       -0.0479285432
    8    1    6    1        0.0128898197
    8    1    6    4        0.0088065416
    8    1    6    5        0.0053366916
    8    1    6    6       -0.0119819253
    8    1    6    7       -0.0084105685
    8    1    6    8       -0.0107707929
    8    2    6    2       -0.0060358992
    8    3    6    3       -0.0060366726
    8    4    6    1        0.0029930483
    8    4    6    4       -0.0107750583
    8    4    6    5        0.0155286678
    8    4    6    6       -0.0229457782
    8    4    6    7       -0.0005322723
    8    4    6    8       -0.0005201421
    8    5    6    1        0.0207516788
    8    5    6    4        0.0616559199
    8    5    6    5        0.0028109578
    8    5    6    6       -0.0967069565
    8    5    6    7       -0.0453754093
    8    5    6    8       -0.0723969661
    8    6    6    1       -0.0200352464
    8    6    6    4       -0.0505488777
    8    6    6    5       -0.0148060154
    8    6    6    6        0.0459143326
    8    6    6    7        0.0351879277
    8    6    6    8        0.0625172016
    8    7    6    1       -0.0062793554
    8    7    6    4       -0.0117211355
    8    7    6    5       -0.0105913254
    8    7    6    6        0.0252538248
    8    7    6    7        0.0048250814
    8    7    6    8        0.0156181513
    8    8    6    1       -0.0051989357
    8    8    6    4       -0.0239707937
    8    8    6    5       -0.2188792693
    8    8    6    6        0.6490114054
    8    8    6    7        0.0065823831
    8    8    6    8        0.0080861168
    8    1    7    1       -0.0192881426
    8    1    7    4        0.0003651955
    8    1    7    5        0.0064379662
    8    1    7    6       -0.0085258291
    8    1    7    7        0.0001280010
    8    1    7    8       -0.0051280240
    8    2    7    2       -0.0003719293
    8    3    7    3       -0.0003721693
    8    4    7    1        0.0032066589
    8    4    7    4       -0.0037825911
    8    4    7    5        0.0099291511
    8    4    7    6       -0.0007524004
    8    4    7    7        0.0026997376
    8    4    7    8       -0.0069179110
    8    5    7    1       -0.0100595351
    8    5    7    4        0.0274746537
    8    5    7    5        0.0070157809
    8    5    7    6       -0.0463843046
    8    5    7    7       -0.0020975064
    8    5    7    8       -0.0222323622
    8    6    7    1        0.0111867536
    8    6    7    4       -0.0107772936
    8    6    7    5       -0.0228619314
    8    6    7    6        0.0351879277
    8    6    7    7       -0.0160364861
    8    6    7    8        0.0156181513
    8    7    7    1       -0.0054109866
    8    7    7    4       -0.0021328871
    8    7    7    5        0.0047990634
    8    7    7    6        0.0048250814
    8    7    7    7       -0.0028057176
    8    7    7    8        0.0321179830
    8    8    7    1        0.0054359860
    8    8    7    4       -0.1405498931
    8    8    7    5        0.0232398357
    8    8    7    6        0.0065823831
    8    8    7    7        0.6924576502
    8    8    7    8        0.0121188620
    8    1    8    1        0.0102497157
    8    1    8    4        0.0071455042
    8    1    8    5        0.0096803774
    8    1    8    6       -0.0108318905
    8    1    8    7       -0.0051979855
    8    1    8    8       -0.0066648323
    8    2    8    2        0.0511975230
    8    3    8    3        0.0512029443
    8    4    8    1        0.0071455042
    8    4    8    4        0.0774732051
    8    4    8    5       -0.0013778778
    8    4    8    6       -0.0000531672
    8    4    8    7       -0.0070753658
    8    4    8    8       -0.0411991278
    8    5    8    1        0.0096803774
    8    5    8    4       -0.0013778778
    8    5    8    5        0.1292036156
    8    5    8    6       -0.0723131781
    8    5    8    7       -0.0223113170
    8    5    8    8       -0.0479285432
    8    6    8    1       -0.0108318905
    8    6    8    4       -0.0000531672
    8    6    8    5       -0.0723131781
    8    6    8    6        0.0625172016
    8    6    8    7        0.0156181513
    8    6    8    8        0.0080861168
    8    7    8    1       -0.0051979855
    8    7    8    4       -0.0070753658
    8    7    8    5       -0.0223113170
    8    7    8    6        0.0156181513
    8    7    8    7        0.0321179830
    8    7    8    8        0.0121188620
    8    8    8    1       -0.0066648323
    8    8    8    4       -0.0411991278
    8    8    8    5       -0.0479285432
    8    8    8    6        0.0080861168
    8    8    8    7        0.0121188620
    8    8    8    8        0.8383667019
 end_two_electron_integrals

 Parallel integral file used       3 records with       0 large values


 Task  times  cpu:       14.6s     wall:       16.0s


                                NWChem Input Module
                                -------------------


 Summary of allocated global arrays
-----------------------------------
  No active global arrays


MA_summarize_allocated_blocks: starting scan ...
MA_summarize_allocated_blocks: scan completed: 0 heap blocks, 0 stack blocks
MA usage statistics:

	allocation statistics:
					      heap	     stack
					      ----	     -----
	current number of blocks	         0	         0
	maximum number of blocks	        18	        42
	current total bytes		         0	         0
	maximum total bytes		   9520928	1566946072
	maximum total K-bytes		      9521	   1566947
	maximum total M-bytes		        10	      1567


                                     CITATION
                                     --------
                Please cite the following reference when publishing
                           results obtained with NWChem:

          E. Apra, E. J. Bylaska, W. A. de Jong, N. Govind, K. Kowalski,
       T. P. Straatsma, M. Valiev, H. J. J. van Dam, Y. Alexeev, J. Anchell,
       V. Anisimov, F. W. Aquino, R. Atta-Fynn, J. Autschbach, N. P. Bauman,
     J. C. Becca, D. E. Bernholdt, K. Bhaskaran-Nair, S. Bogatko, P. Borowski,
         J. Boschen, J. Brabec, A. Bruner, E. Cauet, Y. Chen, G. N. Chuev,
      C. J. Cramer, J. Daily, M. J. O. Deegan, T. H. Dunning Jr., M. Dupuis,
   K. G. Dyall, G. I. Fann, S. A. Fischer, A. Fonari, H. Fruchtl, L. Gagliardi,
      J. Garza, N. Gawande, S. Ghosh, K. Glaesemann, A. W. Gotz, J. Hammond,
       V. Helms, E. D. Hermes, K. Hirao, S. Hirata, M. Jacquelin, L. Jensen,
   B. G. Johnson, H. Jonsson, R. A. Kendall, M. Klemm, R. Kobayashi, V. Konkov,
      S. Krishnamoorthy, M. Krishnan, Z. Lin, R. D. Lins, R. J. Littlefield,
      A. J. Logsdail, K. Lopata, W. Ma, A. V. Marenich, J. Martin del Campo,
   D. Mejia-Rodriguez, J. E. Moore, J. M. Mullin, T. Nakajima, D. R. Nascimento,
    J. A. Nichols, P. J. Nichols, J. Nieplocha, A. Otero-de-la-Roza, B. Palmer,
    A. Panyala, T. Pirojsirikul, B. Peng, R. Peverati, J. Pittner, L. Pollack,
   R. M. Richard, P. Sadayappan, G. C. Schatz, W. A. Shelton, D. W. Silverstein,
   D. M. A. Smith, T. A. Soares, D. Song, M. Swart, H. L. Taylor, G. S. Thomas,
            V. Tipparaju, D. G. Truhlar, K. Tsemekhman, T. Van Voorhis,
      A. Vazquez-Mayagoitia, P. Verma, O. Villa, A. Vishnu, K. D. Vogiatzis,
        D. Wang, J. H. Weare, M. J. Williamson, T. L. Windus, K. Wolinski,
        A. T. Wong, Q. Wu, C. Yang, Q. Yu, M. Zacharias, Z. Zhang, Y. Zhao,
                                and R. J. Harrison
                        "NWChem: Past, present, and future
                         J. Chem. Phys. 152, 184102 (2020)
                               doi:10.1063/5.0004997

                                      AUTHORS
                                      -------
  E. Apra, E. J. Bylaska, N. Govind, K. Kowalski, M. Valiev, D. Mejia-Rodriguez,
       A. Kunitsa, N. P. Bauman, A. Panyala, W. A. de Jong, T. P. Straatsma,
        H. J. J. van Dam, D. Wang, T. L. Windus, J. Hammond, J. Autschbach,
    K. Bhaskaran-Nair, J. Brabec, K. Lopata, S. A. Fischer, S. Krishnamoorthy,
     M. Jacquelin, W. Ma, M. Klemm, O. Villa, Y. Chen, V. Anisimov, F. Aquino,
    S. Hirata, M. T. Hackler, Eric Hermes, L. Jensen, J. E. Moore, J. C. Becca,
      V. Konjkov, T. Risthaus, M. Malagoli, A. Marenich, A. Otero-de-la-Roza,
        J. Mullin, P. Nichols, R. Peverati, J. Pittner, Y. Zhao, P.-D. Fan,
        A. Fonari, M. J. Williamson, R. J. Harrison, J. R. Rehr, M. Dupuis,
     D. Silverstein, D. M. A. Smith, J. Nieplocha, V. Tipparaju, M. Krishnan,
     B. E. Van Kuiken, A. Vazquez-Mayagoitia, M. Swart, Q. Wu, T. Van Voorhis,
     A. A. Auer, M. Nooijen, L. D. Crosby, E. Brown, G. Cisneros, G. I. Fann,
   H. Fruchtl, J. Garza, K. Hirao, R. A. Kendall, J. A. Nichols, K. Tsemekhman,
    K. Wolinski, J. Anchell, D. E. Bernholdt, P. Borowski, T. Clark, D. Clerc,
   H. Dachsel, M. J. O. Deegan, K. Dyall, D. Elwood, E. Glendening, M. Gutowski,
   A. C. Hess, J. Jaffe, B. G. Johnson, J. Ju, R. Kobayashi, R. Kutteh, Z. Lin,
   R. Littlefield, X. Long, B. Meng, T. Nakajima, S. Niu, L. Pollack, M. Rosing,
   K. Glaesemann, G. Sandrone, M. Stave, H. Taylor, G. Thomas, J. H. van Lenthe,
                               A. T. Wong, Z. Zhang.

 Total times  cpu:       19.8s     wall:       24.3s
