 argument  1 = input.nw
  NWChem w/ OpenMP: maximum threads =    1



============================== echo of input deck ==============================
 echo
 start H2
 title "H2"

 memory total 24 gb

 geometry units bohr
 symmetry c1
        H  0.00000000  0.00000000  0.00000000
        H  0.00000000  1.45  0.00000000
 end

 basis
   * library cc-pVQZ
 end

 mcscf
   active  10
   actelec 2
   multiplicity 1
   maxiter 40
   vectors input H2.mos
   vectors output H2.mos
 end

 task mcscf

 scf
   vectors input H2.mos
   vectors output H2-1.45.mos
   noscf
 end

 tce
   2eorb
   2emet 13
   ccsd
   maxiter 300
   lshift 0.8
 end

# set tce:print_integrals T
# set tce:qorb 10
# set tce:qela 1
# set tce:qelb 1

 set tce:qducc T
 set tce:nactv 9
 set tce:nonhf T
 set tce:ducc_model 6

 set tce:printtol 0.02

 task tce
================================================================================


                                         
                                         


             Northwest Computational Chemistry Package (NWChem) 7.0.1
             --------------------------------------------------------


                    Environmental Molecular Sciences Laboratory
                       Pacific Northwest National Laboratory
                                Richland, WA 99352

                              Copyright (c) 1994-2020
                       Pacific Northwest National Laboratory
                            Battelle Memorial Institute

             NWChem is an open-source computational chemistry package
                        distributed under the terms of the
                      Educational Community License (ECL) 2.0
             A copy of the license is included with this distribution
                              in the LICENSE.TXT file

                                  ACKNOWLEDGMENT
                                  --------------

            This software and its documentation were developed at the
            EMSL at Pacific Northwest National Laboratory, a multiprogram
            national laboratory, operated for the U.S. Department of Energy
            by Battelle under Contract Number DE-AC05-76RL01830. Support
            for this work was provided by the Department of Energy Office
            of Biological and Environmental Research, Office of Basic
            Energy Sciences, and the Office of Advanced Scientific Computing.


           Job information
           ---------------

    hostname        = WE46210
    program         = /home/baum612/code/nwchem/bin/LINUX64/nwchem
    date            = Fri Nov 10 23:40:35 2023

    compiled        = Mon_Nov_06_10:06:57_2023
    source          = /home/baum612/code/nwchem
    nwchem branch   = 7.0.0
    nwchem revision = nwchem_on_git-4191-g39d87d64de
    ga revision     = 5.8.1
    use scalapack   = F
    input           = input.nw
    prefix          = H2.
    data base       = ./H2.db
    status          = startup
    nproc           =        1
    time left       =     -1s



           Memory information
           ------------------

    heap     =  805306362 doubles =   6144.0 Mbytes
    stack    =  805306367 doubles =   6144.0 Mbytes
    global   = 1610612736 doubles =  12288.0 Mbytes (distinct from heap & stack)
    total    = 3221225465 doubles =  24576.0 Mbytes
    verify   = yes
    hardfail = no 


           Directory information
           ---------------------

  0 permanent = .
  0 scratch   = .




                                NWChem Input Module
                                -------------------


                                        H2
                                        --
 Turning off AUTOSYM since
 SYMMETRY directive was detected!


          ------
          auto-z
          ------
  no constraints, skipping    0.0000000000000000     
  no constraints, skipping    0.0000000000000000     


                             Geometry "geometry" -> ""
                             -------------------------

 Output coordinates in a.u. (scale by  1.000000000 to convert to a.u.)

  No.       Tag          Charge          X              Y              Z
 ---- ---------------- ---------- -------------- -------------- --------------
    1 H                    1.0000     0.00000000    -0.72500000     0.00000000
    2 H                    1.0000     0.00000000     0.72500000     0.00000000

      Atomic Mass 
      ----------- 

      H                  1.007825


 Effective nuclear repulsion energy (a.u.)       0.6896551724

            Nuclear Dipole moment (a.u.) 
            ----------------------------
        X                 Y               Z
 ---------------- ---------------- ----------------
     0.0000000000     0.0000000000     0.0000000000



                                Z-matrix (autoz)
                                -------- 

 Units are Angstrom for bonds and degrees for angles

      Type          Name      I     J     K     L     M      Value
      ----------- --------  ----- ----- ----- ----- ----- ----------
    1 Stretch                  1     2                       0.76731


            XYZ format geometry
            -------------------
     2
 geometry
 H                     0.00000000    -0.38365351     0.00000000
 H                     0.00000000     0.38365351     0.00000000



 Summary of "ao basis" -> "" (cartesian)
 ------------------------------------------------------------------------------
       Tag                 Description            Shells   Functions and Types
 ---------------- ------------------------------  ------  ---------------------
 *                          cc-pVQZ                   on all atoms 


                      Basis "ao basis" -> "ao basis" (cartesian)
                      -----
  H (Hydrogen)
  ------------
            Exponent  Coefficients 
       -------------- ---------------------------------------------------------
  1 S  8.26400000E+01  0.002006
  1 S  1.24100000E+01  0.015343
  1 S  2.82400000E+00  0.075579

  2 S  7.97700000E-01  1.000000

  3 S  2.58100000E-01  1.000000

  4 S  8.98900000E-02  1.000000

  5 P  2.29200000E+00  1.000000

  6 P  8.38000000E-01  1.000000

  7 P  2.92000000E-01  1.000000

  8 D  2.06200000E+00  1.000000

  9 D  6.62000000E-01  1.000000

 10 F  1.39700000E+00  1.000000



 Summary of "ao basis" -> "ao basis" (cartesian)
 ------------------------------------------------------------------------------
       Tag                 Description            Shells   Functions and Types
 ---------------- ------------------------------  ------  ---------------------
 H                          cc-pVQZ                 10       35   4s3p2d1f



                            NWChem Direct MCSCF Module
                            --------------------------


                                        H2


     -----------------------------------
       Basis functions:             70
       Inactive shells:              0
       Active shells:               10
       Active electrons:             2
       Symmetry:                    a       
       Multiplicity:                 1
       Orbital rotations:          600
     -----------------------------------

     -----------------------------------
       E2 extrapolation:             F
       Conjugacy:                    T
       Micro CI relax:               T
       Canonical orbitals:           T
       Maximum iterations:          40
       Converge threshold:    1.00E-04
       Conjugacy resets:            20
       Initial levelshift:        0.10
     -----------------------------------

 Loading old vectors from job with title :

H2


   input molecular orbitals = ./H2.mos
  output molecular orbtials = ./H2.mos

       No. of determinants:           100


  Starting Orbital Energies
    -0.572773     0.105051     0.204724     0.426139     0.426139     0.427281
     0.729560     0.744561     0.744561     1.023785     1.059807     1.291339
     1.649280     1.649280     1.884435     1.884435     2.010866     2.150907
     2.150907     2.461331     2.461331     2.505529     2.505529     2.577252
     2.869301     3.223448     3.225832     3.225832     3.397711     4.194965
     4.194965     4.422592     4.823208     4.823208     4.984356     5.626928
     5.626928     6.073990     6.073990     6.638697     6.638697     7.292635
     7.292635     7.523919     7.523919     7.532765     7.604920     7.604920
     7.622298     7.914651     7.914651     8.222004     8.222004     8.643514
     8.944594     8.944594     9.405079     9.429188     9.716245     9.716245
     9.765686     9.765686     9.909255    12.189673    12.376625    12.376625
    12.633476    15.705603    25.170127    25.683864

  Orbital Symmetry Irreps
a    a    a    a    a    a    a    a    a    a    a    a    a    a    a   
a    a    a    a    a    a    a    a    a    a    a    a    a    a    a   
a    a    a    a    a    a    a    a    a    a    a    a    a    a    a   
a    a    a    a    a    a    a    a    a    a    a    a    a    a    a   
a    a    a    a    a    a    a    a    a    a   

 Integral file          = ./H2.aoints.0
 Record size in doubles =  65536        No. of integs per rec  =  43688
 Max. records in memory =     99        Max. records in file   = 280165
 No. of bits per label  =      8        No. of bits per value  =     64


 #quartets = 2.216D+04 #integrals = 8.606D+05 #direct =  0.0% #cached =100.0%




          %%%%% MacroIteration   1 %%%%%


          Number of sigma calls:        7
                       o<<<<< (aa):             0.00
                       o<<<<< (bb):             0.00
                       o<<<<< (ab):             0.01
                       o<<<<< (total)           0.01
                       o<<<<< (aa) ff           0.00
                       o<<<<< (aa) gop          0.00
                       o<<<<< (aa) dot          0.00
                       o<<<<< (ab) str          0.00
                       o<<<<< (ab) gath         0.00
                       o<<<<< (ab) dotab        0.00
                       o<<<<< (ab) scat         0.00
                       o<<<<< (ab) sync         0.00
                       o<<<<< Density           0.00
                       o<<<<< Density one       0.00
                       o<<<<< Density two       0.00
                       o<<<<< Density ab        0.00
                       o<<<<< Spin adapt        0.00
                       o<<<<< Symm adapt        0.00

                       o<<<<< (ab) max sync:      0.00

           >>>| Valence CI:             -1.841964034096
           >>>| MCSCF energy:           -1.152308861682
           >>>| Gradient norm:          0.519355773D-01
     --- Warning:  214 Hessian diagonals < 0.05 ---

                              ----- Line search ------

        step       energy         lsg     num-lsg   num-lsh   lsrat    time
      ------- ---------------- --------- --------- --------- ------- --------
       0.0000      -1.15230886 -2.17D-02  0.00D+00  0.00D+00 0.0D+00      0.3

          Number of sigma calls:        9
                       o<<<<< (aa):             0.00
                       o<<<<< (bb):             0.00
                       o<<<<< (ab):             0.00
                       o<<<<< (total)           0.00
                       o<<<<< (aa) ff           0.00
                       o<<<<< (aa) gop          0.00
                       o<<<<< (aa) dot          0.00
                       o<<<<< (ab) str          0.00
                       o<<<<< (ab) gath         0.00
                       o<<<<< (ab) dotab        0.00
                       o<<<<< (ab) scat         0.00
                       o<<<<< (ab) sync         0.00
                       o<<<<< Density           0.00
                       o<<<<< Density one       0.00
                       o<<<<< Density two       0.00
                       o<<<<< Density ab        0.00
                       o<<<<< Spin adapt        0.00
                       o<<<<< Symm adapt        0.00

                       o<<<<< (ab) max sync:      0.00
       1.0000      -1.16736776 -4.16D-03 -6.28D-03  1.76D-02 1.9D-01      0.5

          Number of sigma calls:        8
                       o<<<<< (aa):             0.00
                       o<<<<< (bb):             0.00
                       o<<<<< (ab):             0.00
                       o<<<<< (total)           0.00
                       o<<<<< (aa) ff           0.00
                       o<<<<< (aa) gop          0.00
                       o<<<<< (aa) dot          0.00
                       o<<<<< (ab) str          0.00
                       o<<<<< (ab) gath         0.00
                       o<<<<< (ab) dotab        0.00
                       o<<<<< (ab) scat         0.00
                       o<<<<< (ab) sync         0.00
                       o<<<<< Density           0.00
                       o<<<<< Density one       0.00
                       o<<<<< Density two       0.00
                       o<<<<< Density ab        0.00
                       o<<<<< Spin adapt        0.00
                       o<<<<< Symm adapt        0.00

                       o<<<<< (ab) max sync:      0.00
       1.2369      -1.16776512  6.32D-04  7.19D-04  2.02D-02 2.9D-02      0.5
     --- Orbitals canonicalized ---



          %%%%% MacroIteration   2 %%%%%


          Number of sigma calls:        9
                       o<<<<< (aa):             0.00
                       o<<<<< (bb):             0.00
                       o<<<<< (ab):             0.01
                       o<<<<< (total)           0.01
                       o<<<<< (aa) ff           0.00
                       o<<<<< (aa) gop          0.00
                       o<<<<< (aa) dot          0.00
                       o<<<<< (ab) str          0.00
                       o<<<<< (ab) gath         0.00
                       o<<<<< (ab) dotab        0.00
                       o<<<<< (ab) scat         0.00
                       o<<<<< (ab) sync         0.00
                       o<<<<< Density           0.00
                       o<<<<< Density one       0.00
                       o<<<<< Density two       0.00
                       o<<<<< Density ab        0.00
                       o<<<<< Spin adapt        0.00
                       o<<<<< Symm adapt        0.00

                       o<<<<< (ab) max sync:      0.00

           >>>| Valence CI:             -1.857420289321
           >>>| MCSCF energy:           -1.167765116907
           >>>| Gradient norm:          0.454367151D-01
     --- Warning:  300 Hessian diagonals < 0.05 ---
     --- Conjugacy reset ---

                              ----- Line search ------

        step       energy         lsg     num-lsg   num-lsh   lsrat    time
      ------- ---------------- --------- --------- --------- ------- --------
       0.0000      -1.16776512 -2.17D-03  0.00D+00  0.00D+00 0.0D+00      0.8

          Number of sigma calls:       10
                       o<<<<< (aa):             0.00
                       o<<<<< (bb):             0.00
                       o<<<<< (ab):             0.01
                       o<<<<< (total)           0.01
                       o<<<<< (aa) ff           0.00
                       o<<<<< (aa) gop          0.00
                       o<<<<< (aa) dot          0.00
                       o<<<<< (ab) str          0.00
                       o<<<<< (ab) gath         0.00
                       o<<<<< (ab) dotab        0.00
                       o<<<<< (ab) scat         0.00
                       o<<<<< (ab) sync         0.00
                       o<<<<< Density           0.00
                       o<<<<< Density one       0.00
                       o<<<<< Density two       0.00
                       o<<<<< Density ab        0.00
                       o<<<<< Spin adapt        0.00
                       o<<<<< Symm adapt        0.00

                       o<<<<< (ab) max sync:      0.00
       1.0000      -1.16932593 -9.15D-04 -9.31D-04  1.26D-03 4.2D-01      1.0

          Number of sigma calls:       10
                       o<<<<< (aa):             0.00
                       o<<<<< (bb):             0.00
                       o<<<<< (ab):             0.02
                       o<<<<< (total)           0.02
                       o<<<<< (aa) ff           0.00
                       o<<<<< (aa) gop          0.00
                       o<<<<< (aa) dot          0.00
                       o<<<<< (ab) str          0.00
                       o<<<<< (ab) gath         0.00
                       o<<<<< (ab) dotab        0.00
                       o<<<<< (ab) scat         0.00
                       o<<<<< (ab) sync         0.00
                       o<<<<< Density           0.00
                       o<<<<< Density one       0.00
                       o<<<<< Density two       0.00
                       o<<<<< Density ab        0.00
                       o<<<<< Spin adapt        0.00
                       o<<<<< Symm adapt        0.00

                       o<<<<< (ab) max sync:      0.00
       1.7265      -1.16962712  9.40D-05  8.97D-05  1.39D-03 4.3D-02      1.2



          %%%%% MacroIteration   3 %%%%%


          Number of sigma calls:        1
                       o<<<<< (aa):             0.00
                       o<<<<< (bb):             0.00
                       o<<<<< (ab):             0.00
                       o<<<<< (total)           0.00
                       o<<<<< (aa) ff           0.00
                       o<<<<< (aa) gop          0.00
                       o<<<<< (aa) dot          0.00
                       o<<<<< (ab) str          0.00
                       o<<<<< (ab) gath         0.00
                       o<<<<< (ab) dotab        0.00
                       o<<<<< (ab) scat         0.00
                       o<<<<< (ab) sync         0.00
                       o<<<<< Density           0.00
                       o<<<<< Density one       0.00
                       o<<<<< Density two       0.00
                       o<<<<< Density ab        0.00
                       o<<<<< Spin adapt        0.00
                       o<<<<< Symm adapt        0.00

                       o<<<<< (ab) max sync:      0.00

           >>>| Valence CI:             -1.859282292644
           >>>| MCSCF energy:           -1.169627120230
           >>>| Gradient norm:          0.195842045D-01
     --- Warning:  300 Hessian diagonals < 0.05 ---

                              ----- Line search ------

        step       energy         lsg     num-lsg   num-lsh   lsrat    time
      ------- ---------------- --------- --------- --------- ------- --------
       0.0000      -1.16962712 -1.50D-04  0.00D+00  0.00D+00 0.0D+00      1.3

          Number of sigma calls:       10
                       o<<<<< (aa):             0.00
                       o<<<<< (bb):             0.00
                       o<<<<< (ab):             0.02
                       o<<<<< (total)           0.02
                       o<<<<< (aa) ff           0.00
                       o<<<<< (aa) gop          0.00
                       o<<<<< (aa) dot          0.00
                       o<<<<< (ab) str          0.00
                       o<<<<< (ab) gath         0.00
                       o<<<<< (ab) dotab        0.00
                       o<<<<< (ab) scat         0.00
                       o<<<<< (ab) sync         0.00
                       o<<<<< Density           0.00
                       o<<<<< Density one       0.00
                       o<<<<< Density two       0.00
                       o<<<<< Density ab        0.00
                       o<<<<< Spin adapt        0.00
                       o<<<<< Symm adapt        0.00

                       o<<<<< (ab) max sync:      0.00
       1.0000      -1.16972678 -5.02D-05 -4.99D-05  9.95D-05 3.4D-01      1.6

          Number of sigma calls:        9
                       o<<<<< (aa):             0.00
                       o<<<<< (bb):             0.00
                       o<<<<< (ab):             0.01
                       o<<<<< (total)           0.01
                       o<<<<< (aa) ff           0.00
                       o<<<<< (aa) gop          0.00
                       o<<<<< (aa) dot          0.00
                       o<<<<< (ab) str          0.00
                       o<<<<< (ab) gath         0.00
                       o<<<<< (ab) dotab        0.00
                       o<<<<< (ab) scat         0.00
                       o<<<<< (ab) sync         0.00
                       o<<<<< Density           0.00
                       o<<<<< Density one       0.00
                       o<<<<< Density two       0.00
                       o<<<<< Density ab        0.00
                       o<<<<< Spin adapt        0.00
                       o<<<<< Symm adapt        0.00

                       o<<<<< (ab) max sync:      0.00
       1.5050      -1.16973980 -1.52D-06 -1.43D-06  9.65D-05 1.0D-02      1.7



          %%%%% MacroIteration   4 %%%%%


          Number of sigma calls:        1
                       o<<<<< (aa):             0.00
                       o<<<<< (bb):             0.00
                       o<<<<< (ab):             0.00
                       o<<<<< (total)           0.00
                       o<<<<< (aa) ff           0.00
                       o<<<<< (aa) gop          0.00
                       o<<<<< (aa) dot          0.00
                       o<<<<< (ab) str          0.00
                       o<<<<< (ab) gath         0.00
                       o<<<<< (ab) dotab        0.00
                       o<<<<< (ab) scat         0.00
                       o<<<<< (ab) sync         0.00
                       o<<<<< Density           0.00
                       o<<<<< Density one       0.00
                       o<<<<< Density two       0.00
                       o<<<<< Density ab        0.00
                       o<<<<< Spin adapt        0.00
                       o<<<<< Symm adapt        0.00

                       o<<<<< (ab) max sync:      0.00

           >>>| Valence CI:             -1.859394976176
           >>>| MCSCF energy:           -1.169739803762
           >>>| Gradient norm:          0.848031736D-02
     --- Warning:  304 Hessian diagonals < 0.05 ---
     --- Warning: Precondition failed to converge:Residue: current= 0.6D-01 required= 0.3D-01---
 !! warning - +ve gradient along search direction - Increasing shift     0.50
     --- Conjugacy reset ---

                              ----- Line search ------

        step       energy         lsg     num-lsg   num-lsh   lsrat    time
      ------- ---------------- --------- --------- --------- ------- --------
       0.0000      -1.16973980 -7.02D-06  0.00D+00  0.00D+00 0.0D+00      2.5

          Number of sigma calls:        8
                       o<<<<< (aa):             0.00
                       o<<<<< (bb):             0.00
                       o<<<<< (ab):             0.00
                       o<<<<< (total)           0.00
                       o<<<<< (aa) ff           0.00
                       o<<<<< (aa) gop          0.00
                       o<<<<< (aa) dot          0.00
                       o<<<<< (ab) str          0.00
                       o<<<<< (ab) gath         0.00
                       o<<<<< (ab) dotab        0.00
                       o<<<<< (ab) scat         0.00
                       o<<<<< (ab) sync         0.00
                       o<<<<< Density           0.00
                       o<<<<< Density one       0.00
                       o<<<<< Density two       0.00
                       o<<<<< Density ab        0.00
                       o<<<<< Spin adapt        0.00
                       o<<<<< Symm adapt        0.00

                       o<<<<< (ab) max sync:      0.00
       1.0000      -1.16974439 -2.16D-06 -2.16D-06  4.86D-06 3.1D-01      2.5

          Number of sigma calls:        7
                       o<<<<< (aa):             0.00
                       o<<<<< (bb):             0.00
                       o<<<<< (ab):             0.00
                       o<<<<< (total)           0.00
                       o<<<<< (aa) ff           0.00
                       o<<<<< (aa) gop          0.00
                       o<<<<< (aa) dot          0.00
                       o<<<<< (ab) str          0.00
                       o<<<<< (ab) gath         0.00
                       o<<<<< (ab) dotab        0.00
                       o<<<<< (ab) scat         0.00
                       o<<<<< (ab) sync         0.00
                       o<<<<< Density           0.00
                       o<<<<< Density one       0.00
                       o<<<<< Density two       0.00
                       o<<<<< Density ab        0.00
                       o<<<<< Spin adapt        0.00
                       o<<<<< Symm adapt        0.00

                       o<<<<< (ab) max sync:      0.00
       1.4445      -1.16974487 -2.11D-11 -1.93D-11  4.86D-06 3.0D-06      2.5



          %%%%% MacroIteration   5 %%%%%


          Number of sigma calls:        1
                       o<<<<< (aa):             0.00
                       o<<<<< (bb):             0.00
                       o<<<<< (ab):             0.00
                       o<<<<< (total)           0.00
                       o<<<<< (aa) ff           0.00
                       o<<<<< (aa) gop          0.00
                       o<<<<< (aa) dot          0.00
                       o<<<<< (ab) str          0.00
                       o<<<<< (ab) gath         0.00
                       o<<<<< (ab) dotab        0.00
                       o<<<<< (ab) scat         0.00
                       o<<<<< (ab) sync         0.00
                       o<<<<< Density           0.00
                       o<<<<< Density one       0.00
                       o<<<<< Density two       0.00
                       o<<<<< Density ab        0.00
                       o<<<<< Spin adapt        0.00
                       o<<<<< Symm adapt        0.00

                       o<<<<< (ab) max sync:      0.00

           >>>| Valence CI:             -1.859400044514
           >>>| MCSCF energy:           -1.169744872100
           >>>| Gradient norm:          0.283481302D-02
     --- Warning:  304 Hessian diagonals < 0.05 ---
     --- Warning: Precondition failed to converge:Residue: current= 0.1D+00 required= 0.3D-01---
 Increase level shift to     0.20
 !! warning - +ve gradient along search direction - Increasing shift     0.90
     --- Conjugacy reset ---

                              ----- Line search ------

        step       energy         lsg     num-lsg   num-lsh   lsrat    time
      ------- ---------------- --------- --------- --------- ------- --------
       0.0000      -1.16974487 -1.31D-06  0.00D+00  0.00D+00 0.0D+00      3.1

          Number of sigma calls:        7
                       o<<<<< (aa):             0.00
                       o<<<<< (bb):             0.00
                       o<<<<< (ab):             0.01
                       o<<<<< (total)           0.01
                       o<<<<< (aa) ff           0.00
                       o<<<<< (aa) gop          0.00
                       o<<<<< (aa) dot          0.00
                       o<<<<< (ab) str          0.00
                       o<<<<< (ab) gath         0.00
                       o<<<<< (ab) dotab        0.00
                       o<<<<< (ab) scat         0.00
                       o<<<<< (ab) sync         0.00
                       o<<<<< Density           0.00
                       o<<<<< Density one       0.00
                       o<<<<< Density two       0.00
                       o<<<<< Density ab        0.00
                       o<<<<< Spin adapt        0.00
                       o<<<<< Symm adapt        0.00

                       o<<<<< (ab) max sync:      0.00
       1.0000      -1.16974593 -8.14D-07 -8.14D-07  4.92D-07 6.2D-01      3.2

          Number of sigma calls:        8
                       o<<<<< (aa):             0.00
                       o<<<<< (bb):             0.00
                       o<<<<< (ab):             0.00
                       o<<<<< (total)           0.00
                       o<<<<< (aa) ff           0.00
                       o<<<<< (aa) gop          0.00
                       o<<<<< (aa) dot          0.00
                       o<<<<< (ab) str          0.00
                       o<<<<< (ab) gath         0.00
                       o<<<<< (ab) dotab        0.00
                       o<<<<< (ab) scat         0.00
                       o<<<<< (ab) sync         0.00
                       o<<<<< Density           0.00
                       o<<<<< Density one       0.00
                       o<<<<< Density two       0.00
                       o<<<<< Density ab        0.00
                       o<<<<< Spin adapt        0.00
                       o<<<<< Symm adapt        0.00

                       o<<<<< (ab) max sync:      0.00
       2.6552      -1.16974661 -1.43D-10 -1.27D-10  4.92D-07 1.1D-04      3.3



          %%%%% MacroIteration   6 %%%%%


          Number of sigma calls:        1
                       o<<<<< (aa):             0.00
                       o<<<<< (bb):             0.00
                       o<<<<< (ab):             0.00
                       o<<<<< (total)           0.00
                       o<<<<< (aa) ff           0.00
                       o<<<<< (aa) gop          0.00
                       o<<<<< (aa) dot          0.00
                       o<<<<< (ab) str          0.00
                       o<<<<< (ab) gath         0.00
                       o<<<<< (ab) dotab        0.00
                       o<<<<< (ab) scat         0.00
                       o<<<<< (ab) sync         0.00
                       o<<<<< Density           0.00
                       o<<<<< Density one       0.00
                       o<<<<< Density two       0.00
                       o<<<<< Density ab        0.00
                       o<<<<< Spin adapt        0.00
                       o<<<<< Symm adapt        0.00

                       o<<<<< (ab) max sync:      0.00

           >>>| Valence CI:             -1.859401778799
           >>>| MCSCF energy:           -1.169746606385
           >>>| Gradient norm:          0.391414929D-02
     --- Warning:  304 Hessian diagonals < 0.05 ---
     --- Warning: Precondition failed to converge:Residue: current= 0.9D-01 required= 0.3D-01---
 Increase level shift to     0.20
 !! warning - +ve gradient along search direction - Increasing shift     0.90
     --- Conjugacy reset ---

                              ----- Line search ------

        step       energy         lsg     num-lsg   num-lsh   lsrat    time
      ------- ---------------- --------- --------- --------- ------- --------
       0.0000      -1.16974661 -1.70D-06  0.00D+00  0.00D+00 0.0D+00      3.9

          Number of sigma calls:        7
                       o<<<<< (aa):             0.00
                       o<<<<< (bb):             0.00
                       o<<<<< (ab):             0.01
                       o<<<<< (total)           0.01
                       o<<<<< (aa) ff           0.00
                       o<<<<< (aa) gop          0.00
                       o<<<<< (aa) dot          0.00
                       o<<<<< (ab) str          0.00
                       o<<<<< (ab) gath         0.00
                       o<<<<< (ab) dotab        0.00
                       o<<<<< (ab) scat         0.00
                       o<<<<< (ab) sync         0.00
                       o<<<<< Density           0.00
                       o<<<<< Density one       0.00
                       o<<<<< Density two       0.00
                       o<<<<< Density ab        0.00
                       o<<<<< Spin adapt        0.00
                       o<<<<< Symm adapt        0.00

                       o<<<<< (ab) max sync:      0.00
       1.0000      -1.16974783 -7.49D-07 -7.49D-07  9.55D-07 4.4D-01      4.1

          Number of sigma calls:        7
                       o<<<<< (aa):             0.00
                       o<<<<< (bb):             0.00
                       o<<<<< (ab):             0.01
                       o<<<<< (total)           0.01
                       o<<<<< (aa) ff           0.00
                       o<<<<< (aa) gop          0.00
                       o<<<<< (aa) dot          0.00
                       o<<<<< (ab) str          0.00
                       o<<<<< (ab) gath         0.00
                       o<<<<< (ab) dotab        0.00
                       o<<<<< (ab) scat         0.00
                       o<<<<< (ab) sync         0.00
                       o<<<<< Density           0.00
                       o<<<<< Density one       0.00
                       o<<<<< Density two       0.00
                       o<<<<< Density ab        0.00
                       o<<<<< Spin adapt        0.00
                       o<<<<< Symm adapt        0.00

                       o<<<<< (ab) max sync:      0.00
       1.7845      -1.16974813 -2.06D-10 -1.91D-10  9.55D-07 1.2D-04      4.3



          %%%%% MacroIteration   7 %%%%%


          Number of sigma calls:        1
                       o<<<<< (aa):             0.00
                       o<<<<< (bb):             0.00
                       o<<<<< (ab):             0.00
                       o<<<<< (total)           0.00
                       o<<<<< (aa) ff           0.00
                       o<<<<< (aa) gop          0.00
                       o<<<<< (aa) dot          0.00
                       o<<<<< (ab) str          0.00
                       o<<<<< (ab) gath         0.00
                       o<<<<< (ab) dotab        0.00
                       o<<<<< (ab) scat         0.00
                       o<<<<< (ab) sync         0.00
                       o<<<<< Density           0.00
                       o<<<<< Density one       0.00
                       o<<<<< Density two       0.00
                       o<<<<< Density ab        0.00
                       o<<<<< Spin adapt        0.00
                       o<<<<< Symm adapt        0.00

                       o<<<<< (ab) max sync:      0.00

           >>>| Valence CI:             -1.859403299410
           >>>| MCSCF energy:           -1.169748126996
           >>>| Gradient norm:          0.259109467D-02
     --- Warning:  304 Hessian diagonals < 0.05 ---
     --- Warning: Precondition failed to converge:Residue: current= 0.2D+00 required= 0.3D-01---
 Increase level shift to     0.20
 !! warning - +ve gradient along search direction - Increasing shift     0.90
     --- Conjugacy reset ---

                              ----- Line search ------

        step       energy         lsg     num-lsg   num-lsh   lsrat    time
      ------- ---------------- --------- --------- --------- ------- --------
       0.0000      -1.16974813 -1.05D-06  0.00D+00  0.00D+00 0.0D+00      4.9

          Number of sigma calls:        7
                       o<<<<< (aa):             0.00
                       o<<<<< (bb):             0.00
                       o<<<<< (ab):             0.01
                       o<<<<< (total)           0.01
                       o<<<<< (aa) ff           0.00
                       o<<<<< (aa) gop          0.00
                       o<<<<< (aa) dot          0.00
                       o<<<<< (ab) str          0.00
                       o<<<<< (ab) gath         0.00
                       o<<<<< (ab) dotab        0.00
                       o<<<<< (ab) scat         0.00
                       o<<<<< (ab) sync         0.00
                       o<<<<< Density           0.00
                       o<<<<< Density one       0.00
                       o<<<<< Density two       0.00
                       o<<<<< Density ab        0.00
                       o<<<<< Spin adapt        0.00
                       o<<<<< Symm adapt        0.00

                       o<<<<< (ab) max sync:      0.00
       1.0000      -1.16974898 -6.60D-07 -6.60D-07  3.90D-07 6.3D-01      5.1

          Number of sigma calls:        7
                       o<<<<< (aa):             0.00
                       o<<<<< (bb):             0.00
                       o<<<<< (ab):             0.01
                       o<<<<< (total)           0.01
                       o<<<<< (aa) ff           0.00
                       o<<<<< (aa) gop          0.00
                       o<<<<< (aa) dot          0.00
                       o<<<<< (ab) str          0.00
                       o<<<<< (ab) gath         0.00
                       o<<<<< (ab) dotab        0.00
                       o<<<<< (ab) scat         0.00
                       o<<<<< (ab) sync         0.00
                       o<<<<< Density           0.00
                       o<<<<< Density one       0.00
                       o<<<<< Density two       0.00
                       o<<<<< Density ab        0.00
                       o<<<<< Spin adapt        0.00
                       o<<<<< Symm adapt        0.00

                       o<<<<< (ab) max sync:      0.00
       2.6932      -1.16974954 -2.59D-10 -2.31D-10  3.90D-07 2.5D-04      5.3



          %%%%% MacroIteration   8 %%%%%


          Number of sigma calls:        1
                       o<<<<< (aa):             0.00
                       o<<<<< (bb):             0.00
                       o<<<<< (ab):             0.00
                       o<<<<< (total)           0.00
                       o<<<<< (aa) ff           0.00
                       o<<<<< (aa) gop          0.00
                       o<<<<< (aa) dot          0.00
                       o<<<<< (ab) str          0.00
                       o<<<<< (ab) gath         0.00
                       o<<<<< (ab) dotab        0.00
                       o<<<<< (ab) scat         0.00
                       o<<<<< (ab) sync         0.00
                       o<<<<< Density           0.00
                       o<<<<< Density one       0.00
                       o<<<<< Density two       0.00
                       o<<<<< Density ab        0.00
                       o<<<<< Spin adapt        0.00
                       o<<<<< Symm adapt        0.00

                       o<<<<< (ab) max sync:      0.00

           >>>| Valence CI:             -1.859404714228
           >>>| MCSCF energy:           -1.169749541814
           >>>| Gradient norm:          0.373840214D-02
     --- Warning:  308 Hessian diagonals < 0.05 ---
     --- Warning: Precondition failed to converge:Residue: current= 0.9D-01 required= 0.3D-01---
 Increase level shift to     0.20
 !! warning - +ve gradient along search direction - Increasing shift     0.90
     --- Conjugacy reset ---

                              ----- Line search ------

        step       energy         lsg     num-lsg   num-lsh   lsrat    time
      ------- ---------------- --------- --------- --------- ------- --------
       0.0000      -1.16974954 -1.50D-06  0.00D+00  0.00D+00 0.0D+00      5.8

          Number of sigma calls:        7
                       o<<<<< (aa):             0.00
                       o<<<<< (bb):             0.00
                       o<<<<< (ab):             0.01
                       o<<<<< (total)           0.01
                       o<<<<< (aa) ff           0.00
                       o<<<<< (aa) gop          0.00
                       o<<<<< (aa) dot          0.00
                       o<<<<< (ab) str          0.00
                       o<<<<< (ab) gath         0.00
                       o<<<<< (ab) dotab        0.00
                       o<<<<< (ab) scat         0.00
                       o<<<<< (ab) sync         0.00
                       o<<<<< Density           0.00
                       o<<<<< Density one       0.00
                       o<<<<< Density two       0.00
                       o<<<<< Density ab        0.00
                       o<<<<< Spin adapt        0.00
                       o<<<<< Symm adapt        0.00

                       o<<<<< (ab) max sync:      0.00
       1.0000      -1.16975062 -6.64D-07 -6.64D-07  8.36D-07 4.4D-01      6.0

          Number of sigma calls:        7
                       o<<<<< (aa):             0.00
                       o<<<<< (bb):             0.00
                       o<<<<< (ab):             0.01
                       o<<<<< (total)           0.01
                       o<<<<< (aa) ff           0.00
                       o<<<<< (aa) gop          0.00
                       o<<<<< (aa) dot          0.00
                       o<<<<< (ab) str          0.00
                       o<<<<< (ab) gath         0.00
                       o<<<<< (ab) dotab        0.00
                       o<<<<< (ab) scat         0.00
                       o<<<<< (ab) sync         0.00
                       o<<<<< Density           0.00
                       o<<<<< Density one       0.00
                       o<<<<< Density two       0.00
                       o<<<<< Density ab        0.00
                       o<<<<< Spin adapt        0.00
                       o<<<<< Symm adapt        0.00

                       o<<<<< (ab) max sync:      0.00
       1.7937      -1.16975089 -2.00D-10 -1.85D-10  8.36D-07 1.3D-04      6.2



          %%%%% MacroIteration   9 %%%%%


          Number of sigma calls:        1
                       o<<<<< (aa):             0.00
                       o<<<<< (bb):             0.00
                       o<<<<< (ab):             0.00
                       o<<<<< (total)           0.00
                       o<<<<< (aa) ff           0.00
                       o<<<<< (aa) gop          0.00
                       o<<<<< (aa) dot          0.00
                       o<<<<< (ab) str          0.00
                       o<<<<< (ab) gath         0.00
                       o<<<<< (ab) dotab        0.00
                       o<<<<< (ab) scat         0.00
                       o<<<<< (ab) sync         0.00
                       o<<<<< Density           0.00
                       o<<<<< Density one       0.00
                       o<<<<< Density two       0.00
                       o<<<<< Density ab        0.00
                       o<<<<< Spin adapt        0.00
                       o<<<<< Symm adapt        0.00

                       o<<<<< (ab) max sync:      0.00

           >>>| Valence CI:             -1.859406059616
           >>>| MCSCF energy:           -1.169750887203
           >>>| Gradient norm:          0.253385102D-02
     --- Warning:  308 Hessian diagonals < 0.05 ---
     --- Warning: Precondition failed to converge:Residue: current= 0.2D+00 required= 0.3D-01---
 Increase level shift to     0.20
 !! warning - +ve gradient along search direction - Increasing shift     0.90
     --- Conjugacy reset ---

                              ----- Line search ------

        step       energy         lsg     num-lsg   num-lsh   lsrat    time
      ------- ---------------- --------- --------- --------- ------- --------
       0.0000      -1.16975089 -9.62D-07  0.00D+00  0.00D+00 0.0D+00      6.9

          Number of sigma calls:        7
                       o<<<<< (aa):             0.00
                       o<<<<< (bb):             0.00
                       o<<<<< (ab):             0.01
                       o<<<<< (total)           0.01
                       o<<<<< (aa) ff           0.00
                       o<<<<< (aa) gop          0.00
                       o<<<<< (aa) dot          0.00
                       o<<<<< (ab) str          0.00
                       o<<<<< (ab) gath         0.00
                       o<<<<< (ab) dotab        0.00
                       o<<<<< (ab) scat         0.00
                       o<<<<< (ab) sync         0.00
                       o<<<<< Density           0.00
                       o<<<<< Density one       0.00
                       o<<<<< Density two       0.00
                       o<<<<< Density ab        0.00
                       o<<<<< Spin adapt        0.00
                       o<<<<< Symm adapt        0.00

                       o<<<<< (ab) max sync:      0.00
       1.0000      -1.16975167 -6.05D-07 -6.05D-07  3.56D-07 6.3D-01      7.1

          Number of sigma calls:        7
                       o<<<<< (aa):             0.00
                       o<<<<< (bb):             0.00
                       o<<<<< (ab):             0.01
                       o<<<<< (total)           0.01
                       o<<<<< (aa) ff           0.00
                       o<<<<< (aa) gop          0.00
                       o<<<<< (aa) dot          0.00
                       o<<<<< (ab) str          0.00
                       o<<<<< (ab) gath         0.00
                       o<<<<< (ab) dotab        0.00
                       o<<<<< (ab) scat         0.00
                       o<<<<< (ab) sync         0.00
                       o<<<<< Density           0.00
                       o<<<<< Density one       0.00
                       o<<<<< Density two       0.00
                       o<<<<< Density ab        0.00
                       o<<<<< Spin adapt        0.00
                       o<<<<< Symm adapt        0.00

                       o<<<<< (ab) max sync:      0.00
       2.6998      -1.16975219 -2.72D-10 -2.43D-10  3.56D-07 2.8D-04      7.3



          %%%%% MacroIteration  10 %%%%%


          Number of sigma calls:        1
                       o<<<<< (aa):             0.00
                       o<<<<< (bb):             0.00
                       o<<<<< (ab):             0.00
                       o<<<<< (total)           0.00
                       o<<<<< (aa) ff           0.00
                       o<<<<< (aa) gop          0.00
                       o<<<<< (aa) dot          0.00
                       o<<<<< (ab) str          0.00
                       o<<<<< (ab) gath         0.00
                       o<<<<< (ab) dotab        0.00
                       o<<<<< (ab) scat         0.00
                       o<<<<< (ab) sync         0.00
                       o<<<<< Density           0.00
                       o<<<<< Density one       0.00
                       o<<<<< Density two       0.00
                       o<<<<< Density ab        0.00
                       o<<<<< Spin adapt        0.00
                       o<<<<< Symm adapt        0.00

                       o<<<<< (ab) max sync:      0.00

           >>>| Valence CI:             -1.859407357985
           >>>| MCSCF energy:           -1.169752185571
           >>>| Gradient norm:          0.371114625D-02
     --- Warning:  308 Hessian diagonals < 0.05 ---
     --- Warning: Precondition failed to converge:Residue: current= 0.1D+00 required= 0.3D-01---
 Increase level shift to     0.20
 !! warning - +ve gradient along search direction - Increasing shift     0.90
     --- Conjugacy reset ---

                              ----- Line search ------

        step       energy         lsg     num-lsg   num-lsh   lsrat    time
      ------- ---------------- --------- --------- --------- ------- --------
       0.0000      -1.16975219 -1.41D-06  0.00D+00  0.00D+00 0.0D+00      8.0

          Number of sigma calls:        7
                       o<<<<< (aa):             0.00
                       o<<<<< (bb):             0.00
                       o<<<<< (ab):             0.00
                       o<<<<< (total)           0.00
                       o<<<<< (aa) ff           0.00
                       o<<<<< (aa) gop          0.00
                       o<<<<< (aa) dot          0.00
                       o<<<<< (ab) str          0.00
                       o<<<<< (ab) gath         0.00
                       o<<<<< (ab) dotab        0.00
                       o<<<<< (ab) scat         0.00
                       o<<<<< (ab) sync         0.00
                       o<<<<< Density           0.00
                       o<<<<< Density one       0.00
                       o<<<<< Density two       0.00
                       o<<<<< Density ab        0.00
                       o<<<<< Spin adapt        0.00
                       o<<<<< Symm adapt        0.00

                       o<<<<< (ab) max sync:      0.00
       1.0000      -1.16975320 -6.22D-07 -6.22D-07  7.84D-07 4.4D-01      8.1

          Number of sigma calls:        7
                       o<<<<< (aa):             0.00
                       o<<<<< (bb):             0.00
                       o<<<<< (ab):             0.01
                       o<<<<< (total)           0.01
                       o<<<<< (aa) ff           0.00
                       o<<<<< (aa) gop          0.00
                       o<<<<< (aa) dot          0.00
                       o<<<<< (ab) str          0.00
                       o<<<<< (ab) gath         0.00
                       o<<<<< (ab) dotab        0.00
                       o<<<<< (ab) scat         0.00
                       o<<<<< (ab) sync         0.00
                       o<<<<< Density           0.00
                       o<<<<< Density one       0.00
                       o<<<<< Density two       0.00
                       o<<<<< Density ab        0.00
                       o<<<<< Spin adapt        0.00
                       o<<<<< Symm adapt        0.00

                       o<<<<< (ab) max sync:      0.00
       1.7929      -1.16975345 -1.95D-10 -1.81D-10  7.84D-07 1.4D-04      8.2



          %%%%% MacroIteration  11 %%%%%


          Number of sigma calls:        1
                       o<<<<< (aa):             0.00
                       o<<<<< (bb):             0.00
                       o<<<<< (ab):             0.00
                       o<<<<< (total)           0.00
                       o<<<<< (aa) ff           0.00
                       o<<<<< (aa) gop          0.00
                       o<<<<< (aa) dot          0.00
                       o<<<<< (ab) str          0.00
                       o<<<<< (ab) gath         0.00
                       o<<<<< (ab) dotab        0.00
                       o<<<<< (ab) scat         0.00
                       o<<<<< (ab) sync         0.00
                       o<<<<< Density           0.00
                       o<<<<< Density one       0.00
                       o<<<<< Density two       0.00
                       o<<<<< Density ab        0.00
                       o<<<<< Spin adapt        0.00
                       o<<<<< Symm adapt        0.00

                       o<<<<< (ab) max sync:      0.00

           >>>| Valence CI:             -1.859408618440
           >>>| MCSCF energy:           -1.169753446026
           >>>| Gradient norm:          0.253388480D-02
     --- Warning:  308 Hessian diagonals < 0.05 ---
     --- Warning: Precondition failed to converge:Residue: current= 0.2D+00 required= 0.3D-01---
 Increase level shift to     0.20
 !! warning - +ve gradient along search direction - Increasing shift     0.90
     --- Conjugacy reset ---

                              ----- Line search ------

        step       energy         lsg     num-lsg   num-lsh   lsrat    time
      ------- ---------------- --------- --------- --------- ------- --------
       0.0000      -1.16975345 -9.13D-07  0.00D+00  0.00D+00 0.0D+00      9.0

          Number of sigma calls:        7
                       o<<<<< (aa):             0.00
                       o<<<<< (bb):             0.00
                       o<<<<< (ab):             0.00
                       o<<<<< (total)           0.00
                       o<<<<< (aa) ff           0.00
                       o<<<<< (aa) gop          0.00
                       o<<<<< (aa) dot          0.00
                       o<<<<< (ab) str          0.00
                       o<<<<< (ab) gath         0.00
                       o<<<<< (ab) dotab        0.00
                       o<<<<< (ab) scat         0.00
                       o<<<<< (ab) sync         0.00
                       o<<<<< Density           0.00
                       o<<<<< Density one       0.00
                       o<<<<< Density two       0.00
                       o<<<<< Density ab        0.00
                       o<<<<< Spin adapt        0.00
                       o<<<<< Symm adapt        0.00

                       o<<<<< (ab) max sync:      0.00
       1.0000      -1.16975419 -5.74D-07 -5.74D-07  3.38D-07 6.3D-01      9.1

          Number of sigma calls:        7
                       o<<<<< (aa):             0.00
                       o<<<<< (bb):             0.00
                       o<<<<< (ab):             0.01
                       o<<<<< (total)           0.01
                       o<<<<< (aa) ff           0.00
                       o<<<<< (aa) gop          0.00
                       o<<<<< (aa) dot          0.00
                       o<<<<< (ab) str          0.00
                       o<<<<< (ab) gath         0.00
                       o<<<<< (ab) dotab        0.00
                       o<<<<< (ab) scat         0.00
                       o<<<<< (ab) sync         0.00
                       o<<<<< Density           0.00
                       o<<<<< Density one       0.00
                       o<<<<< Density two       0.00
                       o<<<<< Density ab        0.00
                       o<<<<< Spin adapt        0.00
                       o<<<<< Symm adapt        0.00

                       o<<<<< (ab) max sync:      0.00
       2.6983      -1.16975468 -2.71D-10 -2.42D-10  3.38D-07 3.0D-04      9.2
     --- Orbitals canonicalized ---



          %%%%% MacroIteration  12 %%%%%


          Number of sigma calls:        9
                       o<<<<< (aa):             0.00
                       o<<<<< (bb):             0.00
                       o<<<<< (ab):             0.01
                       o<<<<< (total)           0.01
                       o<<<<< (aa) ff           0.00
                       o<<<<< (aa) gop          0.00
                       o<<<<< (aa) dot          0.00
                       o<<<<< (ab) str          0.00
                       o<<<<< (ab) gath         0.00
                       o<<<<< (ab) dotab        0.00
                       o<<<<< (ab) scat         0.00
                       o<<<<< (ab) sync         0.00
                       o<<<<< Density           0.00
                       o<<<<< Density one       0.00
                       o<<<<< Density two       0.00
                       o<<<<< Density ab        0.00
                       o<<<<< Spin adapt        0.00
                       o<<<<< Symm adapt        0.00

                       o<<<<< (ab) max sync:      0.00

           >>>| Valence CI:             -1.859409849752
           >>>| MCSCF energy:           -1.169754677339
           >>>| Gradient norm:          0.374382654D-02
     --- Warning:  308 Hessian diagonals < 0.05 ---
     --- Warning: Precondition failed to converge:Residue: current= 0.1D+00 required= 0.3D-01---
 Increase level shift to     0.20
     --- Conjugacy reset ---

                              ----- Line search ------

        step       energy         lsg     num-lsg   num-lsh   lsrat    time
      ------- ---------------- --------- --------- --------- ------- --------
       0.0000      -1.16975468 -3.25D-06  0.00D+00  0.00D+00 0.0D+00      9.8

          Number of sigma calls:        7
                       o<<<<< (aa):             0.00
                       o<<<<< (bb):             0.00
                       o<<<<< (ab):             0.01
                       o<<<<< (total)           0.01
                       o<<<<< (aa) ff           0.00
                       o<<<<< (aa) gop          0.00
                       o<<<<< (aa) dot          0.00
                       o<<<<< (ab) str          0.00
                       o<<<<< (ab) gath         0.00
                       o<<<<< (ab) dotab        0.00
                       o<<<<< (ab) scat         0.00
                       o<<<<< (ab) sync         0.00
                       o<<<<< Density           0.00
                       o<<<<< Density one       0.00
                       o<<<<< Density two       0.00
                       o<<<<< Density ab        0.00
                       o<<<<< Spin adapt        0.00
                       o<<<<< Symm adapt        0.00

                       o<<<<< (ab) max sync:      0.00
       1.0000      -1.16975749 -2.38D-06 -2.38D-06  8.65D-07 7.3D-01      9.9

          Number of sigma calls:        7
                       o<<<<< (aa):             0.00
                       o<<<<< (bb):             0.00
                       o<<<<< (ab):             0.01
                       o<<<<< (total)           0.01
                       o<<<<< (aa) ff           0.00
                       o<<<<< (aa) gop          0.00
                       o<<<<< (aa) dot          0.00
                       o<<<<< (ab) str          0.00
                       o<<<<< (ab) gath         0.00
                       o<<<<< (ab) dotab        0.00
                       o<<<<< (ab) scat         0.00
                       o<<<<< (ab) sync         0.00
                       o<<<<< Density           0.00
                       o<<<<< Density one       0.00
                       o<<<<< Density two       0.00
                       o<<<<< Density ab        0.00
                       o<<<<< Spin adapt        0.00
                       o<<<<< Symm adapt        0.00

                       o<<<<< (ab) max sync:      0.00
       3.7549      -1.16976078 -8.17D-09 -7.13D-09  8.62D-07 2.5D-03     10.2



          %%%%% MacroIteration  13 %%%%%


          Number of sigma calls:        1
                       o<<<<< (aa):             0.00
                       o<<<<< (bb):             0.00
                       o<<<<< (ab):             0.00
                       o<<<<< (total)           0.00
                       o<<<<< (aa) ff           0.00
                       o<<<<< (aa) gop          0.00
                       o<<<<< (aa) dot          0.00
                       o<<<<< (ab) str          0.00
                       o<<<<< (ab) gath         0.00
                       o<<<<< (ab) dotab        0.00
                       o<<<<< (ab) scat         0.00
                       o<<<<< (ab) sync         0.00
                       o<<<<< Density           0.00
                       o<<<<< Density one       0.00
                       o<<<<< Density two       0.00
                       o<<<<< Density ab        0.00
                       o<<<<< Spin adapt        0.00
                       o<<<<< Symm adapt        0.00

                       o<<<<< (ab) max sync:      0.00

           >>>| Valence CI:             -1.859415956878
           >>>| MCSCF energy:           -1.169760784464
           >>>| Gradient norm:          0.980160816D-02
     --- Warning:  308 Hessian diagonals < 0.05 ---
     --- Warning: Precondition failed to converge:Residue: current= 0.5D-01 required= 0.3D-01---
 !! warning - +ve gradient along search direction - Increasing shift     0.50
     --- Conjugacy reset ---

                              ----- Line search ------

        step       energy         lsg     num-lsg   num-lsh   lsrat    time
      ------- ---------------- --------- --------- --------- ------- --------
       0.0000      -1.16976078 -6.72D-06  0.00D+00  0.00D+00 0.0D+00     10.8

          Number of sigma calls:        8
                       o<<<<< (aa):             0.00
                       o<<<<< (bb):             0.00
                       o<<<<< (ab):             0.00
                       o<<<<< (total)           0.00
                       o<<<<< (aa) ff           0.00
                       o<<<<< (aa) gop          0.00
                       o<<<<< (aa) dot          0.00
                       o<<<<< (ab) str          0.00
                       o<<<<< (ab) gath         0.00
                       o<<<<< (ab) dotab        0.00
                       o<<<<< (ab) scat         0.00
                       o<<<<< (ab) sync         0.00
                       o<<<<< Density           0.00
                       o<<<<< Density one       0.00
                       o<<<<< Density two       0.00
                       o<<<<< Density ab        0.00
                       o<<<<< Spin adapt        0.00
                       o<<<<< Symm adapt        0.00

                       o<<<<< (ab) max sync:      0.00
       1.0000      -1.16976475 -1.20D-06 -1.20D-06  5.52D-06 1.8D-01     10.9

          Number of sigma calls:        7
                       o<<<<< (aa):             0.00
                       o<<<<< (bb):             0.00
                       o<<<<< (ab):             0.01
                       o<<<<< (total)           0.01
                       o<<<<< (aa) ff           0.00
                       o<<<<< (aa) gop          0.00
                       o<<<<< (aa) dot          0.00
                       o<<<<< (ab) str          0.00
                       o<<<<< (ab) gath         0.00
                       o<<<<< (ab) dotab        0.00
                       o<<<<< (ab) scat         0.00
                       o<<<<< (ab) sync         0.00
                       o<<<<< Density           0.00
                       o<<<<< Density one       0.00
                       o<<<<< Density two       0.00
                       o<<<<< Density ab        0.00
                       o<<<<< Spin adapt        0.00
                       o<<<<< Symm adapt        0.00

                       o<<<<< (ab) max sync:      0.00
       1.2176      -1.16976488 -5.37D-10 -5.20D-10  5.52D-06 8.0D-05     11.1



          %%%%% MacroIteration  14 %%%%%


          Number of sigma calls:        1
                       o<<<<< (aa):             0.00
                       o<<<<< (bb):             0.00
                       o<<<<< (ab):             0.00
                       o<<<<< (total)           0.00
                       o<<<<< (aa) ff           0.00
                       o<<<<< (aa) gop          0.00
                       o<<<<< (aa) dot          0.00
                       o<<<<< (ab) str          0.00
                       o<<<<< (ab) gath         0.00
                       o<<<<< (ab) dotab        0.00
                       o<<<<< (ab) scat         0.00
                       o<<<<< (ab) sync         0.00
                       o<<<<< Density           0.00
                       o<<<<< Density one       0.00
                       o<<<<< Density two       0.00
                       o<<<<< Density ab        0.00
                       o<<<<< Spin adapt        0.00
                       o<<<<< Symm adapt        0.00

                       o<<<<< (ab) max sync:      0.00

           >>>| Valence CI:             -1.859420048702
           >>>| MCSCF energy:           -1.169764876288
           >>>| Gradient norm:          0.177948265D-02
     --- Warning:  308 Hessian diagonals < 0.05 ---
     --- Warning: Precondition failed to converge:Residue: current= 0.2D+00 required= 0.3D-01---
 Increase level shift to     0.20
 !! warning - +ve gradient along search direction - Increasing shift     0.90
     --- Conjugacy reset ---

                              ----- Line search ------

        step       energy         lsg     num-lsg   num-lsh   lsrat    time
      ------- ---------------- --------- --------- --------- ------- --------
       0.0000      -1.16976488 -6.35D-07  0.00D+00  0.00D+00 0.0D+00     11.8

          Number of sigma calls:        6
                       o<<<<< (aa):             0.00
                       o<<<<< (bb):             0.00
                       o<<<<< (ab):             0.01
                       o<<<<< (total)           0.01
                       o<<<<< (aa) ff           0.00
                       o<<<<< (aa) gop          0.00
                       o<<<<< (aa) dot          0.00
                       o<<<<< (ab) str          0.00
                       o<<<<< (ab) gath         0.00
                       o<<<<< (ab) dotab        0.00
                       o<<<<< (ab) scat         0.00
                       o<<<<< (ab) sync         0.00
                       o<<<<< Density           0.00
                       o<<<<< Density one       0.00
                       o<<<<< Density two       0.00
                       o<<<<< Density ab        0.00
                       o<<<<< Spin adapt        0.00
                       o<<<<< Symm adapt        0.00

                       o<<<<< (ab) max sync:      0.00
       1.0000      -1.16976544 -5.01D-07 -5.01D-07  1.34D-07 7.9D-01     12.0

          Number of sigma calls:        7
                       o<<<<< (aa):             0.00
                       o<<<<< (bb):             0.00
                       o<<<<< (ab):             0.01
                       o<<<<< (total)           0.01
                       o<<<<< (aa) ff           0.00
                       o<<<<< (aa) gop          0.00
                       o<<<<< (aa) dot          0.00
                       o<<<<< (ab) str          0.00
                       o<<<<< (ab) gath         0.00
                       o<<<<< (ab) dotab        0.00
                       o<<<<< (ab) scat         0.00
                       o<<<<< (ab) sync         0.00
                       o<<<<< Density           0.00
                       o<<<<< Density one       0.00
                       o<<<<< Density two       0.00
                       o<<<<< Density ab        0.00
                       o<<<<< Spin adapt        0.00
                       o<<<<< Symm adapt        0.00

                       o<<<<< (ab) max sync:      0.00
       4.7401      -1.16976638 -4.09D-10 -3.54D-10  1.34D-07 6.4D-04     12.1



          %%%%% MacroIteration  15 %%%%%


          Number of sigma calls:        1
                       o<<<<< (aa):             0.00
                       o<<<<< (bb):             0.00
                       o<<<<< (ab):             0.00
                       o<<<<< (total)           0.00
                       o<<<<< (aa) ff           0.00
                       o<<<<< (aa) gop          0.00
                       o<<<<< (aa) dot          0.00
                       o<<<<< (ab) str          0.00
                       o<<<<< (ab) gath         0.00
                       o<<<<< (ab) dotab        0.00
                       o<<<<< (ab) scat         0.00
                       o<<<<< (ab) sync         0.00
                       o<<<<< Density           0.00
                       o<<<<< Density one       0.00
                       o<<<<< Density two       0.00
                       o<<<<< Density ab        0.00
                       o<<<<< Spin adapt        0.00
                       o<<<<< Symm adapt        0.00

                       o<<<<< (ab) max sync:      0.00

           >>>| Valence CI:             -1.859421554653
           >>>| MCSCF energy:           -1.169766382239
           >>>| Gradient norm:          0.575196429D-02
     --- Warning:  308 Hessian diagonals < 0.05 ---
     --- Warning: Precondition failed to converge:Residue: current= 0.8D-01 required= 0.3D-01---
 Increase level shift to     0.20
 !! warning - +ve gradient along search direction - Increasing shift     0.90
     --- Conjugacy reset ---

                              ----- Line search ------

        step       energy         lsg     num-lsg   num-lsh   lsrat    time
      ------- ---------------- --------- --------- --------- ------- --------
       0.0000      -1.16976638 -2.17D-06  0.00D+00  0.00D+00 0.0D+00     12.7

          Number of sigma calls:        7
                       o<<<<< (aa):             0.00
                       o<<<<< (bb):             0.00
                       o<<<<< (ab):             0.01
                       o<<<<< (total)           0.01
                       o<<<<< (aa) ff           0.00
                       o<<<<< (aa) gop          0.00
                       o<<<<< (aa) dot          0.00
                       o<<<<< (ab) str          0.00
                       o<<<<< (ab) gath         0.00
                       o<<<<< (ab) dotab        0.00
                       o<<<<< (ab) scat         0.00
                       o<<<<< (ab) sync         0.00
                       o<<<<< Density           0.00
                       o<<<<< Density one       0.00
                       o<<<<< Density two       0.00
                       o<<<<< Density ab        0.00
                       o<<<<< Spin adapt        0.00
                       o<<<<< Symm adapt        0.00

                       o<<<<< (ab) max sync:      0.00
       1.0000      -1.16976777 -5.97D-07 -5.97D-07  1.58D-06 2.7D-01     12.9

          Number of sigma calls:        6
                       o<<<<< (aa):             0.00
                       o<<<<< (bb):             0.00
                       o<<<<< (ab):             0.00
                       o<<<<< (total)           0.00
                       o<<<<< (aa) ff           0.00
                       o<<<<< (aa) gop          0.00
                       o<<<<< (aa) dot          0.00
                       o<<<<< (ab) str          0.00
                       o<<<<< (ab) gath         0.00
                       o<<<<< (ab) dotab        0.00
                       o<<<<< (ab) scat         0.00
                       o<<<<< (ab) sync         0.00
                       o<<<<< Density           0.00
                       o<<<<< Density one       0.00
                       o<<<<< Density two       0.00
                       o<<<<< Density ab        0.00
                       o<<<<< Spin adapt        0.00
                       o<<<<< Symm adapt        0.00

                       o<<<<< (ab) max sync:      0.00
       1.3785      -1.16976788 -1.42D-10 -1.35D-10  1.58D-06 6.5D-05     12.9



          %%%%% MacroIteration  16 %%%%%


          Number of sigma calls:        1
                       o<<<<< (aa):             0.00
                       o<<<<< (bb):             0.00
                       o<<<<< (ab):             0.00
                       o<<<<< (total)           0.00
                       o<<<<< (aa) ff           0.00
                       o<<<<< (aa) gop          0.00
                       o<<<<< (aa) dot          0.00
                       o<<<<< (ab) str          0.00
                       o<<<<< (ab) gath         0.00
                       o<<<<< (ab) dotab        0.00
                       o<<<<< (ab) scat         0.00
                       o<<<<< (ab) sync         0.00
                       o<<<<< Density           0.00
                       o<<<<< Density one       0.00
                       o<<<<< Density two       0.00
                       o<<<<< Density ab        0.00
                       o<<<<< Spin adapt        0.00
                       o<<<<< Symm adapt        0.00

                       o<<<<< (ab) max sync:      0.00

           >>>| Valence CI:             -1.859423053284
           >>>| MCSCF energy:           -1.169767880870
           >>>| Gradient norm:          0.183756889D-02
     --- Warning:  308 Hessian diagonals < 0.05 ---
     --- Warning: Precondition failed to converge:Residue: current= 0.2D+00 required= 0.3D-01---
 Increase level shift to     0.20
 !! warning - +ve gradient along search direction - Increasing shift     0.90
     --- Conjugacy reset ---

                              ----- Line search ------

        step       energy         lsg     num-lsg   num-lsh   lsrat    time
      ------- ---------------- --------- --------- --------- ------- --------
       0.0000      -1.16976788 -6.31D-07  0.00D+00  0.00D+00 0.0D+00     13.6

          Number of sigma calls:        6
                       o<<<<< (aa):             0.00
                       o<<<<< (bb):             0.00
                       o<<<<< (ab):             0.01
                       o<<<<< (total)           0.01
                       o<<<<< (aa) ff           0.00
                       o<<<<< (aa) gop          0.00
                       o<<<<< (aa) dot          0.00
                       o<<<<< (ab) str          0.00
                       o<<<<< (ab) gath         0.00
                       o<<<<< (ab) dotab        0.00
                       o<<<<< (ab) scat         0.00
                       o<<<<< (ab) sync         0.00
                       o<<<<< Density           0.00
                       o<<<<< Density one       0.00
                       o<<<<< Density two       0.00
                       o<<<<< Density ab        0.00
                       o<<<<< Spin adapt        0.00
                       o<<<<< Symm adapt        0.00

                       o<<<<< (ab) max sync:      0.00
       1.0000      -1.16976844 -4.96D-07 -4.96D-07  1.35D-07 7.9D-01     13.8

          Number of sigma calls:        7
                       o<<<<< (aa):             0.00
                       o<<<<< (bb):             0.00
                       o<<<<< (ab):             0.01
                       o<<<<< (total)           0.01
                       o<<<<< (aa) ff           0.00
                       o<<<<< (aa) gop          0.00
                       o<<<<< (aa) dot          0.00
                       o<<<<< (ab) str          0.00
                       o<<<<< (ab) gath         0.00
                       o<<<<< (ab) dotab        0.00
                       o<<<<< (ab) scat         0.00
                       o<<<<< (ab) sync         0.00
                       o<<<<< Density           0.00
                       o<<<<< Density one       0.00
                       o<<<<< Density two       0.00
                       o<<<<< Density ab        0.00
                       o<<<<< Spin adapt        0.00
                       o<<<<< Symm adapt        0.00

                       o<<<<< (ab) max sync:      0.00
       4.6718      -1.16976936 -3.75D-10 -3.25D-10  1.35D-07 5.9D-04     13.9



          %%%%% MacroIteration  17 %%%%%


          Number of sigma calls:        1
                       o<<<<< (aa):             0.00
                       o<<<<< (bb):             0.00
                       o<<<<< (ab):             0.00
                       o<<<<< (total)           0.00
                       o<<<<< (aa) ff           0.00
                       o<<<<< (aa) gop          0.00
                       o<<<<< (aa) dot          0.00
                       o<<<<< (ab) str          0.00
                       o<<<<< (ab) gath         0.00
                       o<<<<< (ab) dotab        0.00
                       o<<<<< (ab) scat         0.00
                       o<<<<< (ab) sync         0.00
                       o<<<<< Density           0.00
                       o<<<<< Density one       0.00
                       o<<<<< Density two       0.00
                       o<<<<< Density ab        0.00
                       o<<<<< Spin adapt        0.00
                       o<<<<< Symm adapt        0.00

                       o<<<<< (ab) max sync:      0.00

           >>>| Valence CI:             -1.859424528860
           >>>| MCSCF energy:           -1.169769356446
           >>>| Gradient norm:          0.589602125D-02
     --- Warning:  308 Hessian diagonals < 0.05 ---
     --- Warning: Precondition failed to converge:Residue: current= 0.8D-01 required= 0.3D-01---
 Increase level shift to     0.20
 !! warning - +ve gradient along search direction - Increasing shift     0.90
     --- Conjugacy reset ---

                              ----- Line search ------

        step       energy         lsg     num-lsg   num-lsh   lsrat    time
      ------- ---------------- --------- --------- --------- ------- --------
       0.0000      -1.16976936 -2.14D-06  0.00D+00  0.00D+00 0.0D+00     14.3

          Number of sigma calls:        7
                       o<<<<< (aa):             0.00
                       o<<<<< (bb):             0.00
                       o<<<<< (ab):             0.01
                       o<<<<< (total)           0.01
                       o<<<<< (aa) ff           0.00
                       o<<<<< (aa) gop          0.00
                       o<<<<< (aa) dot          0.00
                       o<<<<< (ab) str          0.00
                       o<<<<< (ab) gath         0.00
                       o<<<<< (ab) dotab        0.00
                       o<<<<< (ab) scat         0.00
                       o<<<<< (ab) sync         0.00
                       o<<<<< Density           0.00
                       o<<<<< Density one       0.00
                       o<<<<< Density two       0.00
                       o<<<<< Density ab        0.00
                       o<<<<< Spin adapt        0.00
                       o<<<<< Symm adapt        0.00

                       o<<<<< (ab) max sync:      0.00
       1.0000      -1.16977072 -5.84D-07 -5.84D-07  1.55D-06 2.7D-01     14.5

          Number of sigma calls:        6
                       o<<<<< (aa):             0.00
                       o<<<<< (bb):             0.00
                       o<<<<< (ab):             0.01
                       o<<<<< (total)           0.01
                       o<<<<< (aa) ff           0.00
                       o<<<<< (aa) gop          0.00
                       o<<<<< (aa) dot          0.00
                       o<<<<< (ab) str          0.00
                       o<<<<< (ab) gath         0.00
                       o<<<<< (ab) dotab        0.00
                       o<<<<< (ab) scat         0.00
                       o<<<<< (ab) sync         0.00
                       o<<<<< Density           0.00
                       o<<<<< Density one       0.00
                       o<<<<< Density two       0.00
                       o<<<<< Density ab        0.00
                       o<<<<< Spin adapt        0.00
                       o<<<<< Symm adapt        0.00

                       o<<<<< (ab) max sync:      0.00
       1.3763      -1.16977083 -1.29D-10 -1.23D-10  1.55D-06 6.0D-05     14.7



          %%%%% MacroIteration  18 %%%%%


          Number of sigma calls:        1
                       o<<<<< (aa):             0.00
                       o<<<<< (bb):             0.00
                       o<<<<< (ab):             0.00
                       o<<<<< (total)           0.00
                       o<<<<< (aa) ff           0.00
                       o<<<<< (aa) gop          0.00
                       o<<<<< (aa) dot          0.00
                       o<<<<< (ab) str          0.00
                       o<<<<< (ab) gath         0.00
                       o<<<<< (ab) dotab        0.00
                       o<<<<< (ab) scat         0.00
                       o<<<<< (ab) sync         0.00
                       o<<<<< Density           0.00
                       o<<<<< Density one       0.00
                       o<<<<< Density two       0.00
                       o<<<<< Density ab        0.00
                       o<<<<< Spin adapt        0.00
                       o<<<<< Symm adapt        0.00

                       o<<<<< (ab) max sync:      0.00

           >>>| Valence CI:             -1.859425999622
           >>>| MCSCF energy:           -1.169770827208
           >>>| Gradient norm:          0.189749187D-02
     --- Warning:  308 Hessian diagonals < 0.05 ---
     --- Warning: Precondition failed to converge:Residue: current= 0.2D+00 required= 0.3D-01---
 Increase level shift to     0.20
[...]
    9    1    2    4        0.0050371964
    9    1    2    5        0.0480056487
    9    2    2    9        0.1051348057
    9    3    2    4        0.0004601564
    9    3    2    5        0.0043853970
    9    4    2    1        0.0128837248
    9    4    2    3        0.0016160467
    9    4    2    6        0.0096094080
    9    4    2   10        0.0021669897
    9    5    2    1        0.1227848818
    9    5    2    3        0.0154012995
    9    5    2    6        0.0915798842
    9    5    2   10        0.0206519138
    9    6    2    4        0.0017692539
    9    6    2    5        0.0168613995
    9    7    2    9        0.0131237827
    9    9    2    2        0.6463540510
    9    9    2    7        0.1287298133
    9   10    2    4        0.0020409069
    9   10    2    5        0.0194503159
    9    1    3    9        0.0076464182
    9    2    3    4        0.0007458914
    9    2    3    5        0.0071085182
    9    3    3    9        0.0152424413
    9    4    3    2        0.0016160465
    9    4    3    7        0.0097289865
    9    5    3    2        0.0154012974
    9    5    3    7        0.0927194951
    9    6    3    9        0.0016302833
    9    7    3    4        0.0023516363
    9    7    3    5        0.0224116383
    9    9    3    1        0.1422379063
    9    9    3    3        0.5417241651
    9    9    3    6       -0.0241220905
    9    9    3   10       -0.1367986022
    9   10    3    9       -0.0002749431
    9    1    4    2        0.0050316914
    9    1    4    7        0.0006610658
    9    2    4    1        0.0100194984
    9    2    4    3        0.0007458913
    9    2    4    6       -0.0023656643
    9    2    4   10        0.0041421086
    9    3    4    2        0.0004601560
    9    3    4    7        0.0015146682
    9    4    4    8        0.0109342572
    9    4    4    9        0.0169273414
    9    5    4    8        0.0884259289
    9    5    4    9        0.0109342572
    9    6    4    2        0.0017692578
    9    6    4    7        0.0001289897
    9    7    4    1        0.0014235139
    9    7    4    3        0.0023516367
    9    7    4    6       -0.0004121928
    9    7    4   10       -0.0000170564
    9    8    4    4        0.0053545964
    9    8    4    5        0.0252343165
    9    9    4    4        0.5752070460
    9    9    4    5        0.0053545964
    9   10    4    2        0.0020409085
    9   10    4    7       -0.0000785292
    9    1    5    2        0.0479531846
    9    1    5    7        0.0063001101
    9    2    5    1        0.0954881408
    9    2    5    3        0.0071085167
    9    2    5    6       -0.0225453284
    9    2    5   10        0.0394752546
    9    3    5    2        0.0043853934
    9    3    5    7        0.0144351390
    9    4    5    8        0.0146327516
    9    4    5    9        0.0109342572
    9    5    5    8       -0.0109342572
    9    5    5    9        0.1199860219
    9    6    5    2        0.0168614364
    9    6    5    7        0.0012293021
    9    7    5    1        0.0135664173
    9    7    5    3        0.0224116425
    9    7    5    6       -0.0039282933
    9    7    5   10       -0.0001625519
    9    8    5    4        0.0252343734
    9    8    5    5       -0.0053545964
    9    9    5    4        0.0053545964
    9    9    5    5        0.6256757359
    9   10    5    2        0.0194503310
    9   10    5    7       -0.0007484010
    9    1    6    9        0.0227046030
    9    2    6    4       -0.0023656666
    9    2    6    5       -0.0225453506
    9    3    6    9        0.0016302833
    9    4    6    2        0.0096094095
    9    4    6    7        0.0018691155
    9    5    6    2        0.0915798988
    9    5    6    7        0.0178131039
    9    6    6    9        0.0244864379
    9    7    6    4       -0.0004121944
    9    7    6    5       -0.0039283081
    9    9    6    1        0.0308408888
    9    9    6    3       -0.0241220905
    9    9    6    6        0.6492797326
    9    9    6   10        0.0148262945
    9   10    6    9        0.0081546379
    9    1    7    4        0.0006655794
    9    1    7    5        0.0063431254
    9    2    7    9        0.0131237827
    9    3    7    4        0.0015146700
    9    3    7    5        0.0144351559
    9    4    7    1        0.0032508013
    9    4    7    3        0.0097289887
    9    4    7    6        0.0018691147
    9    4    7   10       -0.0018095247
    9    5    7    1        0.0309808897
    9    5    7    3        0.0927195162
    9    5    7    6        0.0178130958
    9    5    7   10       -0.0172451896
    9    6    7    4        0.0001289873
    9    6    7    5        0.0012292792
    9    7    7    9        0.0283541020
    9    9    7    2        0.1287298133
    9    9    7    7        0.6217735913
    9   10    7    4       -0.0000785272
    9   10    7    5       -0.0007483824
    9    4    8    4        0.0109342523
    9    4    8    5        0.0146327001
    9    5    8    4        0.0884259342
    9    5    8    5       -0.0109342523
    9    8    8    9        0.0305744382
    9    9    8    8        0.6176243337
    9    1    9    1        0.0621216193
    9    1    9    3        0.0075700480
    9    1    9    6        0.0227038446
    9    1    9   10        0.0250763518
    9    2    9    2        0.1051347934
    9    2    9    7        0.0131237794
    9    3    9    1        0.0075700480
    9    3    9    3        0.0152424261
    9    3    9    6        0.0016302874
    9    3    9   10       -0.0002749281
    9    4    9    4        0.0169275197
    9    4    9    5        0.0109342523
    9    5    9    4        0.0109342523
    9    5    9    5        0.1199861541
    9    6    9    1        0.0227038446
    9    6    9    3        0.0016302874
    9    6    9    6        0.0244865432
    9    6    9   10        0.0081546464
    9    7    9    2        0.0131237794
    9    7    9    7        0.0283541858
    9    8    9    8        0.0305745135
    9    9    9    9        0.6787732854
    9   10    9    1        0.0250763518
    9   10    9    3       -0.0002749281
    9   10    9    6        0.0081546464
    9   10    9   10        0.0177357393
    9    1   10    9        0.0250502891
    9    2   10    4        0.0041421077
    9    2   10    5        0.0394752458
    9    3   10    9       -0.0002749431
    9    4   10    2        0.0021669904
    9    4   10    7       -0.0018095246
    9    5   10    2        0.0206519201
    9    5   10    7       -0.0172451882
    9    6   10    9        0.0081546379
    9    7   10    4       -0.0000170543
    9    7   10    5       -0.0001625318
    9    9   10    1        0.0154747695
    9    9   10    3       -0.1367986022
    9    9   10    6        0.0148262945
    9    9   10   10        0.5993371666
    9   10   10    9        0.0177356560
   10    1    1    1       -0.0148804894
   10    1    1    3       -0.0482728790
   10    1    1    6        0.0058453485
   10    1    1   10        0.0605535654
   10    2    1    2        0.0163213871
   10    2    1    7       -0.0111922302
   10    3    1    1       -0.1762634106
   10    3    1    3       -0.1243482884
   10    3    1    6        0.0162606100
   10    3    1   10        0.0631381626
   10    4    1    4        0.0483648837
   10    5    1    5        0.0483648837
   10    6    1    1        0.0193942003
   10    6    1    3        0.0242167617
   10    6    1    6        0.0133965458
   10    6    1   10       -0.0249988774
   10    7    1    2       -0.0329840691
   10    7    1    7       -0.0490306279
   10    8    1    8        0.0250763518
   10    9    1    9        0.0250763518
   10   10    1    1        0.6486670558
   10   10    1    3        0.2116814380
   10   10    1    6       -0.0243052390
   10   10    1   10       -0.0669797468
   10    1    2    2       -0.0003725688
   10    1    2    7       -0.0370886875
   10    2    2    1        0.0163165794
   10    2    2    3       -0.0079203618
   10    2    2    6        0.0178772486
   10    2    2   10        0.0210646624
   10    3    2    2       -0.1449494577
   10    3    2    7       -0.1034682632
   10    4    2    8        0.0394752546
   10    4    2    9        0.0041421086
   10    5    2    8       -0.0041421086
   10    5    2    9        0.0394752546
   10    6    2    2        0.0260208887
   10    6    2    7        0.0147205516
   10    7    2    1       -0.0330154768
   10    7    2    3       -0.0355785015
   10    7    2    6       -0.0202513410
   10    7    2   10        0.0154653345
   10    8    2    4        0.0194503310
   10    8    2    5       -0.0020409085
   10    9    2    4        0.0020409085
   10    9    2    5        0.0194503310
   10   10    2    2        0.6021957747
   10   10    2    7        0.1721383891
   10    1    3    1       -0.0473171746
   10    1    3    3       -0.0479455063
   10    1    3    6        0.0155596956
   10    1    3   10        0.0631381626
   10    2    3    2       -0.0079203624
   10    2    3    7       -0.0071827969
   10    3    3    1       -0.1243461688
   10    3    3    3       -0.1753936681
   10    3    3    6        0.0308888121
   10    3    3   10        0.1435394878
   10    4    3    4       -0.0033480118
   10    5    3    5       -0.0033480118
   10    6    3    1        0.0242149109
   10    6    3    3        0.0271775616
   10    6    3    6       -0.0108974449
   10    6    3   10       -0.0309790719
   10    7    3    2       -0.0355785106
   10    7    3    7       -0.0439896565
   10    8    3    8       -0.0002749281
   10    9    3    9       -0.0002749281
   10   10    3    1        0.2116814380
   10   10    3    3        0.6069988208
   10   10    3    6       -0.0551831746
   10   10    3   10       -0.2381728994
   10    1    4    4        0.0155454905
   10    2    4    8        0.0206519138
   10    2    4    9        0.0021669897
   10    3    4    4       -0.1368752749
   10    4    4    1        0.0482886417
   10    4    4    3       -0.0033480360
   10    4    4    6       -0.0252286664
   10    4    4   10        0.0361984848
   10    6    4    4       -0.0025050121
   10    7    4    8       -0.0172451896
   10    7    4    9       -0.0018095247
   10    8    4    2        0.0194503159
   10    8    4    7       -0.0007483824
   10    9    4    2        0.0020409069
   10    9    4    7       -0.0000785272
   10   10    4    4        0.5962434654
   10    1    5    5        0.0155454905
   10    2    5    8       -0.0021669897
   10    2    5    9        0.0206519138
   10    3    5    5       -0.1368752749
   10    5    5    1        0.0482886417
   10    5    5    3       -0.0033480360
   10    5    5    6       -0.0252286664
   10    5    5   10        0.0361984848
   10    6    5    5       -0.0025050121
   10    7    5    8        0.0018095247
   10    7    5    9       -0.0172451896
   10    8    5    2       -0.0020409069
   10    8    5    7        0.0000785272
   10    9    5    2        0.0194503159
   10    9    5    7       -0.0007483824
   10   10    5    5        0.5962434654
   10    1    6    1        0.0061434327
   10    1    6    3        0.0155427948
   10    1    6    6        0.0020539631
   10    1    6   10       -0.0249988774
   10    2    6    2        0.0178772421
   10    2    6    7       -0.0025154358
   10    3    6    1        0.0162418637
   10    3    6    3        0.0308888056
   10    3    6    6       -0.1561837097
   10    3    6   10       -0.0309790719
   10    4    6    4       -0.0252286426
   10    5    6    5       -0.0252286426
   10    6    6    1        0.0133618782
   10    6    6    3       -0.0108974635
   10    6    6    6        0.0248010328
   10    6    6   10        0.0257848829
   10    7    6    2       -0.0202513430
   10    7    6    7       -0.0223371476
   10    8    6    8        0.0081546464
   10    9    6    9        0.0081546464
   10   10    6    1       -0.0243052390
   10   10    6    3       -0.0551831746
   10   10    6    6        0.6260077450
   10   10    6   10        0.0375297092
   10    1    7    2       -0.0370371186
   10    1    7    7       -0.0469283772
   10    2    7    1       -0.0111721430
   10    2    7    3       -0.0071827876
   10    2    7    6       -0.0025154412
   10    2    7   10        0.0154653345
   10    3    7    2       -0.1034682631
   10    3    7    7       -0.1908549682
   10    4    7    8       -0.0001625519
   10    4    7    9       -0.0000170564
   10    5    7    8        0.0000170564
   10    5    7    9       -0.0001625519
   10    6    7    2        0.0147205442
   10    6    7    7        0.0260583771
   10    7    7    1       -0.0490556961
   10    7    7    3       -0.0439896869
   10    7    7    6       -0.0223371824
   10    7    7   10        0.0461710711
   10    8    7    4       -0.0007484010
   10    8    7    5        0.0000785292
   10    9    7    4       -0.0000785292
   10    9    7    5       -0.0007484010
   10   10    7    2        0.1721383891
   10   10    7    7        0.6492031643
   10    1    8    8        0.0154747695
   10    2    8    4        0.0206519201
   10    2    8    5       -0.0021669904
   10    3    8    8       -0.1367986022
   10    4    8    2        0.0394752458
   10    4    8    7       -0.0001625318
   10    5    8    2       -0.0041421077
   10    5    8    7        0.0000170543
   10    6    8    8        0.0148262945
   10    7    8    4       -0.0172451882
   10    7    8    5        0.0018095246
   10    8    8    1        0.0250502891
   10    8    8    3       -0.0002749431
   10    8    8    6        0.0081546379
   10    8    8   10        0.0177356560
   10   10    8    8        0.5993371666
   10    1    9    9        0.0154747695
   10    2    9    4        0.0021669904
   10    2    9    5        0.0206519201
   10    3    9    9       -0.1367986022
   10    4    9    2        0.0041421077
   10    4    9    7       -0.0000170543
   10    5    9    2        0.0394752458
   10    5    9    7       -0.0001625318
   10    6    9    9        0.0148262945
   10    7    9    4       -0.0018095246
   10    7    9    5       -0.0172451882
   10    9    9    1        0.0250502891
   10    9    9    3       -0.0002749431
   10    9    9    6        0.0081546379
   10    9    9   10        0.0177356560
   10   10    9    9        0.5993371666
   10    1   10    1        0.0612304659
   10    1   10    3        0.0630254911
   10    1   10    6       -0.0249968115
   10    1   10   10       -0.0669797468
   10    2   10    2        0.0210646579
   10    2   10    7        0.0154653401
   10    3   10    1        0.0630254911
   10    3   10    3        0.1435394643
   10    3   10    6       -0.0309790748
   10    3   10   10       -0.2381728994
   10    4   10    4        0.0361986887
   10    5   10    5        0.0361986887
   10    6   10    1       -0.0249968115
   10    6   10    3       -0.0309790748
   10    6   10    6        0.0257849860
   10    6   10   10        0.0375297092
   10    7   10    2        0.0154653401
   10    7   10    7        0.0461711747
   10    8   10    8        0.0177357393
   10    9   10    9        0.0177357393
   10   10   10    1       -0.0669797468
   10   10   10    3       -0.2381728994
   10   10   10    6        0.0375297092
   10   10   10   10        0.7185705271
 end_two_electron_integrals

 Parallel integral file used      20 records with       0 large values


 Task  times  cpu:      141.5s     wall:      145.5s


                                NWChem Input Module
                                -------------------


 Summary of allocated global arrays
-----------------------------------
  No active global arrays


MA_summarize_allocated_blocks: starting scan ...
MA_summarize_allocated_blocks: scan completed: 0 heap blocks, 0 stack blocks
MA usage statistics:

	allocation statistics:
					      heap	     stack
					      ----	     -----
	current number of blocks	         0	         0
	maximum number of blocks	        18	        42
	current total bytes		         0	         0
	maximum total bytes		  51983048	9994007128
	maximum total K-bytes		     51984	   9994008
	maximum total M-bytes		        52	      9995


                                     CITATION
                                     --------
                Please cite the following reference when publishing
                           results obtained with NWChem:

          E. Apra, E. J. Bylaska, W. A. de Jong, N. Govind, K. Kowalski,
       T. P. Straatsma, M. Valiev, H. J. J. van Dam, Y. Alexeev, J. Anchell,
       V. Anisimov, F. W. Aquino, R. Atta-Fynn, J. Autschbach, N. P. Bauman,
     J. C. Becca, D. E. Bernholdt, K. Bhaskaran-Nair, S. Bogatko, P. Borowski,
         J. Boschen, J. Brabec, A. Bruner, E. Cauet, Y. Chen, G. N. Chuev,
      C. J. Cramer, J. Daily, M. J. O. Deegan, T. H. Dunning Jr., M. Dupuis,
   K. G. Dyall, G. I. Fann, S. A. Fischer, A. Fonari, H. Fruchtl, L. Gagliardi,
      J. Garza, N. Gawande, S. Ghosh, K. Glaesemann, A. W. Gotz, J. Hammond,
       V. Helms, E. D. Hermes, K. Hirao, S. Hirata, M. Jacquelin, L. Jensen,
   B. G. Johnson, H. Jonsson, R. A. Kendall, M. Klemm, R. Kobayashi, V. Konkov,
      S. Krishnamoorthy, M. Krishnan, Z. Lin, R. D. Lins, R. J. Littlefield,
      A. J. Logsdail, K. Lopata, W. Ma, A. V. Marenich, J. Martin del Campo,
   D. Mejia-Rodriguez, J. E. Moore, J. M. Mullin, T. Nakajima, D. R. Nascimento,
    J. A. Nichols, P. J. Nichols, J. Nieplocha, A. Otero-de-la-Roza, B. Palmer,
    A. Panyala, T. Pirojsirikul, B. Peng, R. Peverati, J. Pittner, L. Pollack,
   R. M. Richard, P. Sadayappan, G. C. Schatz, W. A. Shelton, D. W. Silverstein,
   D. M. A. Smith, T. A. Soares, D. Song, M. Swart, H. L. Taylor, G. S. Thomas,
            V. Tipparaju, D. G. Truhlar, K. Tsemekhman, T. Van Voorhis,
      A. Vazquez-Mayagoitia, P. Verma, O. Villa, A. Vishnu, K. D. Vogiatzis,
        D. Wang, J. H. Weare, M. J. Williamson, T. L. Windus, K. Wolinski,
        A. T. Wong, Q. Wu, C. Yang, Q. Yu, M. Zacharias, Z. Zhang, Y. Zhao,
                                and R. J. Harrison
                        "NWChem: Past, present, and future
                         J. Chem. Phys. 152, 184102 (2020)
                               doi:10.1063/5.0004997

                                      AUTHORS
                                      -------
  E. Apra, E. J. Bylaska, N. Govind, K. Kowalski, M. Valiev, D. Mejia-Rodriguez,
       A. Kunitsa, N. P. Bauman, A. Panyala, W. A. de Jong, T. P. Straatsma,
        H. J. J. van Dam, D. Wang, T. L. Windus, J. Hammond, J. Autschbach,
    K. Bhaskaran-Nair, J. Brabec, K. Lopata, S. A. Fischer, S. Krishnamoorthy,
     M. Jacquelin, W. Ma, M. Klemm, O. Villa, Y. Chen, V. Anisimov, F. Aquino,
    S. Hirata, M. T. Hackler, Eric Hermes, L. Jensen, J. E. Moore, J. C. Becca,
      V. Konjkov, T. Risthaus, M. Malagoli, A. Marenich, A. Otero-de-la-Roza,
        J. Mullin, P. Nichols, R. Peverati, J. Pittner, Y. Zhao, P.-D. Fan,
        A. Fonari, M. J. Williamson, R. J. Harrison, J. R. Rehr, M. Dupuis,
     D. Silverstein, D. M. A. Smith, J. Nieplocha, V. Tipparaju, M. Krishnan,
     B. E. Van Kuiken, A. Vazquez-Mayagoitia, M. Swart, Q. Wu, T. Van Voorhis,
     A. A. Auer, M. Nooijen, L. D. Crosby, E. Brown, G. Cisneros, G. I. Fann,
   H. Fruchtl, J. Garza, K. Hirao, R. A. Kendall, J. A. Nichols, K. Tsemekhman,
    K. Wolinski, J. Anchell, D. E. Bernholdt, P. Borowski, T. Clark, D. Clerc,
   H. Dachsel, M. J. O. Deegan, K. Dyall, D. Elwood, E. Glendening, M. Gutowski,
   A. C. Hess, J. Jaffe, B. G. Johnson, J. Ju, R. Kobayashi, R. Kutteh, Z. Lin,
   R. Littlefield, X. Long, B. Meng, T. Nakajima, S. Niu, L. Pollack, M. Rosing,
   K. Glaesemann, G. Sandrone, M. Stave, H. Taylor, G. Thomas, J. H. van Lenthe,
                               A. T. Wong, Z. Zhang.

 Total times  cpu:      174.0s     wall:      184.2s
