 argument  1 = input.nw
  NWChem w/ OpenMP: maximum threads =    1



============================== echo of input deck ==============================
 echo
 start H2
 title "H2"

 memory total 24 gb

 geometry units bohr
 symmetry c1
        H  0.00000000  0.00000000  0.00000000
        H  0.00000000  3.00  0.00000000
 end

 basis
   * library cc-pVQZ
 end

 mcscf
   active  10
   actelec 2
   multiplicity 1
   maxiter 40
   vectors input H2.mos
   vectors output H2.mos
 end

 task mcscf

 scf
   vectors input H2.mos
   vectors output H2-3.00.mos
   noscf
 end

 tce
   2eorb
   2emet 13
   ccsd
   maxiter 300
   lshift 0.8
 end

# set tce:print_integrals T
# set tce:qorb 10
# set tce:qela 1
# set tce:qelb 1

 set tce:qducc T
 set tce:nactv 9
 set tce:nonhf T
 set tce:ducc_model 6

 set tce:printtol 0.02

 task tce
================================================================================


                                         
                                         


             Northwest Computational Chemistry Package (NWChem) 7.0.1
             --------------------------------------------------------


                    Environmental Molecular Sciences Laboratory
                       Pacific Northwest National Laboratory
                                Richland, WA 99352

                              Copyright (c) 1994-2020
                       Pacific Northwest National Laboratory
                            Battelle Memorial Institute

             NWChem is an open-source computational chemistry package
                        distributed under the terms of the
                      Educational Community License (ECL) 2.0
             A copy of the license is included with this distribution
                              in the LICENSE.TXT file

                                  ACKNOWLEDGMENT
                                  --------------

            This software and its documentation were developed at the
            EMSL at Pacific Northwest National Laboratory, a multiprogram
            national laboratory, operated for the U.S. Department of Energy
            by Battelle under Contract Number DE-AC05-76RL01830. Support
            for this work was provided by the Department of Energy Office
            of Biological and Environmental Research, Office of Basic
            Energy Sciences, and the Office of Advanced Scientific Computing.


           Job information
           ---------------

    hostname        = WE46210
    program         = /home/baum612/code/nwchem/bin/LINUX64/nwchem
    date            = Sat Nov 11 01:00:27 2023

    compiled        = Mon_Nov_06_10:06:57_2023
    source          = /home/baum612/code/nwchem
    nwchem branch   = 7.0.0
    nwchem revision = nwchem_on_git-4191-g39d87d64de
    ga revision     = 5.8.1
    use scalapack   = F
    input           = input.nw
    prefix          = H2.
    data base       = ./H2.db
    status          = startup
    nproc           =        1
    time left       =     -1s



           Memory information
           ------------------

    heap     =  805306362 doubles =   6144.0 Mbytes
    stack    =  805306367 doubles =   6144.0 Mbytes
    global   = 1610612736 doubles =  12288.0 Mbytes (distinct from heap & stack)
    total    = 3221225465 doubles =  24576.0 Mbytes
    verify   = yes
    hardfail = no 


           Directory information
           ---------------------

  0 permanent = .
  0 scratch   = .




                                NWChem Input Module
                                -------------------


                                        H2
                                        --
 Turning off AUTOSYM since
 SYMMETRY directive was detected!


          ------
          auto-z
          ------
     1 autoz failed with cvr_scaling = 1.2 changing to 1.3
     2 autoz failed with cvr_scaling = 1.3 changing to 1.4
     3 autoz failed with cvr_scaling = 1.4 changing to 1.5
     4 autoz failed with cvr_scaling = 1.5 changing to 1.6
     5 autoz failed with cvr_scaling = 1.6 changing to 1.7

 AUTOZ failed to generate good internal coordinates.
 Cartesian coordinates will be used in optimizations.



                             Geometry "geometry" -> ""
                             -------------------------

 Output coordinates in a.u. (scale by  1.000000000 to convert to a.u.)

  No.       Tag          Charge          X              Y              Z
 ---- ---------------- ---------- -------------- -------------- --------------
    1 H                    1.0000     0.00000000    -1.50000000     0.00000000
    2 H                    1.0000     0.00000000     1.50000000     0.00000000

      Atomic Mass 
      ----------- 

      H                  1.007825


 Effective nuclear repulsion energy (a.u.)       0.3333333333

            Nuclear Dipole moment (a.u.) 
            ----------------------------
        X                 Y               Z
 ---------------- ---------------- ----------------
     0.0000000000     0.0000000000     0.0000000000


            XYZ format geometry
            -------------------
     2
 geometry
 H                     0.00000000    -0.79376587     0.00000000
 H                     0.00000000     0.79376587     0.00000000



 Summary of "ao basis" -> "" (cartesian)
 ------------------------------------------------------------------------------
       Tag                 Description            Shells   Functions and Types
 ---------------- ------------------------------  ------  ---------------------
 *                          cc-pVQZ                   on all atoms 


                      Basis "ao basis" -> "ao basis" (cartesian)
                      -----
  H (Hydrogen)
  ------------
            Exponent  Coefficients 
       -------------- ---------------------------------------------------------
  1 S  8.26400000E+01  0.002006
  1 S  1.24100000E+01  0.015343
  1 S  2.82400000E+00  0.075579

  2 S  7.97700000E-01  1.000000

  3 S  2.58100000E-01  1.000000

  4 S  8.98900000E-02  1.000000

  5 P  2.29200000E+00  1.000000

  6 P  8.38000000E-01  1.000000

  7 P  2.92000000E-01  1.000000

  8 D  2.06200000E+00  1.000000

  9 D  6.62000000E-01  1.000000

 10 F  1.39700000E+00  1.000000



 Summary of "ao basis" -> "ao basis" (cartesian)
 ------------------------------------------------------------------------------
       Tag                 Description            Shells   Functions and Types
 ---------------- ------------------------------  ------  ---------------------
 H                          cc-pVQZ                 10       35   4s3p2d1f



                            NWChem Direct MCSCF Module
                            --------------------------


                                        H2


     -----------------------------------
       Basis functions:             70
       Inactive shells:              0
       Active shells:               10
       Active electrons:             2
       Symmetry:                    a       
       Multiplicity:                 1
       Orbital rotations:          600
     -----------------------------------

     -----------------------------------
       E2 extrapolation:             F
       Conjugacy:                    T
       Micro CI relax:               T
       Canonical orbitals:           T
       Maximum iterations:          40
       Converge threshold:    1.00E-04
       Conjugacy resets:            20
       Initial levelshift:        0.10
     -----------------------------------

 Loading old vectors from job with title :

H2


   input molecular orbitals = ./H2.mos
  output molecular orbtials = ./H2.mos

       No. of determinants:           100


  Starting Orbital Energies
    -0.444770    -0.065834    -0.002079    -0.001694    -0.001694    -0.000228
    -0.000133    -0.000120    -0.000120    -0.000054     0.475465     0.833425
     1.058915     1.396722     1.396722     1.588946     1.588946     1.946255
     1.946255     1.966316     1.988882     1.988882     2.206892     2.206892
     2.362899     2.639205     2.639205     2.918220     2.977079     3.586861
     4.410740     4.410740     4.418261     4.434901     4.434901     4.758652
     5.720388     5.725829     5.725829     5.904809     5.904809     6.051787
     6.051787     6.090359     6.090359     6.260332     6.260332     6.828152
     6.828152     7.810991     8.092039     8.092039     8.163158     8.163158
     8.212296     8.212296     8.571137     8.571137     8.642692     9.220400
     9.589255     9.720601     9.720601     9.741942     9.741942     9.888151
     9.933117    10.151678    22.618946    23.436753

  Orbital Symmetry Irreps
a    a    a    a    a    a    a    a    a    a    a    a    a    a    a   
a    a    a    a    a    a    a    a    a    a    a    a    a    a    a   
a    a    a    a    a    a    a    a    a    a    a    a    a    a    a   
a    a    a    a    a    a    a    a    a    a    a    a    a    a    a   
a    a    a    a    a    a    a    a    a    a   

 Integral file          = ./H2.aoints.0
 Record size in doubles =  65536        No. of integs per rec  =  43688
 Max. records in memory =     99        Max. records in file   = 280154
 No. of bits per label  =      8        No. of bits per value  =     64


 #quartets = 2.215D+04 #integrals = 8.596D+05 #direct =  0.0% #cached =100.0%




          %%%%% MacroIteration   1 %%%%%


          Number of sigma calls:       14
                       o<<<<< (aa):             0.00
                       o<<<<< (bb):             0.00
                       o<<<<< (ab):             0.01
                       o<<<<< (total)           0.02
                       o<<<<< (aa) ff           0.00
                       o<<<<< (aa) gop          0.00
                       o<<<<< (aa) dot          0.00
                       o<<<<< (ab) str          0.00
                       o<<<<< (ab) gath         0.00
                       o<<<<< (ab) dotab        0.00
                       o<<<<< (ab) scat         0.00
                       o<<<<< (ab) sync         0.00
                       o<<<<< Density           0.00
                       o<<<<< Density one       0.00
                       o<<<<< Density two       0.00
                       o<<<<< Density ab        0.00
                       o<<<<< Spin adapt        0.00
                       o<<<<< Symm adapt        0.00

                       o<<<<< (ab) max sync:      0.00

           >>>| Valence CI:             -1.389348817567
           >>>| MCSCF energy:           -1.056015484234
           >>>| Gradient norm:          0.441142859D-02
     --- Warning:  371 Hessian diagonals < 0.05 ---

                              ----- Line search ------

        step       energy         lsg     num-lsg   num-lsh   lsrat    time
      ------- ---------------- --------- --------- --------- ------- --------
       0.0000      -1.05601548 -2.74D-06  0.00D+00  0.00D+00 0.0D+00      0.5

          Number of sigma calls:       13
                       o<<<<< (aa):             0.00
                       o<<<<< (bb):             0.00
                       o<<<<< (ab):             0.01
                       o<<<<< (total)           0.02
                       o<<<<< (aa) ff           0.00
                       o<<<<< (aa) gop          0.00
                       o<<<<< (aa) dot          0.00
                       o<<<<< (ab) str          0.00
                       o<<<<< (ab) gath         0.00
                       o<<<<< (ab) dotab        0.00
                       o<<<<< (ab) scat         0.00
                       o<<<<< (ab) sync         0.00
                       o<<<<< Density           0.00
                       o<<<<< Density one       0.00
                       o<<<<< Density two       0.00
                       o<<<<< Density ab        0.00
                       o<<<<< Spin adapt        0.00
                       o<<<<< Symm adapt        0.00

                       o<<<<< (ab) max sync:      0.00
       1.0000      -1.05601722 -7.31D-07 -7.31D-07  2.01D-06 2.7D-01      0.7

          Number of sigma calls:       12
                       o<<<<< (aa):             0.00
                       o<<<<< (bb):             0.00
                       o<<<<< (ab):             0.02
                       o<<<<< (total)           0.02
                       o<<<<< (aa) ff           0.00
                       o<<<<< (aa) gop          0.00
                       o<<<<< (aa) dot          0.00
                       o<<<<< (ab) str          0.00
                       o<<<<< (ab) gath         0.00
                       o<<<<< (ab) dotab        0.00
                       o<<<<< (ab) scat         0.00
                       o<<<<< (ab) sync         0.00
                       o<<<<< Density           0.00
                       o<<<<< Density one       0.00
                       o<<<<< Density two       0.00
                       o<<<<< Density ab        0.00
                       o<<<<< Spin adapt        0.00
                       o<<<<< Symm adapt        0.00

                       o<<<<< (ab) max sync:      0.00
       1.3642      -1.05601735  9.04D-10  8.66D-10  2.01D-06 3.3D-04      0.9
     --- Orbitals canonicalized ---



          %%%%% MacroIteration   2 %%%%%


          Number of sigma calls:       14
                       o<<<<< (aa):             0.00
                       o<<<<< (bb):             0.00
                       o<<<<< (ab):             0.02
                       o<<<<< (total)           0.03
                       o<<<<< (aa) ff           0.00
                       o<<<<< (aa) gop          0.00
                       o<<<<< (aa) dot          0.00
                       o<<<<< (ab) str          0.00
                       o<<<<< (ab) gath         0.00
                       o<<<<< (ab) dotab        0.00
                       o<<<<< (ab) scat         0.00
                       o<<<<< (ab) sync         0.00
                       o<<<<< Density           0.00
                       o<<<<< Density one       0.00
                       o<<<<< Density two       0.00
                       o<<<<< Density ab        0.00
                       o<<<<< Spin adapt        0.00
                       o<<<<< Symm adapt        0.00

                       o<<<<< (ab) max sync:      0.00

           >>>| Valence CI:             -1.389350685752
           >>>| MCSCF energy:           -1.056017352418
           >>>| Gradient norm:          0.142224797D-02
     --- Warning:  371 Hessian diagonals < 0.05 ---
     --- Conjugacy reset ---

                              ----- Line search ------

        step       energy         lsg     num-lsg   num-lsh   lsrat    time
      ------- ---------------- --------- --------- --------- ------- --------
       0.0000      -1.05601735 -1.78D-07  0.00D+00  0.00D+00 0.0D+00      1.3

          Number of sigma calls:       11
                       o<<<<< (aa):             0.00
                       o<<<<< (bb):             0.00
                       o<<<<< (ab):             0.01
                       o<<<<< (total)           0.01
                       o<<<<< (aa) ff           0.00
                       o<<<<< (aa) gop          0.00
                       o<<<<< (aa) dot          0.00
                       o<<<<< (ab) str          0.00
                       o<<<<< (ab) gath         0.00
                       o<<<<< (ab) dotab        0.00
                       o<<<<< (ab) scat         0.00
                       o<<<<< (ab) sync         0.00
                       o<<<<< Density           0.00
                       o<<<<< Density one       0.00
                       o<<<<< Density two       0.00
                       o<<<<< Density ab        0.00
                       o<<<<< Spin adapt        0.00
                       o<<<<< Symm adapt        0.00

                       o<<<<< (ab) max sync:      0.00
       1.0000      -1.05601747 -5.94D-08 -5.94D-08  1.18D-07 3.3D-01      1.5

          Number of sigma calls:       10
                       o<<<<< (aa):             0.00
                       o<<<<< (bb):             0.00
                       o<<<<< (ab):             0.01
                       o<<<<< (total)           0.01
                       o<<<<< (aa) ff           0.00
                       o<<<<< (aa) gop          0.00
                       o<<<<< (aa) dot          0.00
                       o<<<<< (ab) str          0.00
                       o<<<<< (ab) gath         0.00
                       o<<<<< (ab) dotab        0.00
                       o<<<<< (ab) scat         0.00
                       o<<<<< (ab) sync         0.00
                       o<<<<< Density           0.00
                       o<<<<< Density one       0.00
                       o<<<<< Density two       0.00
                       o<<<<< Density ab        0.00
                       o<<<<< Spin adapt        0.00
                       o<<<<< Symm adapt        0.00

                       o<<<<< (ab) max sync:      0.00
       1.5020      -1.05601749  2.75D-11  2.59D-11  1.18D-07 1.5D-04      1.7



          %%%%% MacroIteration   3 %%%%%


          Number of sigma calls:        1
                       o<<<<< (aa):             0.00
                       o<<<<< (bb):             0.00
                       o<<<<< (ab):             0.00
                       o<<<<< (total)           0.00
                       o<<<<< (aa) ff           0.00
                       o<<<<< (aa) gop          0.00
                       o<<<<< (aa) dot          0.00
                       o<<<<< (ab) str          0.00
                       o<<<<< (ab) gath         0.00
                       o<<<<< (ab) dotab        0.00
                       o<<<<< (ab) scat         0.00
                       o<<<<< (ab) sync         0.00
                       o<<<<< Density           0.00
                       o<<<<< Density one       0.00
                       o<<<<< Density two       0.00
                       o<<<<< Density ab        0.00
                       o<<<<< Spin adapt        0.00
                       o<<<<< Symm adapt        0.00

                       o<<<<< (ab) max sync:      0.00

           >>>| Valence CI:             -1.389350819193
           >>>| MCSCF energy:           -1.056017485859
           >>>| Gradient norm:          0.680261501D-03
     --- Warning:  371 Hessian diagonals < 0.05 ---

                              ----- Line search ------

        step       energy         lsg     num-lsg   num-lsh   lsrat    time
      ------- ---------------- --------- --------- --------- ------- --------
       0.0000      -1.05601749 -3.67D-08  0.00D+00  0.00D+00 0.0D+00      1.8

          Number of sigma calls:        8
                       o<<<<< (aa):             0.00
                       o<<<<< (bb):             0.00
                       o<<<<< (ab):             0.01
                       o<<<<< (total)           0.01
                       o<<<<< (aa) ff           0.00
                       o<<<<< (aa) gop          0.00
                       o<<<<< (aa) dot          0.00
                       o<<<<< (ab) str          0.00
                       o<<<<< (ab) gath         0.00
                       o<<<<< (ab) dotab        0.00
                       o<<<<< (ab) scat         0.00
                       o<<<<< (ab) sync         0.00
                       o<<<<< Density           0.00
                       o<<<<< Density one       0.00
                       o<<<<< Density two       0.00
                       o<<<<< Density ab        0.00
                       o<<<<< Spin adapt        0.00
                       o<<<<< Symm adapt        0.00

                       o<<<<< (ab) max sync:      0.00
       1.0000      -1.05601751 -1.25D-08 -1.25D-08  2.41D-08 3.4D-01      2.0

          Number of sigma calls:        8
                       o<<<<< (aa):             0.00
                       o<<<<< (bb):             0.00
                       o<<<<< (ab):             0.01
                       o<<<<< (total)           0.01
                       o<<<<< (aa) ff           0.00
                       o<<<<< (aa) gop          0.00
                       o<<<<< (aa) dot          0.00
                       o<<<<< (ab) str          0.00
                       o<<<<< (ab) gath         0.00
                       o<<<<< (ab) dotab        0.00
                       o<<<<< (ab) scat         0.00
                       o<<<<< (ab) sync         0.00
                       o<<<<< Density           0.00
                       o<<<<< Density one       0.00
                       o<<<<< Density two       0.00
                       o<<<<< Density ab        0.00
                       o<<<<< Spin adapt        0.00
                       o<<<<< Symm adapt        0.00

                       o<<<<< (ab) max sync:      0.00
       1.5203      -1.05601751  1.52D-12  1.43D-12  2.41D-08 4.1D-05      2.3



          %%%%% MacroIteration   4 %%%%%


          Number of sigma calls:        1
                       o<<<<< (aa):             0.00
                       o<<<<< (bb):             0.00
                       o<<<<< (ab):             0.00
                       o<<<<< (total)           0.00
                       o<<<<< (aa) ff           0.00
                       o<<<<< (aa) gop          0.00
                       o<<<<< (aa) dot          0.00
                       o<<<<< (ab) str          0.00
                       o<<<<< (ab) gath         0.00
                       o<<<<< (ab) dotab        0.00
                       o<<<<< (ab) scat         0.00
                       o<<<<< (ab) sync         0.00
                       o<<<<< Density           0.00
                       o<<<<< Density one       0.00
                       o<<<<< Density two       0.00
                       o<<<<< Density ab        0.00
                       o<<<<< Spin adapt        0.00
                       o<<<<< Symm adapt        0.00

                       o<<<<< (ab) max sync:      0.00

           >>>| Valence CI:             -1.389350847052
           >>>| MCSCF energy:           -1.056017513719
           >>>| Gradient norm:          0.357078939D-03
     --- Warning:  371 Hessian diagonals < 0.05 ---

                              ----- Line search ------

        step       energy         lsg     num-lsg   num-lsh   lsrat    time
      ------- ---------------- --------- --------- --------- ------- --------
       0.0000      -1.05601751 -1.04D-08  0.00D+00  0.00D+00 0.0D+00      2.4

          Number of sigma calls:        9
                       o<<<<< (aa):             0.00
                       o<<<<< (bb):             0.00
                       o<<<<< (ab):             0.01
                       o<<<<< (total)           0.01
                       o<<<<< (aa) ff           0.00
                       o<<<<< (aa) gop          0.00
                       o<<<<< (aa) dot          0.00
                       o<<<<< (ab) str          0.00
                       o<<<<< (ab) gath         0.00
                       o<<<<< (ab) dotab        0.00
                       o<<<<< (ab) scat         0.00
                       o<<<<< (ab) sync         0.00
                       o<<<<< Density           0.00
                       o<<<<< Density one       0.00
                       o<<<<< Density two       0.00
                       o<<<<< Density ab        0.00
                       o<<<<< Spin adapt        0.00
                       o<<<<< Symm adapt        0.00

                       o<<<<< (ab) max sync:      0.00
       1.0000      -1.05601752 -6.77D-09 -6.77D-09  3.64D-09 6.5D-01      2.6

          Number of sigma calls:        9
                       o<<<<< (aa):             0.00
                       o<<<<< (bb):             0.00
                       o<<<<< (ab):             0.01
                       o<<<<< (total)           0.01
                       o<<<<< (aa) ff           0.00
                       o<<<<< (aa) gop          0.00
                       o<<<<< (aa) dot          0.00
                       o<<<<< (ab) str          0.00
                       o<<<<< (ab) gath         0.00
                       o<<<<< (ab) dotab        0.00
                       o<<<<< (ab) scat         0.00
                       o<<<<< (ab) sync         0.00
                       o<<<<< Density           0.00
                       o<<<<< Density one       0.00
                       o<<<<< Density two       0.00
                       o<<<<< Density ab        0.00
                       o<<<<< Spin adapt        0.00
                       o<<<<< Symm adapt        0.00

                       o<<<<< (ab) max sync:      0.00
       2.8616      -1.05601753  3.87D-12  3.45D-12  3.64D-09 3.7D-04      2.8



          %%%%% MacroIteration   5 %%%%%


          Number of sigma calls:        1
                       o<<<<< (aa):             0.00
                       o<<<<< (bb):             0.00
                       o<<<<< (ab):             0.00
                       o<<<<< (total)           0.00
                       o<<<<< (aa) ff           0.00
                       o<<<<< (aa) gop          0.00
                       o<<<<< (aa) dot          0.00
                       o<<<<< (ab) str          0.00
                       o<<<<< (ab) gath         0.00
                       o<<<<< (ab) dotab        0.00
                       o<<<<< (ab) scat         0.00
                       o<<<<< (ab) sync         0.00
                       o<<<<< Density           0.00
                       o<<<<< Density one       0.00
                       o<<<<< Density two       0.00
                       o<<<<< Density ab        0.00
                       o<<<<< Spin adapt        0.00
                       o<<<<< Symm adapt        0.00

                       o<<<<< (ab) max sync:      0.00

           >>>| Valence CI:             -1.389350861949
           >>>| MCSCF energy:           -1.056017528616
           >>>| Gradient norm:          0.932759700D-04




     ==============================
            MCSCF Converged
     ==============================



          Canonical Eigenvalues

              1      
    1   -0.4405
    2   -0.0688
    3   -0.0020
    4   -0.0016
    5   -0.0016
    6   -0.0002
    7   -0.0001
    8   -0.0001
    9   -0.0001
   10   -0.0001
   11    0.4766
   12    0.8303
   13    1.0569
   14    1.3985
   15    1.3985
   16    1.5982
   17    1.5982
   18    1.9372
   19    1.9372
   20    1.9552
   21    1.9941
   22    1.9941
   23    2.1992
   24    2.1992
   25    2.3482
   26    2.6178
   27    2.6178
   28    2.9228
   29    2.9788
   30    3.5461
   31    4.4067
   32    4.4067
   33    4.4373
   34    4.4373
   35    4.4703
   36    4.7427
   37    5.7028
   38    5.7448
   39    5.7448
   40    5.9233
   41    5.9233
   42    6.0542
   43    6.0542
   44    6.0866
   45    6.0866
   46    6.2355
   47    6.2355
   48    6.7510
   49    6.7510
   50    7.6919
   51    8.0917
   52    8.0917
   53    8.1472
   54    8.1472
   55    8.2075
   56    8.2075
   57    8.5573
   58    8.5573
   59    8.5922
   60    9.2249
   61    9.5973
   62    9.7212
   63    9.7212
   64    9.7397
   65    9.7397
   66    9.8794
   67    9.9436
   68   10.1039
   69   22.6470
   70   23.3932


          Converged CI vector

   Index           Coefficient          Config. Occupation
         1         -0.94625125          1  1
        12          0.31586976          2  2
        23          0.04049666          3  3
        34          0.03671081          4  4
        45          0.03671081          5  5

          Number of sigma calls:        1
                       o<<<<< (aa):             0.00
                       o<<<<< (bb):             0.00
                       o<<<<< (ab):             0.00
                       o<<<<< (total)           0.00
                       o<<<<< (aa) ff           0.00
                       o<<<<< (aa) gop          0.00
                       o<<<<< (aa) dot          0.00
                       o<<<<< (ab) str          0.00
                       o<<<<< (ab) gath         0.00
                       o<<<<< (ab) dotab        0.00
                       o<<<<< (ab) scat         0.00
                       o<<<<< (ab) sync         0.00
                       o<<<<< Density           0.00
                       o<<<<< Density one       0.00
                       o<<<<< Density two       0.00
                       o<<<<< Density ab        0.00
                       o<<<<< Spin adapt        0.00
                       o<<<<< Symm adapt        0.00

                       o<<<<< (ab) max sync:      0.00



          Natural orbital occupation numbers

              1      
    1    1.7910
    2    0.1995
    3    0.0033
    4    0.0027
    5    0.0027
    6    0.0003
    7    0.0001
    8    0.0001
    9    0.0001
   10    0.0000


          Number of sigma calls:       14
                       o<<<<< (aa):             0.00
                       o<<<<< (bb):             0.00
                       o<<<<< (ab):             0.02
                       o<<<<< (total)           0.02
                       o<<<<< (aa) ff           0.00
                       o<<<<< (aa) gop          0.00
                       o<<<<< (aa) dot          0.00
                       o<<<<< (ab) str          0.00
                       o<<<<< (ab) gath         0.00
                       o<<<<< (ab) dotab        0.00
                       o<<<<< (ab) scat         0.00
                       o<<<<< (ab) sync         0.00
                       o<<<<< Density           0.00
                       o<<<<< Density one       0.00
                       o<<<<< Density two       0.00
                       o<<<<< Density ab        0.00
                       o<<<<< Spin adapt        0.00
                       o<<<<< Symm adapt        0.00

                       o<<<<< (ab) max sync:      0.00


       Final MCSCF results 
       ------------------- 

       Total MCSCF energy =     -1.056017528616
            Gradient norm =      9.3D-05

    CPU time for solution =      3.2s
   Wall time for solution =      3.2s



                        Analysis of MCSCF natural orbitals
                        ----------------------------------

 Vector    1  Occ=1.791046D+00  E=-4.404968D-01  Symmetry=a
              MO Center=  2.9D-16, -6.0D-13, -2.6D-16, r^2= 1.4D+00
   Bfn.  Coefficient  Atom+Function         Bfn.  Coefficient  Atom+Function  
  ----- ------------  ---------------      ----- ------------  ---------------
     3      0.291140  1 H  s                 38      0.291140  2 H  s          
     4      0.181829  1 H  s                 39      0.181829  2 H  s          
     2      0.154509  1 H  s                 37      0.154509  2 H  s          

 Vector    2  Occ=1.995479D-01  E=-6.879897D-02  Symmetry=a
              MO Center=  5.7D-15, -1.3D-12, -4.3D-15, r^2= 1.4D+00
   Bfn.  Coefficient  Atom+Function         Bfn.  Coefficient  Atom+Function  
  ----- ------------  ---------------      ----- ------------  ---------------
     3      0.459950  1 H  s                 38     -0.459950  2 H  s          
     2      0.247965  1 H  s                 37     -0.247965  2 H  s          
     4      0.171978  1 H  s                 39     -0.171978  2 H  s          

 Vector    3  Occ=3.297553D-03  E=-2.002738D-03  Symmetry=a
              MO Center= -5.3D-14, -3.4D-11,  3.5D-14, r^2= 2.3D+00
   Bfn.  Coefficient  Atom+Function         Bfn.  Coefficient  Atom+Function  
  ----- ------------  ---------------      ----- ------------  ---------------
     9     -0.487154  1 H  py                44      0.487154  2 H  py         
     4      0.483088  1 H  s                 39      0.483088  2 H  s          
    12     -0.247048  1 H  py                47      0.247048  2 H  py         
     2     -0.213037  1 H  s                 37     -0.213037  2 H  s          
    27      0.152980  1 H  fxxy              34      0.152980  1 H  fyzz       

 Vector    4  Occ=2.695368D-03  E=-1.621184D-03  Symmetry=a
              MO Center=  7.9D-14,  9.4D-12, -4.5D-15, r^2= 1.3D+00
   Bfn.  Coefficient  Atom+Function         Bfn.  Coefficient  Atom+Function  
  ----- ------------  ---------------      ----- ------------  ---------------
    11      0.579436  1 H  px                46      0.579436  2 H  px         
    21      0.258362  1 H  dxy               56     -0.258362  2 H  dxy        
     8     -0.233288  1 H  px                43     -0.233288  2 H  px         
    29      0.178903  1 H  fxyy              64      0.178903  2 H  fxyy       

 Vector    5  Occ=2.695368D-03  E=-1.621184D-03  Symmetry=a
              MO Center= -2.2D-15,  9.2D-12, -4.2D-14, r^2= 1.3D+00
   Bfn.  Coefficient  Atom+Function         Bfn.  Coefficient  Atom+Function  
  ----- ------------  ---------------      ----- ------------  ---------------
    13      0.579436  1 H  pz                48      0.579436  2 H  pz         
    24      0.258362  1 H  dyz               59     -0.258362  2 H  dyz        
    10     -0.233288  1 H  pz                45     -0.233288  2 H  pz         
    33      0.178903  1 H  fyyz              68      0.178903  2 H  fyyz       

 Vector    6  Occ=2.844361D-04  E=-2.191510D-04  Symmetry=a
              MO Center= -1.3D-14, -3.5D-11,  6.6D-15, r^2= 1.3D+00
   Bfn.  Coefficient  Atom+Function         Bfn.  Coefficient  Atom+Function  
  ----- ------------  ---------------      ----- ------------  ---------------
     2      0.734444  1 H  s                 37      0.734444  2 H  s          
    12     -0.324959  1 H  py                47      0.324959  2 H  py         
     3     -0.260808  1 H  s                 38     -0.260808  2 H  s          
     4     -0.222694  1 H  s                 39     -0.222694  2 H  s          

 Vector    7  Occ=1.352470D-04  E=-1.262945D-04  Symmetry=a
              MO Center= -2.7D-12,  1.8D-10,  1.6D-12, r^2= 1.7D+00
   Bfn.  Coefficient  Atom+Function         Bfn.  Coefficient  Atom+Function  
  ----- ------------  ---------------      ----- ------------  ---------------
     2      0.682676  1 H  s                 37     -0.682676  2 H  s          
     3     -0.502676  1 H  s                 38      0.502676  2 H  s          
     9      0.439275  1 H  py                44      0.439275  2 H  py         
     4     -0.303753  1 H  s                 39      0.303753  2 H  s          

 Vector    8  Occ=1.262827D-04  E=-1.149746D-04  Symmetry=a
              MO Center=  2.7D-12, -1.0D-11, -1.2D-13, r^2= 1.2D+00
   Bfn.  Coefficient  Atom+Function         Bfn.  Coefficient  Atom+Function  
  ----- ------------  ---------------      ----- ------------  ---------------
     8      0.721325  1 H  px                43     -0.721325  2 H  px         
    11      0.366928  1 H  px                46     -0.366928  2 H  px         
    21      0.200338  1 H  dxy               56      0.200338  2 H  dxy        
    26     -0.156953  1 H  fxxx              31     -0.156953  1 H  fxzz       
    61      0.156953  2 H  fxxx              66      0.156953  2 H  fxzz       

 Vector    9  Occ=1.262827D-04  E=-1.149746D-04  Symmetry=a
              MO Center= -6.6D-14, -1.0D-11, -1.4D-12, r^2= 1.2D+00
   Bfn.  Coefficient  Atom+Function         Bfn.  Coefficient  Atom+Function  
  ----- ------------  ---------------      ----- ------------  ---------------
    10      0.721325  1 H  pz                45     -0.721325  2 H  pz         
    13      0.366928  1 H  pz                48     -0.366928  2 H  pz         
    24      0.200338  1 H  dyz               59      0.200338  2 H  dyz        
    28     -0.156953  1 H  fxxz              35     -0.156953  1 H  fzzz       
    63      0.156953  2 H  fxxz              70      0.156953  2 H  fzzz       

 Vector   10  Occ=4.543722D-05  E=-5.169913D-05  Symmetry=a
              MO Center= -5.2D-16,  1.1D-09,  1.3D-17, r^2= 2.2D+00
   Bfn.  Coefficient  Atom+Function         Bfn.  Coefficient  Atom+Function  
  ----- ------------  ---------------      ----- ------------  ---------------
     9      1.464101  1 H  py                44     -1.464101  2 H  py         
     3     -1.223032  1 H  s                 38     -1.223032  2 H  s          
    12     -0.673523  1 H  py                47      0.673523  2 H  py         
    27     -0.567953  1 H  fxxy              34     -0.567953  1 H  fyzz       
    62      0.567953  2 H  fxxy              69      0.567953  2 H  fyzz       

 Vector   11  Occ=0.000000D+00  E= 4.766324D-01  Symmetry=a
              MO Center=  3.9D-13, -8.5D-12, -2.3D-13, r^2= 7.4D+00
   Bfn.  Coefficient  Atom+Function         Bfn.  Coefficient  Atom+Function  
  ----- ------------  ---------------      ----- ------------  ---------------
     4     -2.725371  1 H  s                 39      2.725371  2 H  s          
     3      2.668810  1 H  s                 38     -2.668810  2 H  s          
     9      0.816233  1 H  py                44      0.816233  2 H  py         
     2     -0.686134  1 H  s                 37      0.686134  2 H  s          
    12     -0.672674  1 H  py                47     -0.672674  2 H  py         

 Vector   12  Occ=0.000000D+00  E= 8.303291D-01  Symmetry=a
              MO Center=  1.3D-16,  2.7D-10,  8.4D-17, r^2= 5.0D+00
   Bfn.  Coefficient  Atom+Function         Bfn.  Coefficient  Atom+Function  
  ----- ------------  ---------------      ----- ------------  ---------------
     3      3.565768  1 H  s                 38      3.565768  2 H  s          
     9      1.661411  1 H  py                44     -1.661411  2 H  py         
     4     -1.377727  1 H  s                 39     -1.377727  2 H  s          
     2     -1.143280  1 H  s                 37     -1.143280  2 H  s          
    12     -0.690993  1 H  py                47      0.690993  2 H  py         

 Vector   13  Occ=0.000000D+00  E= 1.056888D+00  Symmetry=a
              MO Center= -2.0D-12, -1.7D-09,  1.2D-12, r^2= 2.8D+00
   Bfn.  Coefficient  Atom+Function         Bfn.  Coefficient  Atom+Function  
  ----- ------------  ---------------      ----- ------------  ---------------
     3      3.756198  1 H  s                 38     -3.756198  2 H  s          
     9     -2.838565  1 H  py                44     -2.838565  2 H  py         
    12      2.496297  1 H  py                47      2.496297  2 H  py         
     2     -1.132311  1 H  s                 37      1.132311  2 H  s          
    32      1.082349  1 H  fyyy              67      1.082349  2 H  fyyy       

 Vector   14  Occ=0.000000D+00  E= 1.398490D+00  Symmetry=a
              MO Center= -4.1D-15, -1.8D-11, -1.2D-12, r^2= 3.0D+00
   Bfn.  Coefficient  Atom+Function         Bfn.  Coefficient  Atom+Function  
  ----- ------------  ---------------      ----- ------------  ---------------
    10      5.729578  1 H  pz                45     -5.729578  2 H  pz         
    33     -2.225567  1 H  fyyz              68      2.225567  2 H  fyyz       
    28     -2.200122  1 H  fxxz              35     -2.200122  1 H  fzzz       
    63      2.200122  2 H  fxxz              70      2.200122  2 H  fzzz       
    13     -1.780771  1 H  pz                48      1.780771  2 H  pz         

 Vector   15  Occ=0.000000D+00  E= 1.398490D+00  Symmetry=a
              MO Center=  2.1D-12, -1.8D-11, -7.0D-15, r^2= 3.0D+00
   Bfn.  Coefficient  Atom+Function         Bfn.  Coefficient  Atom+Function  
  ----- ------------  ---------------      ----- ------------  ---------------
     8      5.729578  1 H  px                43     -5.729578  2 H  px         
    29     -2.225567  1 H  fxyy              64      2.225567  2 H  fxyy       
    26     -2.200122  1 H  fxxx              31     -2.200122  1 H  fxzz       
    61      2.200122  2 H  fxxx              66      2.200122  2 H  fxzz       
    11     -1.780771  1 H  px                46      1.780771  2 H  px         

 Vector   16  Occ=0.000000D+00  E= 1.598154D+00  Symmetry=a
              MO Center= -2.0D-16,  7.1D-12,  7.4D-15, r^2= 2.2D+00
   Bfn.  Coefficient  Atom+Function         Bfn.  Coefficient  Atom+Function  
  ----- ------------  ---------------      ----- ------------  ---------------
    10      5.213343  1 H  pz                45      5.213343  2 H  pz         
    28     -2.049326  1 H  fxxz              35     -2.049326  1 H  fzzz       
    63     -2.049326  2 H  fxxz              70     -2.049326  2 H  fzzz       
    33     -2.015196  1 H  fyyz              68     -2.015196  2 H  fyyz       
     7     -1.385415  1 H  pz                42     -1.385415  2 H  pz         

 Vector   17  Occ=0.000000D+00  E= 1.598154D+00  Symmetry=a
              MO Center= -1.1D-14,  7.4D-12, -2.3D-16, r^2= 2.2D+00
   Bfn.  Coefficient  Atom+Function         Bfn.  Coefficient  Atom+Function  
  ----- ------------  ---------------      ----- ------------  ---------------
     8      5.213343  1 H  px                43      5.213343  2 H  px         
    26     -2.049326  1 H  fxxx              31     -2.049326  1 H  fxzz       
    61     -2.049326  2 H  fxxx              66     -2.049326  2 H  fxzz       
    29     -2.015196  1 H  fxyy              64     -2.015196  2 H  fxyy       
     5     -1.385415  1 H  px                40     -1.385415  2 H  px         

 Vector   18  Occ=0.000000D+00  E= 1.937199D+00  Symmetry=a
              MO Center= -8.1D-15,  1.5D-11, -7.4D-16, r^2= 1.8D+00
   Bfn.  Coefficient  Atom+Function         Bfn.  Coefficient  Atom+Function  
  ----- ------------  ---------------      ----- ------------  ---------------
    10      3.367976  1 H  pz                45      3.367976  2 H  pz         
    28     -1.318139  1 H  fxxz              33     -1.312010  1 H  fyyz       
    35     -1.318139  1 H  fzzz              63     -1.318139  2 H  fxxz       
    68     -1.312010  2 H  fyyz              70     -1.318139  2 H  fzzz       
    24     -0.925825  1 H  dyz               59      0.925825  2 H  dyz        

 Vector   19  Occ=0.000000D+00  E= 1.937199D+00  Symmetry=a
              MO Center= -2.2D-15,  1.5D-11,  6.9D-17, r^2= 1.8D+00
   Bfn.  Coefficient  Atom+Function         Bfn.  Coefficient  Atom+Function  
  ----- ------------  ---------------      ----- ------------  ---------------
     8      3.367976  1 H  px                43      3.367976  2 H  px         
    26     -1.318139  1 H  fxxx              29     -1.312010  1 H  fxyy       
    31     -1.318139  1 H  fxzz              61     -1.318139  2 H  fxxx       
    64     -1.312010  2 H  fxyy              66     -1.318139  2 H  fxzz       
    21     -0.925825  1 H  dxy               56      0.925825  2 H  dxy        

 Vector   20  Occ=0.000000D+00  E= 1.955167D+00  Symmetry=a
              MO Center= -4.8D-13,  9.3D-10,  2.8D-13, r^2= 3.4D+00
   Bfn.  Coefficient  Atom+Function         Bfn.  Coefficient  Atom+Function  
  ----- ------------  ---------------      ----- ------------  ---------------
     9      5.644753  1 H  py                44      5.644753  2 H  py         
    27     -2.118837  1 H  fxxy              34     -2.118837  1 H  fyzz       
    62     -2.118837  2 H  fxxy              69     -2.118837  2 H  fyzz       
    32     -2.102606  1 H  fyyy              67     -2.102606  2 H  fyyy       
     3      2.002909  1 H  s                 38     -2.002909  2 H  s          


 Wrote Lagrangian and 1- and 2-particle density matrices to ./H2.mcpdm


     Multipole analysis of the density
     ---------------------------------

     L   x y z        total        nuclear
     -   - - -        -----        -------
     0   0 0 0     -0.000000      2.000000

     1   1 0 0     -0.000000      0.000000
     1   0 1 0      0.000000      0.000000
     1   0 0 1      0.000000      0.000000

     2   2 0 0     -2.092713      0.000000
     2   1 1 0      0.000000      0.000000
     2   1 0 1     -0.000000      0.000000
     2   0 2 0     -1.138558      4.500000
     2   0 1 1     -0.000000      0.000000
     2   0 0 2     -2.092713      0.000000


  Mulliken analysis of the total density
  --------------------------------------

    Atom       Charge   Shell Charges
 -----------   ------   -------------------------------------------------------
    1 H    1     1.00   0.04  0.20  0.47  0.27  0.00 -0.00  0.01  0.00  0.01  0.00
    2 H    1     1.00   0.04  0.20  0.47  0.27  0.00 -0.00  0.01  0.00  0.01  0.00

    Mulliken analysis of the active space density
    ---------------------------------------------

    Atom       Charge   Shell Charges
 -----------   ------   -------------------------------------------------------
    1 H    1     1.00   0.04  0.20  0.47  0.27  0.00 -0.00  0.01  0.00  0.01  0.00
    2 H    1     1.00   0.04  0.20  0.47  0.27  0.00 -0.00  0.01  0.00  0.01  0.00

 Parallel integral file used      20 records with       0 large values


 Task  times  cpu:        3.2s     wall:        3.3s


                                NWChem Input Module
                                -------------------


                                 NWChem SCF Module
                                 -----------------


                                        H2



  ao basis        = "ao basis"
  functions       =    70
  atoms           =     2
  closed shells   =     1
  open shells     =     0
  charge          =   0.00
  wavefunction    = RHF 
  input vectors   = ./H2.mos
  output vectors  = ./H2-3.00.mos
  use symmetry    = F
  symmetry adapt  = F


 Summary of "ao basis" -> "ao basis" (cartesian)
 ------------------------------------------------------------------------------
       Tag                 Description            Shells   Functions and Types
 ---------------- ------------------------------  ------  ---------------------
 H                          cc-pVQZ                 10       35   4s3p2d1f



 Forming initial guess at       3.3s


 Loading old vectors from job with title :

H2


 Starting SCF solution at       3.3s



 ----------------------------------------------
         Quadratically convergent ROHF

 Convergence threshold     :          1.000E-04
 Maximum no. of iterations :           30
 Final Fock-matrix accuracy:          1.000E-07
 ----------------------------------------------


 Integral file          = ./H2.aoints.0
 Record size in doubles =  65536        No. of integs per rec  =  43688
 Max. records in memory =     99        Max. records in file   = 280205
 No. of bits per label  =      8        No. of bits per value  =     64


 #quartets = 2.213D+04 #integrals = 8.458D+05 #direct =  0.0% #cached =100.0%



       Final RHF  results 
       ------------------ 

         Total SCF energy =     -0.985626149418
      One-electron energy =     -1.794996216345
      Two-electron energy =      0.476036733593
 Nuclear repulsion energy =      0.333333333333

        Time for solution =      0.0s


             Final eigenvalues
             -----------------

              1      
    1   -0.4405
    2   -0.0688
    3   -0.0020
    4   -0.0016
    5   -0.0016
    6   -0.0002
    7   -0.0001
    8   -0.0001
    9   -0.0001
   10   -0.0001
   11    0.4766

                       ROHF Final Molecular Orbital Analysis
                       -------------------------------------

 Vector    1  Occ=2.000000D+00  E=-4.404968D-01
              MO Center=  2.9D-16, -6.0D-13, -2.6D-16, r^2= 1.4D+00
   Bfn.  Coefficient  Atom+Function         Bfn.  Coefficient  Atom+Function  
  ----- ------------  ---------------      ----- ------------  ---------------
     3      0.291140  1 H  s                 38      0.291140  2 H  s          
     4      0.181829  1 H  s                 39      0.181829  2 H  s          
     2      0.154509  1 H  s                 37      0.154509  2 H  s          

 Vector    2  Occ=0.000000D+00  E=-6.879897D-02
              MO Center=  5.7D-15, -1.3D-12, -4.3D-15, r^2= 1.4D+00
   Bfn.  Coefficient  Atom+Function         Bfn.  Coefficient  Atom+Function  
  ----- ------------  ---------------      ----- ------------  ---------------
     3      0.459950  1 H  s                 38     -0.459950  2 H  s          
     2      0.247965  1 H  s                 37     -0.247965  2 H  s          
     4      0.171978  1 H  s                 39     -0.171978  2 H  s          

 Vector    3  Occ=0.000000D+00  E=-2.002738D-03
              MO Center= -5.3D-14, -3.4D-11,  3.5D-14, r^2= 2.3D+00
   Bfn.  Coefficient  Atom+Function         Bfn.  Coefficient  Atom+Function  
  ----- ------------  ---------------      ----- ------------  ---------------
     9     -0.487154  1 H  py                44      0.487154  2 H  py         
     4      0.483088  1 H  s                 39      0.483088  2 H  s          
    12     -0.247048  1 H  py                47      0.247048  2 H  py         
     2     -0.213037  1 H  s                 37     -0.213037  2 H  s          
    27      0.152980  1 H  fxxy              34      0.152980  1 H  fyzz       

 Vector    4  Occ=0.000000D+00  E=-1.621184D-03
              MO Center=  7.9D-14,  9.4D-12, -4.5D-15, r^2= 1.3D+00
   Bfn.  Coefficient  Atom+Function         Bfn.  Coefficient  Atom+Function  
  ----- ------------  ---------------      ----- ------------  ---------------
    11      0.579436  1 H  px                46      0.579436  2 H  px         
    21      0.258362  1 H  dxy               56     -0.258362  2 H  dxy        
     8     -0.233288  1 H  px                43     -0.233288  2 H  px         
    29      0.178903  1 H  fxyy              64      0.178903  2 H  fxyy       

 Vector    5  Occ=0.000000D+00  E=-1.621184D-03
              MO Center= -2.2D-15,  9.2D-12, -4.2D-14, r^2= 1.3D+00
   Bfn.  Coefficient  Atom+Function         Bfn.  Coefficient  Atom+Function  
  ----- ------------  ---------------      ----- ------------  ---------------
    13      0.579436  1 H  pz                48      0.579436  2 H  pz         
    24      0.258362  1 H  dyz               59     -0.258362  2 H  dyz        
    10     -0.233288  1 H  pz                45     -0.233288  2 H  pz         
    33      0.178903  1 H  fyyz              68      0.178903  2 H  fyyz       

 Vector    6  Occ=0.000000D+00  E=-2.191510D-04
              MO Center= -1.3D-14, -3.5D-11,  6.6D-15, r^2= 1.3D+00
   Bfn.  Coefficient  Atom+Function         Bfn.  Coefficient  Atom+Function  
  ----- ------------  ---------------      ----- ------------  ---------------
     2      0.734444  1 H  s                 37      0.734444  2 H  s          
    12     -0.324959  1 H  py                47      0.324959  2 H  py         
     3     -0.260808  1 H  s                 38     -0.260808  2 H  s          
     4     -0.222694  1 H  s                 39     -0.222694  2 H  s          

 Vector    7  Occ=0.000000D+00  E=-1.262945D-04
              MO Center= -2.7D-12,  1.8D-10,  1.6D-12, r^2= 1.7D+00
   Bfn.  Coefficient  Atom+Function         Bfn.  Coefficient  Atom+Function  
  ----- ------------  ---------------      ----- ------------  ---------------
     2      0.682676  1 H  s                 37     -0.682676  2 H  s          
     3     -0.502676  1 H  s                 38      0.502676  2 H  s          
     9      0.439275  1 H  py                44      0.439275  2 H  py         
     4     -0.303753  1 H  s                 39      0.303753  2 H  s          

 Vector    8  Occ=0.000000D+00  E=-1.149746D-04
              MO Center=  2.7D-12, -1.0D-11, -1.2D-13, r^2= 1.2D+00
   Bfn.  Coefficient  Atom+Function         Bfn.  Coefficient  Atom+Function  
  ----- ------------  ---------------      ----- ------------  ---------------
     8      0.721325  1 H  px                43     -0.721325  2 H  px         
    11      0.366928  1 H  px                46     -0.366928  2 H  px         
    21      0.200338  1 H  dxy               56      0.200338  2 H  dxy        
    26     -0.156953  1 H  fxxx              31     -0.156953  1 H  fxzz       
    61      0.156953  2 H  fxxx              66      0.156953  2 H  fxzz       

 Vector    9  Occ=0.000000D+00  E=-1.149746D-04
              MO Center= -6.6D-14, -1.0D-11, -1.4D-12, r^2= 1.2D+00
   Bfn.  Coefficient  Atom+Function         Bfn.  Coefficient  Atom+Function  
  ----- ------------  ---------------      ----- ------------  ---------------
    10      0.721325  1 H  pz                45     -0.721325  2 H  pz         
    13      0.366928  1 H  pz                48     -0.366928  2 H  pz         
    24      0.200338  1 H  dyz               59      0.200338  2 H  dyz        
    28     -0.156953  1 H  fxxz              35     -0.156953  1 H  fzzz       
    63      0.156953  2 H  fxxz              70      0.156953  2 H  fzzz       

 Vector   10  Occ=0.000000D+00  E=-5.169913D-05
              MO Center= -5.2D-16,  1.1D-09,  1.3D-17, r^2= 2.2D+00
   Bfn.  Coefficient  Atom+Function         Bfn.  Coefficient  Atom+Function  
  ----- ------------  ---------------      ----- ------------  ---------------
     9      1.464101  1 H  py                44     -1.464101  2 H  py         
     3     -1.223032  1 H  s                 38     -1.223032  2 H  s          
    12     -0.673523  1 H  py                47      0.673523  2 H  py         
    27     -0.567953  1 H  fxxy              34     -0.567953  1 H  fyzz       
    62      0.567953  2 H  fxxy              69      0.567953  2 H  fyzz       

 Vector   11  Occ=0.000000D+00  E= 4.766324D-01
              MO Center=  3.9D-13, -8.5D-12, -2.3D-13, r^2= 7.4D+00
   Bfn.  Coefficient  Atom+Function         Bfn.  Coefficient  Atom+Function  
  ----- ------------  ---------------      ----- ------------  ---------------
     4     -2.725371  1 H  s                 39      2.725371  2 H  s          
     3      2.668810  1 H  s                 38     -2.668810  2 H  s          
     9      0.816233  1 H  py                44      0.816233  2 H  py         
     2     -0.686134  1 H  s                 37      0.686134  2 H  s          
    12     -0.672674  1 H  py                47     -0.672674  2 H  py         

 Vector   12  Occ=0.000000D+00  E= 8.303291D-01
              MO Center=  1.3D-16,  2.7D-10,  8.4D-17, r^2= 5.0D+00
   Bfn.  Coefficient  Atom+Function         Bfn.  Coefficient  Atom+Function  
  ----- ------------  ---------------      ----- ------------  ---------------
     3      3.565768  1 H  s                 38      3.565768  2 H  s          
     9      1.661411  1 H  py                44     -1.661411  2 H  py         
     4     -1.377727  1 H  s                 39     -1.377727  2 H  s          
     2     -1.143280  1 H  s                 37     -1.143280  2 H  s          
    12     -0.690993  1 H  py                47      0.690993  2 H  py         


 center of mass
 --------------
 x =   0.00000000 y =   0.00000000 z =   0.00000000

 moments of inertia (a.u.)
 ------------------
           4.535212500000           0.000000000000           0.000000000000
           0.000000000000           0.000000000000           0.000000000000
           0.000000000000           0.000000000000           4.535212500000

  Mulliken analysis of the total density
  --------------------------------------

    Atom       Charge   Shell Charges
 -----------   ------   -------------------------------------------------------
    1 H    1     1.00   0.04  0.19  0.46  0.29  0.00 -0.00  0.01  0.00  0.01  0.00
    2 H    1     1.00   0.04  0.19  0.46  0.29  0.00 -0.00  0.01  0.00  0.01  0.00

       Multipole analysis of the density wrt the origin
       ------------------------------------------------

     L   x y z        total         open         nuclear
     -   - - -        -----         ----         -------
     0   0 0 0     -0.000000      0.000000      2.000000

     1   1 0 0     -0.000000      0.000000      0.000000
     1   0 1 0      0.000000      0.000000      0.000000
     1   0 0 1      0.000000      0.000000      0.000000

     2   2 0 0     -2.159690      0.000000      0.000000
     2   1 1 0     -0.000000      0.000000      0.000000
     2   1 0 1     -0.000000      0.000000      0.000000
     2   0 2 0     -0.938875      0.000000      4.500000
     2   0 1 1      0.000000      0.000000      0.000000
     2   0 0 2     -2.159690      0.000000      0.000000


 Parallel integral file used      20 records with       0 large values

                   NWChem Extensible Many-Electron Theory Module
                   ---------------------------------------------

              ======================================================
                   This portion of the program was automatically
                  generated by a Tensor Contraction Engine (TCE).
                  The development of this portion of the program
                 and TCE was supported by US Department of Energy,
                Office of Science, Office of Basic Energy Science.
                      TCE is a product of Battelle and PNNL.
              Please cite: S.Hirata, J.Phys.Chem.A 107, 9887 (2003).
              ======================================================

                                        H2


            General Information
            -------------------
      Number of processors :     1
         Wavefunction type : Restricted Hartree-Fock
          No. of electrons :     2
           Alpha electrons :     1
            Beta electrons :     1
           No. of orbitals :   140
            Alpha orbitals :    70
             Beta orbitals :    70
        Alpha frozen cores :     0
         Beta frozen cores :     0
     Alpha frozen virtuals :     0
      Beta frozen virtuals :     0
         Spin multiplicity : singlet 
    Number of AO functions :    70
       Number of AO shells :    20
        Use of symmetry is : off
      Symmetry adaption is : off
         Schwarz screening : 0.10D-09

          Correlation Information
          -----------------------
          Calculation type : Coupled-cluster singles & doubles                           
   Perturbative correction : none                                                        
            Max iterations :      300
        Residual threshold : 0.10D-06
     T(0) DIIS level shift : 0.80D+00
     L(0) DIIS level shift : 0.00D+00
     T(1) DIIS level shift : 0.00D+00
     L(1) DIIS level shift : 0.00D+00
     T(R) DIIS level shift : 0.00D+00
     T(I) DIIS level shift : 0.00D+00
   CC-T/L Amplitude update :  5-th order DIIS
                I/O scheme : Global Array Library
        L-threshold :  0.10D-06
        EOM-threshold :  0.10D-06
 no EOMCCSD initial starts read in
 TCE RESTART OPTIONS
 READ_INT:   F
 WRITE_INT:  F
 READ_TA:    F
 WRITE_TA:   F
 READ_XA:    F
 WRITE_XA:   F
 READ_IN3:   F
 WRITE_IN3:  F
 SLICE:      F
 D4D5:       F
 quantumc:   F
 qrotation:  F
 pwtce:      F
 qducc:      T
 nacto:                         0
 nrotv:                         0
 nrot:                          0

            Memory Information
            ------------------
          Available GA space size is    1610607836 doubles
          Available MA space size is    1610610644 doubles

 Maximum block size        32 doubles

 tile_dim =     23

 Block   Spin    Irrep     Size     Offset   Alpha
 -------------------------------------------------
   1    alpha     a      1 doubles       0       1
   2    beta      a      1 doubles       1       1
   3    alpha     a     23 doubles       2       3
   4    alpha     a     23 doubles      25       4
   5    alpha     a     23 doubles      48       5
   6    beta      a     23 doubles      71       3
   7    beta      a     23 doubles      94       4
   8    beta      a     23 doubles     117       5

 Global array virtual files algorithm will be used

 Parallel file system coherency ......... OK

 Integral file          = ./H2.aoints.0
 Record size in doubles =  65536        No. of integs per rec  =  43688
 Max. records in memory =     99        Max. records in file   = 280205
 No. of bits per label  =      8        No. of bits per value  =     64


 #quartets = 2.215D+04 #integrals = 8.600D+05 #direct =  0.0% #cached =100.0%


 Fock matrix recomputed
 1-e file size   =             4900
 1-e file name   = ./H2.f1
 Cpu & wall time / sec            0.1            0.1
 4-electron integrals stored in orbital form

 v2    file size   =          6102085
 4-index algorithm nr.  13 is used
 imaxsize =       30
 imaxsize ichop =        0
 Cpu & wall time / sec            2.2            2.2
 T1-number-of-tasks                    3

 t1 file size   =               69
 t1 file name   = ./H2.t1
 t1 file handle =       -998
 T2-number-of-boxes                   15

 t2 file size   =             7935
 t2 file name   = ./H2.t2
 t2 file handle =       -996
CCSD iterations
 ---------------------------------------------------------
 Iter          Residuum       Correlation     Cpu    Wall 
 ---------------------------------------------------------
NEW TASK SCHEDULING
CCSD_T1_NTS --- OK
CCSD_T2_NTS --- OK
    1   0.5734956107748  -0.0907647183607     0.1     0.1
    2   0.3561381701156  -0.0502044701142     0.1     0.1
    3   0.2505411712074  -0.0694769144251     0.1     0.1
    4   0.2038688694414  -0.0592391323305     0.1     0.1
    5   0.1734383219371  -0.0679156399083     0.1     0.1
 MICROCYCLE DIIS UPDATE:                    5                    5
    6   0.0230392767458  -0.0655010048419     0.1     0.1
    7   0.0167844001164  -0.0668161272134     0.1     0.1
    8   0.0137297550539  -0.0675442759401     0.1     0.1
    9   0.0113882808610  -0.0682344048956     0.1     0.1
   10   0.0095069924700  -0.0687243816950     0.0     0.1
 MICROCYCLE DIIS UPDATE:                   10                    5
   11   0.0018500514858  -0.0710715247145     0.1     0.1
   12   0.0009474317092  -0.0709765388163     0.1     0.1
   13   0.0006335584995  -0.0709897607247     0.1     0.1
   14   0.0004821646335  -0.0709683816824     0.0     0.1
   15   0.0003732425292  -0.0709844464662     0.1     0.1
 MICROCYCLE DIIS UPDATE:                   15                    5
   16   0.0001585512189  -0.0709824692229     0.1     0.1
   17   0.0001136920616  -0.0709908784448     0.1     0.1
   18   0.0000930224608  -0.0709944662859     0.1     0.1
   19   0.0000772627282  -0.0709993329131     0.1     0.1
   20   0.0000659808852  -0.0710019435340     0.1     0.1
 MICROCYCLE DIIS UPDATE:                   20                    5
   21   0.0000174664163  -0.0710159917057     0.1     0.1
   22   0.0000094579750  -0.0710159105273     0.2     0.2
   23   0.0000060033212  -0.0710159995470     0.1     0.1
   24   0.0000045304290  -0.0710161613992     0.0     0.1
   25   0.0000033466386  -0.0710162375497     0.1     0.1
 MICROCYCLE DIIS UPDATE:                   25                    5
   26   0.0000018482333  -0.0710165219649     0.1     0.1
   27   0.0000013768127  -0.0710166062429     0.1     0.1
   28   0.0000011467952  -0.0710166515553     0.1     0.1
   29   0.0000009938758  -0.0710166926014     0.1     0.1
   30   0.0000008698535  -0.0710167295810     0.1     0.1
 MICROCYCLE DIIS UPDATE:                   30                    5
   31   0.0000002186427  -0.0710168631400     0.1     0.1
   32   0.0000001193581  -0.0710168596756     0.1     0.1
   33   0.0000000778692  -0.0710168639000     0.1     0.1
 -----------------------------------------------------------------
 Iterations converged
 CCSD correlation energy / hartree =        -0.071016863900011
 CCSD total energy / hartree       =        -1.056643013318215

 Singles contributions

 Doubles contributions
     2a   (alpha)     2a   (beta ) ---     1a   (alpha)     1a   (beta )       -0.3303979096
     3a   (alpha)     3a   (beta ) ---     1a   (alpha)     1a   (beta )       -0.0422027252
     4a   (alpha)     4a   (beta ) ---     1a   (alpha)     1a   (beta )       -0.0383206237
     5a   (alpha)     5a   (beta ) ---     1a   (alpha)     1a   (beta )       -0.0383206237
 Ground state specification:
 exp(T)|Ref>~(1+T)|Ref>
 ------- a(p)+/a(q) strings ----------

 singles norm

 doubles norm

 Reference string
  0.94951615121888544      :(1a)+ (1b)+ |0>

 Singles strings

 Doubles strings
 -0.31371815149027404      :(2a)+ (2b)+ (1b)  (1a)  (1a)+ (1b)+ |0>
 -------------------------------------
 enrep_tce =   0.33333333333333326     
  EHF(total)         =        -0.98562615
  Shift (HFtot-HFA)  =         0.00000000
 ALL OCCUPIED ORBITALS ARE ACTIVE IN DUCC --> NO SHIFT
 Number of active orbitals                   10
 Number of active alpha electrons                    1
 Number of active beta electrons                    1
  nos                     2
  nvs                   138
 noas                     1
 nobs                     1
 nvas                    69
 nvbs                    69
 nactv                     9
 DUCC MODEL =                     6
 NONHF =  T
 F-T1 correlation    =    8.2705994637485166E-006
 V-T1-T1 correlation =    4.6103304325684043E-009
 V-T2 correlation    =   -7.1025139109805277E-002
 Total correlation   =   -7.1016863900011093E-002
 F-T1(Ext) correlation         =   -9.3307993907087197E-007
 V-T1(Ext)-T1(Ext) correlation =    2.1398149068325872E-010
 V-T2(Ext) correlation         =   -1.3954058535820984E-003
 Total Ext correlation         =   -1.3963387195396785E-003
1-BODY TIME =   30.922 SECONDS.
  HHHH TIME =   24.906 SECONDS.
  PPPP TIME =   36.782 SECONDS.
  HHHP TIME =    2.527 SECONDS.
  PPPH TIME =    2.712 SECONDS.
  HPHP TIME =    4.213 SECONDS.
  HHPP TIME =    2.254 SECONDS.
 ONE-BODY UNITARY CHECK
 TWO-BODY UNITARY CHECK
 TWO-BODY ANTISYMMETRY CHECK
 TRANSFORMED ~FOCK~ MATRIX
    1    1        -0.4235582096
    1    3        -0.0038613928
    1    6         0.0407923783
    1   10        -0.0050426519
    2    2         0.0920201463
    2    7         0.1875855634
    3    1        -0.0038613928
    3    3         0.6210210793
    3    6         0.0948664521
    3   10        -0.5078836621
    4    4         0.6260687932
    5    5         0.6260687932
    6    1         0.0407923783
    6    3         0.0948664521
    6    6         1.0499240188
    6   10        -0.1191092981
    7    2         0.1875855634
    7    7         1.3746886997
    7   10        -0.0000000003
    8    8         1.3267679556
    9    9         1.3267679556
   10    1        -0.0050426519
   10    3        -0.5078836621
   10    6        -0.1191092981
   10    7        -0.0000000003
   10   10         1.8241370429
 begin_one_electron_integrals
    1    1        -0.8974973026
    1    3         0.0955533462
    1    6        -0.0068985625
    1   10        -0.0032652948
    2    2        -0.6997968703
    2    7         0.0308087045
    3    1         0.0955533462
    3    3        -0.1567075375
    3    6         0.0331395934
    3   10        -0.3177159094
    4    4        -0.1849737851
    5    5        -0.1849737851
    6    1        -0.0068985625
    6    3         0.0331395934
    6    6         0.1507266594
    6   10        -0.0902006763
    7    2         0.0308087045
    7    7         0.4817360260
    7   10        -0.0000000002
    8    8         0.4342946208
    9    9         0.4342946208
   10    1        -0.0032652948
   10    3        -0.3177159094
   10    6        -0.0902006763
   10    7        -0.0000000002
   10   10         0.9792984154
 end_one_electron_integrals
 begin_two_electron_integrals
    1    1    1    1        0.4739390931
    1    1    1    3       -0.0994147390
    1    1    1    6        0.0476909407
    1    1    1   10       -0.0017773571
    1    2    1    2        0.1749306793
    1    2    1    7        0.0461666449
    1    3    1    1       -0.0994147390
    1    3    1    3        0.0774845327
    1    3    1    6        0.0021658162
    1    3    1   10       -0.0215460332
    1    4    1    4        0.0706676564
    1    5    1    5        0.0706676564
    1    6    1    1        0.0476909407
    1    6    1    3        0.0021658162
    1    6    1    6        0.0715907529
    1    6    1   10       -0.0075819765
    1    7    1    2        0.0461666449
    1    7    1    7        0.0617728121
    1    8    1    8        0.0534894815
    1    9    1    9        0.0534894815
    1   10    1    1       -0.0017773571
    1   10    1    3       -0.0215460332
    1   10    1    6       -0.0075819765
    1   10    1   10        0.0304958673
    1    1    2    2        0.4841925111
    1    1    2    7        0.1016078850
    1    2    2    1        0.1765680055
    1    2    2    3       -0.0056027310
    1    2    2    6        0.1310563551
    1    2    2   10       -0.0193942772
    1    3    2    2       -0.0825129240
    1    3    2    7       -0.0734219050
    1    4    2    8        0.0653932986
    1    4    2    9       -0.0001634242
    1    5    2    8        0.0001634242
    1    5    2    9        0.0653932986
    1    6    2    2        0.0872753234
    1    6    2    7        0.0268161322
    1    7    2    1        0.0464389113
    1    7    2    3       -0.0409147153
    1    7    2    6        0.0409919107
    1    7    2   10       -0.0013125687
    1    8    2    4        0.0411225995
    1    8    2    5        0.0001027693
    1    9    2    4       -0.0001027693
    1    9    2    5        0.0411225995
    1   10    2    2       -0.0108943766
    1   10    2    7        0.0115357898
    1    1    3    1       -0.0994147390
    1    1    3    3        0.4281946441
    1    1    3    6        0.0320913601
    1    1    3   10       -0.1060232297
    1    2    3    2       -0.0056058945
    1    2    3    7       -0.1248301941
    1    3    3    1        0.0786606714
    1    3    3    3       -0.1048453169
    1    3    3    6       -0.0201511571
    1    3    3   10        0.0808895767
    1    4    3    4       -0.0136736062
    1    5    3    5       -0.0136736062
    1    6    3    1        0.0024558616
    1    6    3    3        0.0134030977
    1    6    3    6       -0.0127026728
    1    6    3   10        0.0087781052
    1    7    3    2       -0.0409494111
    1    7    3    7       -0.0388519824
    1    8    3    8       -0.0045957774
    1    9    3    9       -0.0045957774
    1   10    3    1       -0.0218787068
    1   10    3    3        0.0281344008
    1   10    3    6        0.0106057690
    1   10    3   10       -0.0311971801
    1    1    4    4        0.4412888884
    1    2    4    8        0.1220046281
    1    2    4    9       -0.0003049013
    1    3    4    4       -0.0900832325
    1    4    4    1        0.0715351985
    1    4    4    3       -0.0137189836
    1    4    4    6       -0.0374164146
    1    4    4   10       -0.0261255834
    1    6    4    4        0.0015609760
    1    7    4    8        0.0270233864
    1    7    4    9       -0.0000675341
    1    8    4    2        0.0411549889
    1    8    4    7        0.0031663860
    1    9    4    2       -0.0001028503
    1    9    4    7       -0.0000079131
    1   10    4    4       -0.0096109582
    1    1    5    5        0.4412888884
    1    2    5    8        0.0003049013
    1    2    5    9        0.1220046281
    1    3    5    5       -0.0900832325
    1    5    5    1        0.0715351985
    1    5    5    3       -0.0137189836
    1    5    5    6       -0.0374164146
    1    5    5   10       -0.0261255834
    1    6    5    5        0.0015609760
    1    7    5    8        0.0000675341
    1    7    5    9        0.0270233864
    1    8    5    2        0.0001028503
    1    8    5    7        0.0000079131
    1    9    5    2        0.0411549889
    1    9    5    7        0.0031663860
    1   10    5    5       -0.0096109582
    1    1    6    1        0.0476909407
    1    1    6    3        0.0320913601
    1    1    6    6        0.4859357963
    1    1    6   10       -0.0183312882
    1    2    6    2        0.1310673372
    1    2    6    7        0.0613943806
    1    3    6    1        0.0024558616
    1    3    6    3       -0.0201588213
    1    3    6    6       -0.0968957659
    1    3    6   10        0.0141232339
    1    4    6    4       -0.0374245992
    1    5    6    5       -0.0374245992
    1    6    6    1        0.0726742333
    1    6    6    3       -0.0127331988
    1    6    6    6        0.0669609490
    1    6    6   10       -0.0182615955
    1    7    6    2        0.0410441512
    1    7    6    7        0.0406468829
    1    8    6    8        0.0142677315
    1    9    6    9        0.0142677315
    1   10    6    1       -0.0077539546
    1   10    6    3        0.0106037979
    1   10    6    6       -0.0122044916
    1   10    6   10       -0.0112222409
    1    1    7    2        0.1016078850
    1    1    7    7        0.4776437265
    1    2    7    1        0.0464389113
    1    2    7    3       -0.1248291305
    1    2    7    6        0.0613552940
    1    2    7   10        0.0066321242
    1    3    7    2       -0.0734555127
    1    3    7    7       -0.1082935646
    1    4    7    8        0.0078358043
    1    4    7    9       -0.0000195824
    1    5    7    8        0.0000195824
    1    5    7    9        0.0078358043
    1    6    7    2        0.0268291865
    1    6    7    7        0.0671082316
    1    7    7    1        0.0623347794
    1    7    7    3       -0.0388955858
    1    7    7    6        0.0406480239
    1    7    7   10        0.0311940271
    1    8    7    4        0.0031436112
    1    8    7    5        0.0000078562
    1    9    7    4       -0.0000078562
    1    9    7    5        0.0031436112
    1   10    7    2        0.0115884125
    1   10    7    7        0.0167150633
    1    1    8    8        0.4734924645
    1    2    8    4        0.1219991886
    1    2    8    5        0.0003048877
    1    3    8    8       -0.0874249083
    1    4    8    2        0.0654202273
    1    4    8    7        0.0078568132
    1    5    8    2        0.0001634915
    1    5    8    7        0.0000196349
    1    6    8    8        0.0474840598
    1    7    8    4        0.0270216309
    1    7    8    5        0.0000675297
    1    8    8    1        0.0545115943
    1    8    8    3       -0.0046272222
    1    8    8    6        0.0142852895
    1    8    8   10       -0.0187671162
    1   10    8    8       -0.0148617591
    1    1    9    9        0.4734924645
    1    2    9    4       -0.0003048877
    1    2    9    5        0.1219991886
    1    3    9    9       -0.0874249083
    1    4    9    2       -0.0001634915
    1    4    9    7       -0.0000196349
    1    5    9    2        0.0654202273
    1    5    9    7        0.0078568132
    1    6    9    9        0.0474840598
    1    7    9    4       -0.0000675297
    1    7    9    5        0.0270216309
    1    9    9    1        0.0545115943
    1    9    9    3       -0.0046272222
    1    9    9    6        0.0142852895
    1    9    9   10       -0.0187671162
    1   10    9    9       -0.0148617591
    1    1   10    1       -0.0017773571
    1    1   10    3       -0.1060232297
    1    1   10    6       -0.0183312882
    1    1   10   10        0.4378947293
    1    2   10    2       -0.0193946686
    1    2   10    7        0.0066210557
    1    3   10    1       -0.0218787068
    1    3   10    3        0.0808912867
    1    3   10    6        0.0141247422
    1    3   10   10       -0.1141588527
    1    4   10    4       -0.0261390653
    1    5   10    5       -0.0261390653
    1    6   10    1       -0.0077539546
    1    6   10    3        0.0087776396
    1    6   10    6       -0.0182708473
    1    6   10   10        0.0065452014
    1    7   10    2       -0.0012710613
    1    7   10    7        0.0311957563
    1    8   10    8       -0.0187758431
    1    9   10    9       -0.0187758431
    1   10   10    1        0.0309508311
    1   10   10    3       -0.0312153112
    1   10   10    6       -0.0112129889
    1   10   10   10        0.0312084968
    2    1    1    2        0.1765680055
    2    1    1    7        0.0464389113
    2    2    1    1        0.4841925111
    2    2    1    3       -0.0825129240
    2    2    1    6        0.0872753234
    2    2    1   10       -0.0108943766
    2    3    1    2       -0.0056027310
    2    3    1    7       -0.0409147153
    2    4    1    8        0.0411225995
    2    4    1    9       -0.0001027693
    2    5    1    8        0.0001027693
    2    5    1    9        0.0411225995
    2    6    1    2        0.1310563551
    2    6    1    7        0.0409919107
    2    7    1    1        0.1016078850
    2    7    1    3       -0.0734219050
    2    7    1    6        0.0268161322
    2    7    1   10        0.0115357898
    2    8    1    4        0.0653932986
    2    8    1    5        0.0001634242
    2    9    1    4       -0.0001634242
    2    9    1    5        0.0653932986
    2   10    1    2       -0.0193942772
    2   10    1    7       -0.0013125687
    2    1    2    1        0.1749306793
    2    1    2    3       -0.0056058945
    2    1    2    6        0.1310673372
    2    1    2   10       -0.0193946686
    2    2    2    2        0.5167876500
    2    2    2    7        0.1005032981
    2    3    2    1       -0.0056058945
    2    3    2    3        0.0322040574
    2    3    2    6       -0.0060937363
    2    3    2   10       -0.0011138356
    2    4    2    4        0.0314561941
    2    5    2    5        0.0314561941
    2    6    2    1        0.1310673372
    2    6    2    3       -0.0060937363
    2    6    2    6        0.1204983188
    2    6    2   10       -0.0177312359
    2    7    2    2        0.1005032981
    2    7    2    7        0.0921770470
    2    8    2    8        0.0755834800
    2    9    2    9        0.0755834800
    2   10    2    1       -0.0193946686
    2   10    2    3       -0.0011138356
    2   10    2    6       -0.0177312359
    2   10    2   10        0.0154250956
    2    1    3    2       -0.0056027310
    2    1    3    7       -0.1248291305
    2    2    3    1       -0.0825129240
    2    2    3    3        0.4161104356
    2    2    3    6        0.0218579043
    2    2    3   10       -0.0851295750
    2    3    3    2        0.0322040573
    2    3    3    7        0.0081946848
    2    4    3    8       -0.0023230638
    2    4    3    9        0.0000058056
    2    5    3    8       -0.0000058056
    2    5    3    9       -0.0023230638
    2    6    3    2       -0.0060937381
    2    6    3    7       -0.0825999798
    2    7    3    1       -0.0734555127
    2    7    3    3        0.0871856924
    2    7    3    6        0.0011645030
    2    7    3   10       -0.0660718004
    2    8    3    4       -0.0077339651
    2    8    3    5       -0.0000193279
    2    9    3    4        0.0000193279
    2    9    3    5       -0.0077339651
    2   10    3    2       -0.0011138359
    2   10    3    7       -0.0016881865
    2    1    4    8        0.1219991886
    2    1    4    9       -0.0003048877
    2    2    4    4        0.4268574892
    2    3    4    8       -0.0032340885
    2    3    4    9        0.0000080823
    2    4    4    2        0.0314562012
    2    4    4    7        0.0008970836
    2    6    4    8        0.0732716346
    2    6    4    9       -0.0001831129
    2    7    4    4        0.0765715015
    2    8    4    1        0.0654202273
    2    8    4    3       -0.0077339631
    2    8    4    6       -0.0176925260
    2    8    4   10       -0.0235319573
    2    9    4    1       -0.0001634915
    2    9    4    3        0.0000193279
    2    9    4    6        0.0000442153
    2    9    4   10        0.0000588086
    2   10    4    8       -0.0168818857
    2   10    4    9        0.0000421895
    2    1    5    8        0.0003048877
    2    1    5    9        0.1219991886
    2    2    5    5        0.4268574892
    2    3    5    8       -0.0000080823
[...]
    9    1    2    4       -0.0001028503
    9    1    2    5        0.0411549889
    9    2    2    9        0.0755834841
    9    3    2    4        0.0000058056
    9    3    2    5       -0.0023230609
    9    4    2    1       -0.0003049013
    9    4    2    3        0.0000080823
    9    4    2    6       -0.0001831129
    9    4    2   10        0.0000421895
    9    5    2    1        0.1220046281
    9    5    2    3       -0.0032340876
    9    5    2    6        0.0732716320
    9    5    2   10       -0.0168818851
    9    6    2    4       -0.0000228537
    9    6    2    5        0.0091447759
    9    7    2    9        0.0091121172
    9    9    2    2        0.4849598110
    9    9    2    7        0.0904243284
    9   10    2    4        0.0000358515
    9   10    2    5       -0.0143457894
    9    1    3    9       -0.0046272222
    9    2    3    4        0.0000193279
    9    2    3    5       -0.0077339631
    9    3    3    9        0.0122230155
    9    4    3    2        0.0000080823
    9    4    3    7        0.0002182007
    9    5    3    2       -0.0032340885
    9    5    3    7       -0.0873118310
    9    6    3    9       -0.0006308494
    9    7    3    4        0.0000403928
    9    7    3    5       -0.0161629757
    9    9    3    1       -0.0874249083
    9    9    3    3        0.4144555348
    9    9    3    6        0.0277235802
    9    9    3   10       -0.0911176616
    9   10    3    9       -0.0008196257
    9    1    4    2       -0.0001027693
    9    1    4    7       -0.0000078562
    9    2    4    1       -0.0001634242
    9    2    4    3        0.0000193279
    9    2    4    6        0.0000442153
    9    2    4   10        0.0000588086
    9    3    4    2        0.0000058056
    9    3    4    7        0.0000293275
    9    4    4    8       -0.0002504764
    9    4    4    9        0.0129405386
    9    5    4    8        0.0872868393
    9    5    4    9       -0.0002504764
    9    6    4    2       -0.0000228537
    9    6    4    7       -0.0000069757
    9    7    4    1       -0.0000195824
    9    7    4    3        0.0000403929
    9    7    4    6       -0.0000005230
    9    7    4   10       -0.0000043613
    9    8    4    4       -0.0000898711
    9    8    4    5        0.0179805967
    9    9    4    4        0.4270580340
    9    9    4    5       -0.0000898711
    9   10    4    2        0.0000358515
    9   10    4    7       -0.0000040833
    9    1    5    2        0.0411225995
    9    1    5    7        0.0031436112
    9    2    5    1        0.0653932986
    9    2    5    3       -0.0077339651
    9    2    5    6       -0.0176925169
    9    2    5   10       -0.0235319585
    9    3    5    2       -0.0023230638
    9    3    5    7       -0.0117352256
    9    4    5    8        0.0129393061
    9    4    5    9       -0.0002504764
    9    5    5    8        0.0002504764
    9    5    5    9        0.1131666841
    9    6    5    2        0.0091447876
    9    6    5    7        0.0027912778
    9    7    5    1        0.0078358043
    9    7    5    3       -0.0161629854
    9    7    5    6        0.0002092806
    9    7    5   10        0.0017451640
    9    8    5    4        0.0179806162
    9    8    5    5        0.0000898711
    9    9    5    4       -0.0000898711
    9    9    5    5        0.4630192468
    9   10    5    2       -0.0143457911
    9   10    5    7        0.0016338918
    9    1    6    9        0.0142852895
    9    2    6    4        0.0000442153
    9    2    6    5       -0.0176925260
    9    3    6    9       -0.0006308494
    9    4    6    2       -0.0001831129
    9    4    6    7       -0.0000904122
    9    5    6    2        0.0732716346
    9    5    6    7        0.0361779353
    9    6    6    9        0.0164265652
    9    7    6    4       -0.0000005230
    9    7    6    5        0.0002092728
    9    9    6    1        0.0474840598
    9    9    6    3        0.0277235802
    9    9    6    6        0.4747706536
    9    9    6   10       -0.0136881270
    9   10    6    9       -0.0038549490
    9    1    7    4       -0.0000079131
    9    1    7    5        0.0031663860
    9    2    7    9        0.0091121172
    9    3    7    4        0.0000293274
    9    3    7    5       -0.0117352195
    9    4    7    1       -0.0000675341
    9    4    7    3        0.0002182007
    9    4    7    6       -0.0000904122
    9    4    7   10       -0.0000170798
    9    5    7    1        0.0270233864
    9    5    7    3       -0.0873118346
    9    5    7    6        0.0361779344
    9    5    7   10        0.0068343880
    9    6    7    4       -0.0000069757
    9    6    7    5        0.0027912691
    9    7    7    9        0.0209137575
    9    9    7    2        0.0904243284
    9    9    7    7        0.4660204002
    9   10    7    4       -0.0000040832
    9   10    7    5        0.0016338840
    9    4    8    4       -0.0002504763
    9    4    8    5        0.0129392872
    9    5    8    4        0.0872868399
    9    5    8    5        0.0002504763
    9    8    8    9        0.0221532445
    9    9    8    8        0.4642442627
    9    1    9    1        0.0534894815
    9    1    9    3       -0.0045957774
    9    1    9    6        0.0142677315
    9    1    9   10       -0.0187758431
    9    2    9    2        0.0755834800
    9    2    9    7        0.0091121143
    9    3    9    1       -0.0045957774
    9    3    9    3        0.0122230128
    9    3    9    6       -0.0006308593
    9    3    9   10       -0.0008196251
    9    4    9    4        0.0129405806
    9    4    9    5       -0.0002504763
    9    5    9    4       -0.0002504763
    9    5    9    5        0.1131667077
    9    6    9    1        0.0142677315
    9    6    9    3       -0.0006308593
    9    6    9    6        0.0164266025
    9    6    9   10       -0.0038549497
    9    7    9    2        0.0091121143
    9    7    9    7        0.0209137936
    9    8    9    8        0.0221532735
    9    9    9    9        0.5085507807
    9   10    9    1       -0.0187758431
    9   10    9    3       -0.0008196251
    9   10    9    6       -0.0038549497
    9   10    9   10        0.0120421615
    9    1   10    9       -0.0187671162
    9    2   10    4        0.0000588086
    9    2   10    5       -0.0235319573
    9    3   10    9       -0.0008196257
    9    4   10    2        0.0000421895
    9    4   10    7       -0.0000170798
    9    5   10    2       -0.0168818857
    9    5   10    7        0.0068343855
    9    6   10    9       -0.0038549490
    9    7   10    4       -0.0000043613
    9    7   10    5        0.0017451538
    9    9   10    1       -0.0148617591
    9    9   10    3       -0.0911176616
    9    9   10    6       -0.0136881270
    9    9   10   10        0.4227097085
    9   10   10    9        0.0120421505
   10    1    1    1       -0.0017773571
   10    1    1    3       -0.0218787068
   10    1    1    6       -0.0077539546
   10    1    1   10        0.0309508311
   10    2    1    2       -0.0193946686
   10    2    1    7       -0.0012710613
   10    3    1    1       -0.1060232297
   10    3    1    3        0.0808912867
   10    3    1    6        0.0087776396
   10    3    1   10       -0.0312153112
   10    4    1    4       -0.0261390653
   10    5    1    5       -0.0261390653
   10    6    1    1       -0.0183312882
   10    6    1    3        0.0141247422
   10    6    1    6       -0.0182708473
   10    6    1   10       -0.0112129889
   10    7    1    2        0.0066210557
   10    7    1    7        0.0311957563
   10    8    1    8       -0.0187758431
   10    9    1    9       -0.0187758431
   10   10    1    1        0.4378947293
   10   10    1    3       -0.1141588527
   10   10    1    6        0.0065452014
   10   10    1   10        0.0312084968
   10    1    2    2       -0.0108943766
   10    1    2    7        0.0115884125
   10    2    2    1       -0.0193942772
   10    2    2    3       -0.0011138359
   10    2    2    6       -0.0177312353
   10    2    2   10        0.0154250956
   10    3    2    2       -0.0851295750
   10    3    2    7       -0.0660718010
   10    4    2    8       -0.0235319585
   10    4    2    9        0.0000588086
   10    5    2    8       -0.0000588086
   10    5    2    9       -0.0235319585
   10    6    2    2       -0.0250313271
   10    6    2    7       -0.0147691773
   10    7    2    1        0.0066321242
   10    7    2    3       -0.0252745879
   10    7    2    6       -0.0001097193
   10    7    2   10        0.0047456793
   10    8    2    4       -0.0143457911
   10    8    2    5       -0.0000358515
   10    9    2    4        0.0000358515
   10    9    2    5       -0.0143457911
   10   10    2    2        0.4202136711
   10   10    2    7        0.0922348552
   10    1    3    1       -0.0215460332
   10    1    3    3        0.0281344008
   10    1    3    6        0.0106037979
   10    1    3   10       -0.0312153112
   10    2    3    2       -0.0011138356
   10    2    3    7       -0.0016881890
   10    3    3    1        0.0808895767
   10    3    3    3       -0.1222339059
   10    3    3    6       -0.0270550814
   10    3    3   10        0.1005704551
   10    4    3    4       -0.0015130399
   10    5    3    5       -0.0015130399
   10    6    3    1        0.0141232339
   10    6    3    3       -0.0209500786
   10    6    3    6       -0.0059222663
   10    6    3   10        0.0190697621
   10    7    3    2       -0.0252745897
   10    7    3    7       -0.0146096375
   10    8    3    8       -0.0008196251
   10    9    3    9       -0.0008196251
   10   10    3    1       -0.1141588527
   10   10    3    3        0.4370509969
   10   10    3    6        0.0466211216
   10   10    3   10       -0.1378296786
   10    1    4    4       -0.0096109582
   10    2    4    8       -0.0168818851
   10    2    4    9        0.0000421895
   10    3    4    4       -0.0962471742
   10    4    4    1       -0.0261255834
   10    4    4    3       -0.0015130477
   10    4    4    6        0.0162413875
   10    4    4   10        0.0204710557
   10    6    4    4       -0.0004859993
   10    7    4    8        0.0068343880
   10    7    4    9       -0.0000170798
   10    8    4    2       -0.0143457894
   10    8    4    7        0.0016338840
   10    9    4    2        0.0000358515
   10    9    4    7       -0.0000040832
   10   10    4    4        0.4175241521
   10    1    5    5       -0.0096109582
   10    2    5    8       -0.0000421895
   10    2    5    9       -0.0168818851
   10    3    5    5       -0.0962471742
   10    5    5    1       -0.0261255834
   10    5    5    3       -0.0015130477
   10    5    5    6        0.0162413875
   10    5    5   10        0.0204710557
   10    6    5    5       -0.0004859993
   10    7    5    8        0.0000170798
   10    7    5    9        0.0068343880
   10    8    5    2       -0.0000358515
   10    8    5    7        0.0000040832
   10    9    5    2       -0.0143457894
   10    9    5    7        0.0016338840
   10   10    5    5        0.4175241521
   10    1    6    1       -0.0075819765
   10    1    6    3        0.0106057690
   10    1    6    6       -0.0122044916
   10    1    6   10       -0.0112129889
   10    2    6    2       -0.0177312359
   10    2    6    7       -0.0080387824
   10    3    6    1        0.0087781052
   10    3    6    3       -0.0270550819
   10    3    6    6       -0.0991452702
   10    3    6   10        0.0190697621
   10    4    6    4        0.0162413878
   10    5    6    5        0.0162413878
   10    6    6    1       -0.0182615955
   10    6    6    3       -0.0059222656
   10    6    6    6       -0.0205928634
   10    6    6   10        0.0179045843
   10    7    6    2       -0.0001097175
   10    7    6    7        0.0099013630
   10    8    6    8       -0.0038549497
   10    9    6    9       -0.0038549497
   10   10    6    1        0.0065452014
   10   10    6    3        0.0466211216
   10   10    6    6        0.4314790430
   10   10    6   10       -0.0210078435
   10    1    7    2        0.0115357898
   10    1    7    7        0.0167150633
   10    2    7    1       -0.0013125687
   10    2    7    3       -0.0016881865
   10    2    7    6       -0.0080387809
   10    2    7   10        0.0047456793
   10    3    7    2       -0.0660718004
   10    3    7    7       -0.1132025893
   10    4    7    8        0.0017451640
   10    4    7    9       -0.0000043613
   10    5    7    8        0.0000043613
   10    5    7    9        0.0017451640
   10    6    7    2       -0.0147691740
   10    6    7    7       -0.0228412365
   10    7    7    1        0.0311940271
   10    7    7    3       -0.0146096504
   10    7    7    6        0.0099013755
   10    7    7   10        0.0322263787
   10    8    7    4        0.0016338918
   10    8    7    5        0.0000040833
   10    9    7    4       -0.0000040833
   10    9    7    5        0.0016338918
   10   10    7    2        0.0922348552
   10   10    7    7        0.4454626084
   10    1    8    8       -0.0148617591
   10    2    8    4       -0.0168818857
   10    2    8    5       -0.0000421895
   10    3    8    8       -0.0911176616
   10    4    8    2       -0.0235319573
   10    4    8    7        0.0017451538
   10    5    8    2       -0.0000588086
   10    5    8    7        0.0000043613
   10    6    8    8       -0.0136881270
   10    7    8    4        0.0068343855
   10    7    8    5        0.0000170798
   10    8    8    1       -0.0187671162
   10    8    8    3       -0.0008196257
   10    8    8    6       -0.0038549490
   10    8    8   10        0.0120421505
   10   10    8    8        0.4227097085
   10    1    9    9       -0.0148617591
   10    2    9    4        0.0000421895
   10    2    9    5       -0.0168818857
   10    3    9    9       -0.0911176616
   10    4    9    2        0.0000588086
   10    4    9    7       -0.0000043613
   10    5    9    2       -0.0235319573
   10    5    9    7        0.0017451538
   10    6    9    9       -0.0136881270
   10    7    9    4       -0.0000170798
   10    7    9    5        0.0068343855
   10    9    9    1       -0.0187671162
   10    9    9    3       -0.0008196257
   10    9    9    6       -0.0038549490
   10    9    9   10        0.0120421505
   10   10    9    9        0.4227097085
   10    1   10    1        0.0304958673
   10    1   10    3       -0.0311971801
   10    1   10    6       -0.0112222409
   10    1   10   10        0.0312084968
   10    2   10    2        0.0154250956
   10    2   10    7        0.0047456785
   10    3   10    1       -0.0311971801
   10    3   10    3        0.1005704554
   10    3   10    6        0.0190697577
   10    3   10   10       -0.1378296786
   10    4   10    4        0.0204710696
   10    5   10    5        0.0204710696
   10    6   10    1       -0.0112222409
   10    6   10    3        0.0190697577
   10    6   10    6        0.0179045967
   10    6   10   10       -0.0210078435
   10    7   10    2        0.0047456785
   10    7   10    7        0.0322263753
   10    8   10    8        0.0120421615
   10    9   10    9        0.0120421615
   10   10   10    1        0.0312084968
   10   10   10    3       -0.1378296786
   10   10   10    6       -0.0210078435
   10   10   10   10        0.4618433115
 end_two_electron_integrals

 Parallel integral file used      20 records with       0 large values


 Task  times  cpu:      136.7s     wall:      139.9s


                                NWChem Input Module
                                -------------------


 Summary of allocated global arrays
-----------------------------------
  No active global arrays


MA_summarize_allocated_blocks: starting scan ...
MA_summarize_allocated_blocks: scan completed: 0 heap blocks, 0 stack blocks
MA usage statistics:

	allocation statistics:
					      heap	     stack
					      ----	     -----
	current number of blocks	         0	         0
	maximum number of blocks	        18	        42
	current total bytes		         0	         0
	maximum total bytes		  51983048	9994007128
	maximum total K-bytes		     51984	   9994008
	maximum total M-bytes		        52	      9995


                                     CITATION
                                     --------
                Please cite the following reference when publishing
                           results obtained with NWChem:

          E. Apra, E. J. Bylaska, W. A. de Jong, N. Govind, K. Kowalski,
       T. P. Straatsma, M. Valiev, H. J. J. van Dam, Y. Alexeev, J. Anchell,
       V. Anisimov, F. W. Aquino, R. Atta-Fynn, J. Autschbach, N. P. Bauman,
     J. C. Becca, D. E. Bernholdt, K. Bhaskaran-Nair, S. Bogatko, P. Borowski,
         J. Boschen, J. Brabec, A. Bruner, E. Cauet, Y. Chen, G. N. Chuev,
      C. J. Cramer, J. Daily, M. J. O. Deegan, T. H. Dunning Jr., M. Dupuis,
   K. G. Dyall, G. I. Fann, S. A. Fischer, A. Fonari, H. Fruchtl, L. Gagliardi,
      J. Garza, N. Gawande, S. Ghosh, K. Glaesemann, A. W. Gotz, J. Hammond,
       V. Helms, E. D. Hermes, K. Hirao, S. Hirata, M. Jacquelin, L. Jensen,
   B. G. Johnson, H. Jonsson, R. A. Kendall, M. Klemm, R. Kobayashi, V. Konkov,
      S. Krishnamoorthy, M. Krishnan, Z. Lin, R. D. Lins, R. J. Littlefield,
      A. J. Logsdail, K. Lopata, W. Ma, A. V. Marenich, J. Martin del Campo,
   D. Mejia-Rodriguez, J. E. Moore, J. M. Mullin, T. Nakajima, D. R. Nascimento,
    J. A. Nichols, P. J. Nichols, J. Nieplocha, A. Otero-de-la-Roza, B. Palmer,
    A. Panyala, T. Pirojsirikul, B. Peng, R. Peverati, J. Pittner, L. Pollack,
   R. M. Richard, P. Sadayappan, G. C. Schatz, W. A. Shelton, D. W. Silverstein,
   D. M. A. Smith, T. A. Soares, D. Song, M. Swart, H. L. Taylor, G. S. Thomas,
            V. Tipparaju, D. G. Truhlar, K. Tsemekhman, T. Van Voorhis,
      A. Vazquez-Mayagoitia, P. Verma, O. Villa, A. Vishnu, K. D. Vogiatzis,
        D. Wang, J. H. Weare, M. J. Williamson, T. L. Windus, K. Wolinski,
        A. T. Wong, Q. Wu, C. Yang, Q. Yu, M. Zacharias, Z. Zhang, Y. Zhao,
                                and R. J. Harrison
                        "NWChem: Past, present, and future
                         J. Chem. Phys. 152, 184102 (2020)
                               doi:10.1063/5.0004997

                                      AUTHORS
                                      -------
  E. Apra, E. J. Bylaska, N. Govind, K. Kowalski, M. Valiev, D. Mejia-Rodriguez,
       A. Kunitsa, N. P. Bauman, A. Panyala, W. A. de Jong, T. P. Straatsma,
        H. J. J. van Dam, D. Wang, T. L. Windus, J. Hammond, J. Autschbach,
    K. Bhaskaran-Nair, J. Brabec, K. Lopata, S. A. Fischer, S. Krishnamoorthy,
     M. Jacquelin, W. Ma, M. Klemm, O. Villa, Y. Chen, V. Anisimov, F. Aquino,
    S. Hirata, M. T. Hackler, Eric Hermes, L. Jensen, J. E. Moore, J. C. Becca,
      V. Konjkov, T. Risthaus, M. Malagoli, A. Marenich, A. Otero-de-la-Roza,
        J. Mullin, P. Nichols, R. Peverati, J. Pittner, Y. Zhao, P.-D. Fan,
        A. Fonari, M. J. Williamson, R. J. Harrison, J. R. Rehr, M. Dupuis,
     D. Silverstein, D. M. A. Smith, J. Nieplocha, V. Tipparaju, M. Krishnan,
     B. E. Van Kuiken, A. Vazquez-Mayagoitia, M. Swart, Q. Wu, T. Van Voorhis,
     A. A. Auer, M. Nooijen, L. D. Crosby, E. Brown, G. Cisneros, G. I. Fann,
   H. Fruchtl, J. Garza, K. Hirao, R. A. Kendall, J. A. Nichols, K. Tsemekhman,
    K. Wolinski, J. Anchell, D. E. Bernholdt, P. Borowski, T. Clark, D. Clerc,
   H. Dachsel, M. J. O. Deegan, K. Dyall, D. Elwood, E. Glendening, M. Gutowski,
   A. C. Hess, J. Jaffe, B. G. Johnson, J. Ju, R. Kobayashi, R. Kutteh, Z. Lin,
   R. Littlefield, X. Long, B. Meng, T. Nakajima, S. Niu, L. Pollack, M. Rosing,
   K. Glaesemann, G. Sandrone, M. Stave, H. Taylor, G. Thomas, J. H. van Lenthe,
                               A. T. Wong, Z. Zhang.

 Total times  cpu:      139.9s     wall:      143.2s
