 argument  1 = input.nw
  NWChem w/ OpenMP: maximum threads =    1



============================== echo of input deck ==============================
 echo
 start H2
 title "H2"

 memory total 24 gb

 geometry units bohr
 symmetry c1
        H  0.00000000  0.00000000  0.00000000
        H  0.00000000  3.85  0.00000000
 end

 basis
   * library cc-pVQZ
 end

 mcscf
   active  10
   actelec 2
   multiplicity 1
   maxiter 40
   vectors input H2.mos
   vectors output H2.mos
 end

 task mcscf

 scf
   vectors input H2.mos
   vectors output H2-3.85.mos
   noscf
 end

 tce
   2eorb
   2emet 13
   ccsd
   maxiter 300
   lshift 0.8
 end

# set tce:print_integrals T
# set tce:qorb 10
# set tce:qela 1
# set tce:qelb 1

 set tce:qducc T
 set tce:nactv 9
 set tce:nonhf T
 set tce:ducc_model 6

 set tce:printtol 0.02

 task tce
================================================================================


                                         
                                         


             Northwest Computational Chemistry Package (NWChem) 7.0.1
             --------------------------------------------------------


                    Environmental Molecular Sciences Laboratory
                       Pacific Northwest National Laboratory
                                Richland, WA 99352

                              Copyright (c) 1994-2020
                       Pacific Northwest National Laboratory
                            Battelle Memorial Institute

             NWChem is an open-source computational chemistry package
                        distributed under the terms of the
                      Educational Community License (ECL) 2.0
             A copy of the license is included with this distribution
                              in the LICENSE.TXT file

                                  ACKNOWLEDGMENT
                                  --------------

            This software and its documentation were developed at the
            EMSL at Pacific Northwest National Laboratory, a multiprogram
            national laboratory, operated for the U.S. Department of Energy
            by Battelle under Contract Number DE-AC05-76RL01830. Support
            for this work was provided by the Department of Energy Office
            of Biological and Environmental Research, Office of Basic
            Energy Sciences, and the Office of Advanced Scientific Computing.


           Job information
           ---------------

    hostname        = WE46210
    program         = /home/baum612/code/nwchem/bin/LINUX64/nwchem
    date            = Sat Nov 11 01:43:02 2023

    compiled        = Mon_Nov_06_10:06:57_2023
    source          = /home/baum612/code/nwchem
    nwchem branch   = 7.0.0
    nwchem revision = nwchem_on_git-4191-g39d87d64de
    ga revision     = 5.8.1
    use scalapack   = F
    input           = input.nw
    prefix          = H2.
    data base       = ./H2.db
    status          = startup
    nproc           =        1
    time left       =     -1s



           Memory information
           ------------------

    heap     =  805306362 doubles =   6144.0 Mbytes
    stack    =  805306367 doubles =   6144.0 Mbytes
    global   = 1610612736 doubles =  12288.0 Mbytes (distinct from heap & stack)
    total    = 3221225465 doubles =  24576.0 Mbytes
    verify   = yes
    hardfail = no 


           Directory information
           ---------------------

  0 permanent = .
  0 scratch   = .




                                NWChem Input Module
                                -------------------


                                        H2
                                        --
 Turning off AUTOSYM since
 SYMMETRY directive was detected!


          ------
          auto-z
          ------
     1 autoz failed with cvr_scaling = 1.2 changing to 1.3
     2 autoz failed with cvr_scaling = 1.3 changing to 1.4
     3 autoz failed with cvr_scaling = 1.4 changing to 1.5
     4 autoz failed with cvr_scaling = 1.5 changing to 1.6
     5 autoz failed with cvr_scaling = 1.6 changing to 1.7

 AUTOZ failed to generate good internal coordinates.
 Cartesian coordinates will be used in optimizations.



                             Geometry "geometry" -> ""
                             -------------------------

 Output coordinates in a.u. (scale by  1.000000000 to convert to a.u.)

  No.       Tag          Charge          X              Y              Z
 ---- ---------------- ---------- -------------- -------------- --------------
    1 H                    1.0000     0.00000000    -1.92500000     0.00000000
    2 H                    1.0000     0.00000000     1.92500000     0.00000000

      Atomic Mass 
      ----------- 

      H                  1.007825


 Effective nuclear repulsion energy (a.u.)       0.2597402597

            Nuclear Dipole moment (a.u.) 
            ----------------------------
        X                 Y               Z
 ---------------- ---------------- ----------------
     0.0000000000     0.0000000000     0.0000000000


            XYZ format geometry
            -------------------
     2
 geometry
 H                     0.00000000    -1.01866620     0.00000000
 H                     0.00000000     1.01866620     0.00000000



 Summary of "ao basis" -> "" (cartesian)
 ------------------------------------------------------------------------------
       Tag                 Description            Shells   Functions and Types
 ---------------- ------------------------------  ------  ---------------------
 *                          cc-pVQZ                   on all atoms 


                      Basis "ao basis" -> "ao basis" (cartesian)
                      -----
  H (Hydrogen)
  ------------
            Exponent  Coefficients 
       -------------- ---------------------------------------------------------
  1 S  8.26400000E+01  0.002006
  1 S  1.24100000E+01  0.015343
  1 S  2.82400000E+00  0.075579

  2 S  7.97700000E-01  1.000000

  3 S  2.58100000E-01  1.000000

  4 S  8.98900000E-02  1.000000

  5 P  2.29200000E+00  1.000000

  6 P  8.38000000E-01  1.000000

  7 P  2.92000000E-01  1.000000

  8 D  2.06200000E+00  1.000000

  9 D  6.62000000E-01  1.000000

 10 F  1.39700000E+00  1.000000



 Summary of "ao basis" -> "ao basis" (cartesian)
 ------------------------------------------------------------------------------
       Tag                 Description            Shells   Functions and Types
 ---------------- ------------------------------  ------  ---------------------
 H                          cc-pVQZ                 10       35   4s3p2d1f



                            NWChem Direct MCSCF Module
                            --------------------------


                                        H2


     -----------------------------------
       Basis functions:             70
       Inactive shells:              0
       Active shells:               10
       Active electrons:             2
       Symmetry:                    a       
       Multiplicity:                 1
       Orbital rotations:          600
     -----------------------------------

     -----------------------------------
       E2 extrapolation:             F
       Conjugacy:                    T
       Micro CI relax:               T
       Canonical orbitals:           T
       Maximum iterations:          40
       Converge threshold:    1.00E-04
       Conjugacy resets:            20
       Initial levelshift:        0.10
     -----------------------------------

 Loading old vectors from job with title :

H2


   input molecular orbitals = ./H2.mos
  output molecular orbtials = ./H2.mos

       No. of determinants:           100


  Starting Orbital Energies
    -0.375835    -0.123807    -0.001017    -0.000668    -0.000668    -0.000081
    -0.000040    -0.000040    -0.000039    -0.000019     0.476636     0.806728
     1.000418     1.394105     1.394105     1.775845     1.775845     1.776040
     1.879658     1.879658     2.059864     2.059864     2.117620     2.117620
     2.136620     2.327946     2.327946     2.891936     2.950618     3.062041
     4.327210     4.412062     4.412062     4.448424     4.448424     4.718724
     5.920633     6.010382     6.010382     6.055866     6.055866     6.064803
     6.064803     6.066001     6.066001     6.076286     6.076286     6.134602
     6.134602     6.340273     8.041689     8.041689     8.096605     8.114542
     8.114542     8.153414     8.153414     8.309225     8.309225     8.831460
     9.615039     9.684348     9.690512     9.690512     9.741565     9.741565
     9.782731     9.952766    22.287079    23.078471

  Orbital Symmetry Irreps
a    a    a    a    a    a    a    a    a    a    a    a    a    a    a   
a    a    a    a    a    a    a    a    a    a    a    a    a    a    a   
a    a    a    a    a    a    a    a    a    a    a    a    a    a    a   
a    a    a    a    a    a    a    a    a    a    a    a    a    a    a   
a    a    a    a    a    a    a    a    a    a   

 Integral file          = ./H2.aoints.0
 Record size in doubles =  65536        No. of integs per rec  =  43688
 Max. records in memory =     99        Max. records in file   = 280148
 No. of bits per label  =      8        No. of bits per value  =     64


 #quartets = 2.193D+04 #integrals = 7.963D+05 #direct =  0.0% #cached =100.0%




          %%%%% MacroIteration   1 %%%%%


          Number of sigma calls:       14
                       o<<<<< (aa):             0.00
                       o<<<<< (bb):             0.00
                       o<<<<< (ab):             0.01
                       o<<<<< (total)           0.02
                       o<<<<< (aa) ff           0.00
                       o<<<<< (aa) gop          0.00
                       o<<<<< (aa) dot          0.00
                       o<<<<< (ab) str          0.00
                       o<<<<< (ab) gath         0.00
                       o<<<<< (ab) dotab        0.00
                       o<<<<< (ab) scat         0.00
                       o<<<<< (ab) sync         0.00
                       o<<<<< Density           0.00
                       o<<<<< Density one       0.00
                       o<<<<< Density two       0.00
                       o<<<<< Density ab        0.00
                       o<<<<< Spin adapt        0.00
                       o<<<<< Symm adapt        0.00

                       o<<<<< (ab) max sync:      0.00

           >>>| Valence CI:             -1.279035627778
           >>>| MCSCF energy:           -1.019295368038
           >>>| Gradient norm:          0.237889414D-02
     --- Warning:  466 Hessian diagonals < 0.05 ---

                              ----- Line search ------

        step       energy         lsg     num-lsg   num-lsh   lsrat    time
      ------- ---------------- --------- --------- --------- ------- --------
       0.0000      -1.01929537 -1.01D-06  0.00D+00  0.00D+00 0.0D+00      0.3

          Number of sigma calls:       11
                       o<<<<< (aa):             0.00
                       o<<<<< (bb):             0.00
                       o<<<<< (ab):             0.01
                       o<<<<< (total)           0.01
                       o<<<<< (aa) ff           0.00
                       o<<<<< (aa) gop          0.00
                       o<<<<< (aa) dot          0.00
                       o<<<<< (ab) str          0.00
                       o<<<<< (ab) gath         0.00
                       o<<<<< (ab) dotab        0.00
                       o<<<<< (ab) scat         0.00
                       o<<<<< (ab) sync         0.00
                       o<<<<< Density           0.00
                       o<<<<< Density one       0.00
                       o<<<<< Density two       0.00
                       o<<<<< Density ab        0.00
                       o<<<<< Spin adapt        0.00
                       o<<<<< Symm adapt        0.00

                       o<<<<< (ab) max sync:      0.00
       1.0000      -1.01929602 -2.89D-07 -2.89D-07  7.23D-07 2.9D-01      0.5

          Number of sigma calls:       10
                       o<<<<< (aa):             0.00
                       o<<<<< (bb):             0.00
                       o<<<<< (ab):             0.01
                       o<<<<< (total)           0.01
                       o<<<<< (aa) ff           0.00
                       o<<<<< (aa) gop          0.00
                       o<<<<< (aa) dot          0.00
                       o<<<<< (ab) str          0.00
                       o<<<<< (ab) gath         0.00
                       o<<<<< (ab) dotab        0.00
                       o<<<<< (ab) scat         0.00
                       o<<<<< (ab) sync         0.00
                       o<<<<< Density           0.00
                       o<<<<< Density one       0.00
                       o<<<<< Density two       0.00
                       o<<<<< Density ab        0.00
                       o<<<<< Spin adapt        0.00
                       o<<<<< Symm adapt        0.00

                       o<<<<< (ab) max sync:      0.00
       1.4000      -1.01929608  1.42D-10  1.36D-10  7.24D-07 1.4D-04      0.7
     --- Orbitals canonicalized ---



          %%%%% MacroIteration   2 %%%%%


          Number of sigma calls:       14
                       o<<<<< (aa):             0.00
                       o<<<<< (bb):             0.00
                       o<<<<< (ab):             0.01
                       o<<<<< (total)           0.02
                       o<<<<< (aa) ff           0.00
                       o<<<<< (aa) gop          0.00
                       o<<<<< (aa) dot          0.00
                       o<<<<< (ab) str          0.00
                       o<<<<< (ab) gath         0.00
                       o<<<<< (ab) dotab        0.00
                       o<<<<< (ab) scat         0.00
                       o<<<<< (ab) sync         0.00
                       o<<<<< Density           0.00
                       o<<<<< Density one       0.00
                       o<<<<< Density two       0.00
                       o<<<<< Density ab        0.00
                       o<<<<< Spin adapt        0.00
                       o<<<<< Symm adapt        0.00

                       o<<<<< (ab) max sync:      0.00

           >>>| Valence CI:             -1.279036336465
           >>>| MCSCF energy:           -1.019296076724
           >>>| Gradient norm:          0.674604338D-03
     --- Warning:  466 Hessian diagonals < 0.05 ---
     --- Conjugacy reset ---

                              ----- Line search ------

        step       energy         lsg     num-lsg   num-lsh   lsrat    time
      ------- ---------------- --------- --------- --------- ------- --------
       0.0000      -1.01929608 -9.96D-08  0.00D+00  0.00D+00 0.0D+00      1.0

          Number of sigma calls:        9
                       o<<<<< (aa):             0.00
                       o<<<<< (bb):             0.00
                       o<<<<< (ab):             0.01
                       o<<<<< (total)           0.01
                       o<<<<< (aa) ff           0.00
                       o<<<<< (aa) gop          0.00
                       o<<<<< (aa) dot          0.00
                       o<<<<< (ab) str          0.00
                       o<<<<< (ab) gath         0.00
                       o<<<<< (ab) dotab        0.00
                       o<<<<< (ab) scat         0.00
                       o<<<<< (ab) sync         0.00
                       o<<<<< Density           0.00
                       o<<<<< Density one       0.00
                       o<<<<< Density two       0.00
                       o<<<<< Density ab        0.00
                       o<<<<< Spin adapt        0.00
                       o<<<<< Symm adapt        0.00

                       o<<<<< (ab) max sync:      0.00
       1.0000      -1.01929614 -3.47D-08 -3.47D-08  6.50D-08 3.5D-01      1.2

          Number of sigma calls:        9
                       o<<<<< (aa):             0.00
                       o<<<<< (bb):             0.00
                       o<<<<< (ab):             0.01
                       o<<<<< (total)           0.01
                       o<<<<< (aa) ff           0.00
                       o<<<<< (aa) gop          0.00
                       o<<<<< (aa) dot          0.00
                       o<<<<< (ab) str          0.00
                       o<<<<< (ab) gath         0.00
                       o<<<<< (ab) dotab        0.00
                       o<<<<< (ab) scat         0.00
                       o<<<<< (ab) sync         0.00
                       o<<<<< Density           0.00
                       o<<<<< Density one       0.00
                       o<<<<< Density two       0.00
                       o<<<<< Density ab        0.00
                       o<<<<< Spin adapt        0.00
                       o<<<<< Symm adapt        0.00

                       o<<<<< (ab) max sync:      0.00
       1.5337      -1.01929615  1.57D-11  1.47D-11  6.50D-08 1.6D-04      1.4



          %%%%% MacroIteration   3 %%%%%


          Number of sigma calls:        1
                       o<<<<< (aa):             0.00
                       o<<<<< (bb):             0.00
                       o<<<<< (ab):             0.00
                       o<<<<< (total)           0.00
                       o<<<<< (aa) ff           0.00
                       o<<<<< (aa) gop          0.00
                       o<<<<< (aa) dot          0.00
                       o<<<<< (ab) str          0.00
                       o<<<<< (ab) gath         0.00
                       o<<<<< (ab) dotab        0.00
                       o<<<<< (ab) scat         0.00
                       o<<<<< (ab) sync         0.00
                       o<<<<< Density           0.00
                       o<<<<< Density one       0.00
                       o<<<<< Density two       0.00
                       o<<<<< Density ab        0.00
                       o<<<<< Spin adapt        0.00
                       o<<<<< Symm adapt        0.00

                       o<<<<< (ab) max sync:      0.00

           >>>| Valence CI:             -1.279036412868
           >>>| MCSCF energy:           -1.019296153127
           >>>| Gradient norm:          0.347706859D-03
     --- Warning:  466 Hessian diagonals < 0.05 ---

                              ----- Line search ------

        step       energy         lsg     num-lsg   num-lsh   lsrat    time
      ------- ---------------- --------- --------- --------- ------- --------
       0.0000      -1.01929615 -1.27D-08  0.00D+00  0.00D+00 0.0D+00      1.5

          Number of sigma calls:        8
                       o<<<<< (aa):             0.00
                       o<<<<< (bb):             0.00
                       o<<<<< (ab):             0.01
                       o<<<<< (total)           0.01
                       o<<<<< (aa) ff           0.00
                       o<<<<< (aa) gop          0.00
                       o<<<<< (aa) dot          0.00
                       o<<<<< (ab) str          0.00
                       o<<<<< (ab) gath         0.00
                       o<<<<< (ab) dotab        0.00
                       o<<<<< (ab) scat         0.00
                       o<<<<< (ab) sync         0.00
                       o<<<<< Density           0.00
                       o<<<<< Density one       0.00
                       o<<<<< Density two       0.00
                       o<<<<< Density ab        0.00
                       o<<<<< Spin adapt        0.00
                       o<<<<< Symm adapt        0.00

                       o<<<<< (ab) max sync:      0.00
       1.0000      -1.01929616 -4.24D-09 -4.24D-09  8.44D-09 3.3D-01      1.7

          Number of sigma calls:        8
                       o<<<<< (aa):             0.00
                       o<<<<< (bb):             0.00
                       o<<<<< (ab):             0.01
                       o<<<<< (total)           0.01
                       o<<<<< (aa) ff           0.00
                       o<<<<< (aa) gop          0.00
                       o<<<<< (aa) dot          0.00
                       o<<<<< (ab) str          0.00
                       o<<<<< (ab) gath         0.00
                       o<<<<< (ab) dotab        0.00
                       o<<<<< (ab) scat         0.00
                       o<<<<< (ab) sync         0.00
                       o<<<<< Density           0.00
                       o<<<<< Density one       0.00
                       o<<<<< Density two       0.00
                       o<<<<< Density ab        0.00
                       o<<<<< Spin adapt        0.00
                       o<<<<< Symm adapt        0.00

                       o<<<<< (ab) max sync:      0.00
       1.5023      -1.01929616  9.90D-14  1.02D-13  8.44D-09 7.8D-06      1.9



          %%%%% MacroIteration   4 %%%%%


          Number of sigma calls:        1
                       o<<<<< (aa):             0.00
                       o<<<<< (bb):             0.00
                       o<<<<< (ab):             0.00
                       o<<<<< (total)           0.00
                       o<<<<< (aa) ff           0.00
                       o<<<<< (aa) gop          0.00
                       o<<<<< (aa) dot          0.00
                       o<<<<< (ab) str          0.00
                       o<<<<< (ab) gath         0.00
                       o<<<<< (ab) dotab        0.00
                       o<<<<< (ab) scat         0.00
                       o<<<<< (ab) sync         0.00
                       o<<<<< Density           0.00
                       o<<<<< Density one       0.00
                       o<<<<< Density two       0.00
                       o<<<<< Density ab        0.00
                       o<<<<< Spin adapt        0.00
                       o<<<<< Symm adapt        0.00

                       o<<<<< (ab) max sync:      0.00

           >>>| Valence CI:             -1.279036422397
           >>>| MCSCF energy:           -1.019296162657
           >>>| Gradient norm:          0.176537333D-03
     --- Warning:  466 Hessian diagonals < 0.05 ---

                              ----- Line search ------

        step       energy         lsg     num-lsg   num-lsh   lsrat    time
      ------- ---------------- --------- --------- --------- ------- --------
       0.0000      -1.01929616 -4.41D-08  0.00D+00  0.00D+00 0.0D+00      2.2

          Number of sigma calls:        8
                       o<<<<< (aa):             0.00
                       o<<<<< (bb):             0.00
                       o<<<<< (ab):             0.01
                       o<<<<< (total)           0.01
                       o<<<<< (aa) ff           0.00
                       o<<<<< (aa) gop          0.00
                       o<<<<< (aa) dot          0.00
                       o<<<<< (ab) str          0.00
                       o<<<<< (ab) gath         0.00
                       o<<<<< (ab) dotab        0.00
                       o<<<<< (ab) scat         0.00
                       o<<<<< (ab) sync         0.00
                       o<<<<< Density           0.00
                       o<<<<< Density one       0.00
                       o<<<<< Density two       0.00
                       o<<<<< Density ab        0.00
                       o<<<<< Spin adapt        0.00
                       o<<<<< Symm adapt        0.00

                       o<<<<< (ab) max sync:      0.00
       1.0000      -1.01929620 -3.36D-08 -3.36D-08  1.05D-08 7.6D-01      2.4

          Number of sigma calls:        9
                       o<<<<< (aa):             0.00
                       o<<<<< (bb):             0.00
                       o<<<<< (ab):             0.01
                       o<<<<< (total)           0.01
                       o<<<<< (aa) ff           0.00
                       o<<<<< (aa) gop          0.00
                       o<<<<< (aa) dot          0.00
                       o<<<<< (ab) str          0.00
                       o<<<<< (ab) gath         0.00
                       o<<<<< (ab) dotab        0.00
                       o<<<<< (ab) scat         0.00
                       o<<<<< (ab) sync         0.00
                       o<<<<< Density           0.00
                       o<<<<< Density one       0.00
                       o<<<<< Density two       0.00
                       o<<<<< Density ab        0.00
                       o<<<<< Spin adapt        0.00
                       o<<<<< Symm adapt        0.00

                       o<<<<< (ab) max sync:      0.00
       4.1877      -1.01929625  7.58D-11  6.71D-11  1.06D-08 1.7D-03      2.6



          %%%%% MacroIteration   5 %%%%%


          Number of sigma calls:        1
                       o<<<<< (aa):             0.00
                       o<<<<< (bb):             0.00
                       o<<<<< (ab):             0.00
                       o<<<<< (total)           0.00
                       o<<<<< (aa) ff           0.00
                       o<<<<< (aa) gop          0.00
                       o<<<<< (aa) dot          0.00
                       o<<<<< (ab) str          0.00
                       o<<<<< (ab) gath         0.00
                       o<<<<< (ab) dotab        0.00
                       o<<<<< (ab) scat         0.00
                       o<<<<< (ab) sync         0.00
                       o<<<<< Density           0.00
                       o<<<<< Density one       0.00
                       o<<<<< Density two       0.00
                       o<<<<< Density ab        0.00
                       o<<<<< Spin adapt        0.00
                       o<<<<< Symm adapt        0.00

                       o<<<<< (ab) max sync:      0.00

           >>>| Valence CI:             -1.279036514654
           >>>| MCSCF energy:           -1.019296254913
           >>>| Gradient norm:          0.190797630D-03
     --- Warning:  466 Hessian diagonals < 0.05 ---

                              ----- Line search ------

        step       energy         lsg     num-lsg   num-lsh   lsrat    time
      ------- ---------------- --------- --------- --------- ------- --------
       0.0000      -1.01929625 -3.94D-08  0.00D+00  0.00D+00 0.0D+00      2.8

          Number of sigma calls:        9
                       o<<<<< (aa):             0.00
                       o<<<<< (bb):             0.00
                       o<<<<< (ab):             0.00
                       o<<<<< (total)           0.00
                       o<<<<< (aa) ff           0.00
                       o<<<<< (aa) gop          0.00
                       o<<<<< (aa) dot          0.00
                       o<<<<< (ab) str          0.00
                       o<<<<< (ab) gath         0.00
                       o<<<<< (ab) dotab        0.00
                       o<<<<< (ab) scat         0.00
                       o<<<<< (ab) sync         0.00
                       o<<<<< Density           0.00
                       o<<<<< Density one       0.00
                       o<<<<< Density two       0.00
                       o<<<<< Density ab        0.00
                       o<<<<< Spin adapt        0.00
                       o<<<<< Symm adapt        0.00

                       o<<<<< (ab) max sync:      0.00
       1.0000      -1.01929629 -2.34D-08 -2.34D-08  1.60D-08 5.9D-01      3.0

          Number of sigma calls:        9
                       o<<<<< (aa):             0.00
                       o<<<<< (bb):             0.00
                       o<<<<< (ab):             0.01
                       o<<<<< (total)           0.01
                       o<<<<< (aa) ff           0.00
                       o<<<<< (aa) gop          0.00
                       o<<<<< (aa) dot          0.00
                       o<<<<< (ab) str          0.00
                       o<<<<< (ab) gath         0.00
                       o<<<<< (ab) dotab        0.00
                       o<<<<< (ab) scat         0.00
                       o<<<<< (ab) sync         0.00
                       o<<<<< Density           0.00
                       o<<<<< Density one       0.00
                       o<<<<< Density two       0.00
                       o<<<<< Density ab        0.00
                       o<<<<< Spin adapt        0.00
                       o<<<<< Symm adapt        0.00

                       o<<<<< (ab) max sync:      0.00
       2.4632      -1.01929630 -2.13D-11 -1.89D-11  1.60D-08 5.4D-04      3.1



          %%%%% MacroIteration   6 %%%%%


          Number of sigma calls:        1
                       o<<<<< (aa):             0.00
                       o<<<<< (bb):             0.00
                       o<<<<< (ab):             0.00
                       o<<<<< (total)           0.00
                       o<<<<< (aa) ff           0.00
                       o<<<<< (aa) gop          0.00
                       o<<<<< (aa) dot          0.00
                       o<<<<< (ab) str          0.00
                       o<<<<< (ab) gath         0.00
                       o<<<<< (ab) dotab        0.00
                       o<<<<< (ab) scat         0.00
                       o<<<<< (ab) sync         0.00
                       o<<<<< Density           0.00
                       o<<<<< Density one       0.00
                       o<<<<< Density two       0.00
                       o<<<<< Density ab        0.00
                       o<<<<< Spin adapt        0.00
                       o<<<<< Symm adapt        0.00

                       o<<<<< (ab) max sync:      0.00

           >>>| Valence CI:             -1.279036563193
           >>>| MCSCF energy:           -1.019296303453
           >>>| Gradient norm:          0.407551708D-04




     ==============================
            MCSCF Converged
     ==============================



          Canonical Eigenvalues

              1      
    1   -0.3721
    2   -0.1274
    3   -0.0010
    4   -0.0006
    5   -0.0006
    6   -0.0001
    7   -0.0000
    8   -0.0000
    9   -0.0000
   10   -0.0000
   11    0.4768
   12    0.8066
   13    0.9962
   14    1.3934
   15    1.3934
   16    1.7694
   17    1.7825
   18    1.7825
   19    1.8840
   20    1.8840
   21    2.0624
   22    2.0624
   23    2.1148
   24    2.1148
   25    2.1243
   26    2.3141
   27    2.3141
   28    2.8706
   29    2.9526
   30    3.0526
   31    4.3128
   32    4.4150
   33    4.4150
   34    4.4458
   35    4.4458
   36    4.7234
   37    5.9205
   38    6.0189
   39    6.0189
   40    6.0578
   41    6.0578
   42    6.0649
   43    6.0649
   44    6.0659
   45    6.0659
   46    6.0743
   47    6.0743
   48    6.1234
   49    6.1234
   50    6.3004
   51    8.0443
   52    8.0443
   53    8.0769
   54    8.1163
   55    8.1163
   56    8.1516
   57    8.1516
   58    8.2968
   59    8.2968
   60    8.7977
   61    9.6140
   62    9.6842
   63    9.6910
   64    9.6910
   65    9.7408
   66    9.7408
   67    9.7619
   68    9.9514
   69   22.2521
   70   23.0708


          Converged CI vector

   Index           Coefficient          Config. Occupation
         1         -0.88251904          1  1
        12          0.46798745          2  2
        23          0.02954177          3  3
        34          0.02348101          4  4
        45          0.02348101          5  5

          Number of sigma calls:        1
                       o<<<<< (aa):             0.00
                       o<<<<< (bb):             0.00
                       o<<<<< (ab):             0.00
                       o<<<<< (total)           0.00
                       o<<<<< (aa) ff           0.00
                       o<<<<< (aa) gop          0.00
                       o<<<<< (aa) dot          0.00
                       o<<<<< (ab) str          0.00
                       o<<<<< (ab) gath         0.00
                       o<<<<< (ab) dotab        0.00
                       o<<<<< (ab) scat         0.00
                       o<<<<< (ab) sync         0.00
                       o<<<<< Density           0.00
                       o<<<<< Density one       0.00
                       o<<<<< Density two       0.00
                       o<<<<< Density ab        0.00
                       o<<<<< Spin adapt        0.00
                       o<<<<< Symm adapt        0.00

                       o<<<<< (ab) max sync:      0.00



          Natural orbital occupation numbers

              1      
    1    1.5578
    2    0.4380
    3    0.0017
    4    0.0011
    5    0.0011
    6    0.0001
    7    0.0000
    8    0.0000
    9    0.0000
   10    0.0000


          Number of sigma calls:       14
                       o<<<<< (aa):             0.00
                       o<<<<< (bb):             0.00
                       o<<<<< (ab):             0.00
                       o<<<<< (total)           0.00
                       o<<<<< (aa) ff           0.00
                       o<<<<< (aa) gop          0.00
                       o<<<<< (aa) dot          0.00
                       o<<<<< (ab) str          0.00
                       o<<<<< (ab) gath         0.00
                       o<<<<< (ab) dotab        0.00
                       o<<<<< (ab) scat         0.00
                       o<<<<< (ab) sync         0.00
                       o<<<<< Density           0.00
                       o<<<<< Density one       0.00
                       o<<<<< Density two       0.00
                       o<<<<< Density ab        0.00
                       o<<<<< Spin adapt        0.00
                       o<<<<< Symm adapt        0.00

                       o<<<<< (ab) max sync:      0.00


       Final MCSCF results 
       ------------------- 

       Total MCSCF energy =     -1.019296303453
            Gradient norm =      4.1D-05

    CPU time for solution =      3.2s
   Wall time for solution =      3.9s



                        Analysis of MCSCF natural orbitals
                        ----------------------------------

 Vector    1  Occ=1.557761D+00  E=-3.721039D-01  Symmetry=a
              MO Center=  2.2D-15,  1.7D-12, -1.4D-15, r^2= 1.8D+00
   Bfn.  Coefficient  Atom+Function         Bfn.  Coefficient  Atom+Function  
  ----- ------------  ---------------      ----- ------------  ---------------
     3      0.305798  1 H  s                 38      0.305798  2 H  s          
     4      0.202250  1 H  s                 39      0.202250  2 H  s          
     2      0.159614  1 H  s                 37      0.159614  2 H  s          

 Vector    2  Occ=4.380245D-01  E=-1.273877D-01  Symmetry=a
              MO Center=  3.7D-15, -2.6D-12, -3.4D-15, r^2= 1.9D+00
   Bfn.  Coefficient  Atom+Function         Bfn.  Coefficient  Atom+Function  
  ----- ------------  ---------------      ----- ------------  ---------------
     3      0.413755  1 H  s                 38     -0.413755  2 H  s          
     2      0.209821  1 H  s                 37     -0.209821  2 H  s          
     4      0.197887  1 H  s                 39     -0.197887  2 H  s          

 Vector    3  Occ=1.749889D-03  E=-9.695383D-04  Symmetry=a
              MO Center= -3.4D-14,  1.1D-10,  2.2D-14, r^2= 2.5D+00
   Bfn.  Coefficient  Atom+Function         Bfn.  Coefficient  Atom+Function  
  ----- ------------  ---------------      ----- ------------  ---------------
     4      0.501962  1 H  s                 39      0.501962  2 H  s          
    12     -0.439094  1 H  py                47      0.439094  2 H  py         
     3     -0.415199  1 H  s                 38     -0.415199  2 H  s          
     9     -0.297210  1 H  py                44      0.297210  2 H  py         

 Vector    4  Occ=1.102715D-03  E=-6.254812D-04  Symmetry=a
              MO Center=  1.0D-13,  2.3D-11, -5.2D-15, r^2= 1.8D+00
   Bfn.  Coefficient  Atom+Function         Bfn.  Coefficient  Atom+Function  
  ----- ------------  ---------------      ----- ------------  ---------------
    11     -0.741672  1 H  px                46     -0.741672  2 H  px         
     8      0.734604  1 H  px                43      0.734604  2 H  px         
    29     -0.366615  1 H  fxyy              64     -0.366615  2 H  fxyy       
    26     -0.314528  1 H  fxxx              31     -0.314528  1 H  fxzz       
    61     -0.314528  2 H  fxxx              66     -0.314528  2 H  fxzz       

 Vector    5  Occ=1.102715D-03  E=-6.254812D-04  Symmetry=a
              MO Center= -2.0D-15,  2.3D-11, -5.2D-14, r^2= 1.8D+00
   Bfn.  Coefficient  Atom+Function         Bfn.  Coefficient  Atom+Function  
  ----- ------------  ---------------      ----- ------------  ---------------
    13     -0.741672  1 H  pz                48     -0.741672  2 H  pz         
    10      0.734604  1 H  pz                45      0.734604  2 H  pz         
    33     -0.366615  1 H  fyyz              68     -0.366615  2 H  fyyz       
    28     -0.314528  1 H  fxxz              35     -0.314528  1 H  fzzz       
    63     -0.314528  2 H  fxxz              70     -0.314528  2 H  fzzz       

 Vector    6  Occ=1.127949D-04  E=-7.408853D-05  Symmetry=a
              MO Center= -5.6D-14,  1.6D-10,  3.2D-14, r^2= 1.8D+00
   Bfn.  Coefficient  Atom+Function         Bfn.  Coefficient  Atom+Function  
  ----- ------------  ---------------      ----- ------------  ---------------
     9      0.714607  1 H  py                44     -0.714607  2 H  py         
     2      0.696531  1 H  s                 37      0.696531  2 H  s          
     4     -0.339172  1 H  s                 39     -0.339172  2 H  s          
    12     -0.337130  1 H  py                47      0.337130  2 H  py         
     3     -0.299353  1 H  s                 38     -0.299353  2 H  s          

 Vector    7  Occ=4.515965D-05  E=-3.718751D-05  Symmetry=a
              MO Center=  1.5D-13, -9.8D-12,  1.6D-12, r^2= 1.5D+00
   Bfn.  Coefficient  Atom+Function         Bfn.  Coefficient  Atom+Function  
  ----- ------------  ---------------      ----- ------------  ---------------
    10      0.823992  1 H  pz                45     -0.823992  2 H  pz         
    13      0.331837  1 H  pz                48     -0.331837  2 H  pz         
    24      0.258429  1 H  dyz               59      0.258429  2 H  dyz        
    28     -0.228730  1 H  fxxz              35     -0.228730  1 H  fzzz       
    63      0.228730  2 H  fxxz              70      0.228730  2 H  fzzz       

 Vector    8  Occ=4.515965D-05  E=-3.718751D-05  Symmetry=a
              MO Center= -3.2D-12, -1.0D-11,  3.2D-13, r^2= 1.5D+00
   Bfn.  Coefficient  Atom+Function         Bfn.  Coefficient  Atom+Function  
  ----- ------------  ---------------      ----- ------------  ---------------
     8      0.823992  1 H  px                43     -0.823992  2 H  px         
    11      0.331837  1 H  px                46     -0.331837  2 H  px         
    21      0.258429  1 H  dxy               56      0.258429  2 H  dxy        
    26     -0.228730  1 H  fxxx              31     -0.228730  1 H  fxzz       
    61      0.228730  2 H  fxxx              66      0.228730  2 H  fxzz       

 Vector    9  Occ=4.037541D-05  E=-3.535508D-05  Symmetry=a
              MO Center=  5.8D-12,  3.3D-10, -3.6D-12, r^2= 1.9D+00
   Bfn.  Coefficient  Atom+Function         Bfn.  Coefficient  Atom+Function  
  ----- ------------  ---------------      ----- ------------  ---------------
     9      0.901899  1 H  py                44      0.901899  2 H  py         
     2      0.668658  1 H  s                 37     -0.668658  2 H  s          
     3     -0.614237  1 H  s                 38      0.614237  2 H  s          
    27     -0.264775  1 H  fxxy              34     -0.264775  1 H  fyzz       
    62     -0.264775  2 H  fxxy              69     -0.264775  2 H  fyzz       

 Vector   10  Occ=1.604839D-05  E=-1.759307D-05  Symmetry=a
              MO Center=  1.2D-14,  2.1D-09, -6.9D-15, r^2= 2.5D+00
   Bfn.  Coefficient  Atom+Function         Bfn.  Coefficient  Atom+Function  
  ----- ------------  ---------------      ----- ------------  ---------------
     9      4.131856  1 H  py                44     -4.131856  2 H  py         
    27     -1.827385  1 H  fxxy              34     -1.827385  1 H  fyzz       
    62      1.827385  2 H  fxxy              69      1.827385  2 H  fyzz       
    32     -1.484903  1 H  fyyy              67      1.484903  2 H  fyyy       
     3     -1.318075  1 H  s                 38     -1.318075  2 H  s          

 Vector   11  Occ=0.000000D+00  E= 4.767771D-01  Symmetry=a
              MO Center=  7.4D-13,  2.4D-10, -4.5D-13, r^2= 7.8D+00
   Bfn.  Coefficient  Atom+Function         Bfn.  Coefficient  Atom+Function  
  ----- ------------  ---------------      ----- ------------  ---------------
     3      2.794960  1 H  s                 38     -2.794960  2 H  s          
     4     -2.381684  1 H  s                 39      2.381684  2 H  s          
     2     -0.666478  1 H  s                 37      0.666478  2 H  s          
    12     -0.567174  1 H  py                47     -0.567174  2 H  py         
     9      0.544524  1 H  py                44      0.544524  2 H  py         

 Vector   12  Occ=0.000000D+00  E= 8.066189D-01  Symmetry=a
              MO Center= -3.2D-15, -3.3D-10,  2.7D-15, r^2= 5.5D+00
   Bfn.  Coefficient  Atom+Function         Bfn.  Coefficient  Atom+Function  
  ----- ------------  ---------------      ----- ------------  ---------------
     3      3.812478  1 H  s                 38      3.812478  2 H  s          
     4     -1.469291  1 H  s                 39     -1.469291  2 H  s          
     2     -1.190588  1 H  s                 37     -1.190588  2 H  s          
    23     -0.609897  1 H  dyy               58     -0.609897  2 H  dyy        
    20     -0.588619  1 H  dxx               25     -0.588619  1 H  dzz        

 Vector   13  Occ=0.000000D+00  E= 9.962443D-01  Symmetry=a
              MO Center= -5.9D-12, -3.2D-09,  3.6D-12, r^2= 3.0D+00
   Bfn.  Coefficient  Atom+Function         Bfn.  Coefficient  Atom+Function  
  ----- ------------  ---------------      ----- ------------  ---------------
     9      2.884186  1 H  py                44      2.884186  2 H  py         
     3     -2.513944  1 H  s                 38      2.513944  2 H  s          
    12     -1.721048  1 H  py                47     -1.721048  2 H  py         
    32     -1.120675  1 H  fyyy              67     -1.120675  2 H  fyyy       
    27     -1.084133  1 H  fxxy              34     -1.084133  1 H  fyzz       

 Vector   14  Occ=0.000000D+00  E= 1.393401D+00  Symmetry=a
              MO Center=  3.3D-12, -5.8D-11, -2.5D-13, r^2= 3.4D+00
   Bfn.  Coefficient  Atom+Function         Bfn.  Coefficient  Atom+Function  
  ----- ------------  ---------------      ----- ------------  ---------------
     8      5.576320  1 H  px                43     -5.576320  2 H  px         
    26     -2.156863  1 H  fxxx              29     -2.162266  1 H  fxyy       
    31     -2.156863  1 H  fxzz              61      2.156863  2 H  fxxx       
    64      2.162266  2 H  fxyy              66      2.156863  2 H  fxzz       
    11     -1.608392  1 H  px                46      1.608392  2 H  px         

 Vector   15  Occ=0.000000D+00  E= 1.393401D+00  Symmetry=a
              MO Center= -1.3D-13, -5.7D-11, -1.7D-12, r^2= 3.4D+00
   Bfn.  Coefficient  Atom+Function         Bfn.  Coefficient  Atom+Function  
  ----- ------------  ---------------      ----- ------------  ---------------
    10      5.576320  1 H  pz                45     -5.576320  2 H  pz         
    28     -2.156863  1 H  fxxz              33     -2.162266  1 H  fyyz       
    35     -2.156863  1 H  fzzz              63      2.156863  2 H  fxxz       
    68      2.162266  2 H  fyyz              70      2.156863  2 H  fzzz       
    13     -1.608392  1 H  pz                48      1.608392  2 H  pz         

 Vector   16  Occ=0.000000D+00  E= 1.769365D+00  Symmetry=a
              MO Center= -7.5D-13,  1.2D-09,  4.5D-13, r^2= 3.8D+00
   Bfn.  Coefficient  Atom+Function         Bfn.  Coefficient  Atom+Function  
  ----- ------------  ---------------      ----- ------------  ---------------
     9      5.228483  1 H  py                44      5.228483  2 H  py         
     3      2.218999  1 H  s                 38     -2.218999  2 H  s          
    32     -1.986629  1 H  fyyy              67     -1.986629  2 H  fyyy       
    27     -1.951859  1 H  fxxy              34     -1.951859  1 H  fyzz       
    62     -1.951859  2 H  fxxy              69     -1.951859  2 H  fyzz       

 Vector   17  Occ=0.000000D+00  E= 1.782491D+00  Symmetry=a
              MO Center= -2.9D-15,  3.0D-11,  2.5D-14, r^2= 2.4D+00
   Bfn.  Coefficient  Atom+Function         Bfn.  Coefficient  Atom+Function  
  ----- ------------  ---------------      ----- ------------  ---------------
    10      6.070888  1 H  pz                45      6.070888  2 H  pz         
    28     -2.382211  1 H  fxxz              35     -2.382211  1 H  fzzz       
    63     -2.382211  2 H  fxxz              70     -2.382211  2 H  fzzz       
    33     -2.359702  1 H  fyyz              68     -2.359702  2 H  fyyz       
     7     -1.608281  1 H  pz                42     -1.608281  2 H  pz         

 Vector   18  Occ=0.000000D+00  E= 1.782491D+00  Symmetry=a
              MO Center= -2.9D-14,  3.0D-11, -3.0D-15, r^2= 2.4D+00
   Bfn.  Coefficient  Atom+Function         Bfn.  Coefficient  Atom+Function  
  ----- ------------  ---------------      ----- ------------  ---------------
     8      6.070888  1 H  px                43      6.070888  2 H  px         
    26     -2.382211  1 H  fxxx              31     -2.382211  1 H  fxzz       
    61     -2.382211  2 H  fxxx              66     -2.382211  2 H  fxzz       
    29     -2.359702  1 H  fxyy              64     -2.359702  2 H  fxyy       
     5     -1.608281  1 H  px                40     -1.608281  2 H  px         

 Vector   19  Occ=0.000000D+00  E= 1.884016D+00  Symmetry=a
              MO Center=  2.9D-15,  1.7D-11, -4.7D-15, r^2= 2.2D+00
   Bfn.  Coefficient  Atom+Function         Bfn.  Coefficient  Atom+Function  
  ----- ------------  ---------------      ----- ------------  ---------------
    10      1.094528  1 H  pz                45      1.094528  2 H  pz         
    24     -1.081568  1 H  dyz               59      1.081568  2 H  dyz        
     8     -0.527501  1 H  px                43     -0.527501  2 H  px         
    21      0.521255  1 H  dxy               56     -0.521255  2 H  dxy        
    33     -0.442378  1 H  fyyz              68     -0.442378  2 H  fyyz       

 Vector   20  Occ=0.000000D+00  E= 1.884016D+00  Symmetry=a
              MO Center=  5.8D-16,  1.7D-11,  2.3D-15, r^2= 2.2D+00
   Bfn.  Coefficient  Atom+Function         Bfn.  Coefficient  Atom+Function  
  ----- ------------  ---------------      ----- ------------  ---------------
     8      1.094528  1 H  px                43      1.094528  2 H  px         
    21     -1.081568  1 H  dxy               56      1.081568  2 H  dxy        
    10      0.527501  1 H  pz                45      0.527501  2 H  pz         
    24     -0.521255  1 H  dyz               59      0.521255  2 H  dyz        
    29     -0.442378  1 H  fxyy              64     -0.442378  2 H  fxyy       


 Wrote Lagrangian and 1- and 2-particle density matrices to ./H2.mcpdm


     Multipole analysis of the density
     ---------------------------------

     L   x y z        total        nuclear
     -   - - -        -----        -------
     0   0 0 0     -0.000000      2.000000

     1   1 0 0     -0.000000      0.000000
     1   0 1 0     -0.000000      0.000000
     1   0 0 1      0.000000      0.000000

     2   2 0 0     -2.100642      0.000000
     2   1 1 0      0.000000      0.000000
     2   1 0 1     -0.000000      0.000000
     2   0 2 0     -1.402080      7.411250
     2   0 1 1     -0.000000      0.000000
     2   0 0 2     -2.100642      0.000000


  Mulliken analysis of the total density
  --------------------------------------

    Atom       Charge   Shell Charges
 -----------   ------   -------------------------------------------------------
    1 H    1     1.00   0.04  0.20  0.47  0.28  0.00 -0.00  0.00  0.00  0.00  0.00
    2 H    1     1.00   0.04  0.20  0.47  0.28  0.00 -0.00  0.00  0.00  0.00  0.00

    Mulliken analysis of the active space density
    ---------------------------------------------

    Atom       Charge   Shell Charges
 -----------   ------   -------------------------------------------------------
    1 H    1     1.00   0.04  0.20  0.47  0.28  0.00 -0.00  0.00  0.00  0.00  0.00
    2 H    1     1.00   0.04  0.20  0.47  0.28  0.00 -0.00  0.00  0.00  0.00  0.00

 Parallel integral file used      19 records with       0 large values


 Task  times  cpu:        3.2s     wall:        4.0s


                                NWChem Input Module
                                -------------------


                                 NWChem SCF Module
                                 -----------------


                                        H2



  ao basis        = "ao basis"
  functions       =    70
  atoms           =     2
  closed shells   =     1
  open shells     =     0
  charge          =   0.00
  wavefunction    = RHF 
  input vectors   = ./H2.mos
  output vectors  = ./H2-3.85.mos
  use symmetry    = F
  symmetry adapt  = F


 Summary of "ao basis" -> "ao basis" (cartesian)
 ------------------------------------------------------------------------------
       Tag                 Description            Shells   Functions and Types
 ---------------- ------------------------------  ------  ---------------------
 H                          cc-pVQZ                 10       35   4s3p2d1f



 Forming initial guess at       4.0s


 Loading old vectors from job with title :

H2


 Starting SCF solution at       4.0s



 ----------------------------------------------
         Quadratically convergent ROHF

 Convergence threshold     :          1.000E-04
 Maximum no. of iterations :           30
 Final Fock-matrix accuracy:          1.000E-07
 ----------------------------------------------


 Integral file          = ./H2.aoints.0
 Record size in doubles =  65536        No. of integs per rec  =  43688
 Max. records in memory =     99        Max. records in file   = 280198
 No. of bits per label  =      8        No. of bits per value  =     64


 #quartets = 2.148D+04 #integrals = 6.984D+05 #direct =  0.0% #cached =100.0%



       Final RHF  results 
       ------------------ 

         Total SCF energy =     -0.911008943318
      One-electron energy =     -1.602624612503
      Two-electron energy =      0.431875409445
 Nuclear repulsion energy =      0.259740259740

        Time for solution =      0.0s


             Final eigenvalues
             -----------------

              1      
    1   -0.3721
    2   -0.1274
    3   -0.0010
    4   -0.0006
    5   -0.0006
    6   -0.0001
    7   -0.0000
    8   -0.0000
    9   -0.0000
   10   -0.0000
   11    0.4768

                       ROHF Final Molecular Orbital Analysis
                       -------------------------------------

 Vector    1  Occ=2.000000D+00  E=-3.721039D-01
              MO Center=  2.2D-15,  1.7D-12, -1.4D-15, r^2= 1.8D+00
   Bfn.  Coefficient  Atom+Function         Bfn.  Coefficient  Atom+Function  
  ----- ------------  ---------------      ----- ------------  ---------------
     3      0.305798  1 H  s                 38      0.305798  2 H  s          
     4      0.202250  1 H  s                 39      0.202250  2 H  s          
     2      0.159614  1 H  s                 37      0.159614  2 H  s          

 Vector    2  Occ=0.000000D+00  E=-1.273877D-01
              MO Center=  3.7D-15, -2.6D-12, -3.4D-15, r^2= 1.9D+00
   Bfn.  Coefficient  Atom+Function         Bfn.  Coefficient  Atom+Function  
  ----- ------------  ---------------      ----- ------------  ---------------
     3      0.413755  1 H  s                 38     -0.413755  2 H  s          
     2      0.209821  1 H  s                 37     -0.209821  2 H  s          
     4      0.197887  1 H  s                 39     -0.197887  2 H  s          

 Vector    3  Occ=0.000000D+00  E=-9.695383D-04
              MO Center= -3.4D-14,  1.1D-10,  2.2D-14, r^2= 2.5D+00
   Bfn.  Coefficient  Atom+Function         Bfn.  Coefficient  Atom+Function  
  ----- ------------  ---------------      ----- ------------  ---------------
     4      0.501962  1 H  s                 39      0.501962  2 H  s          
    12     -0.439094  1 H  py                47      0.439094  2 H  py         
     3     -0.415199  1 H  s                 38     -0.415199  2 H  s          
     9     -0.297210  1 H  py                44      0.297210  2 H  py         

 Vector    4  Occ=0.000000D+00  E=-6.254812D-04
              MO Center=  1.0D-13,  2.3D-11, -5.2D-15, r^2= 1.8D+00
   Bfn.  Coefficient  Atom+Function         Bfn.  Coefficient  Atom+Function  
  ----- ------------  ---------------      ----- ------------  ---------------
    11     -0.741672  1 H  px                46     -0.741672  2 H  px         
     8      0.734604  1 H  px                43      0.734604  2 H  px         
    29     -0.366615  1 H  fxyy              64     -0.366615  2 H  fxyy       
    26     -0.314528  1 H  fxxx              31     -0.314528  1 H  fxzz       
    61     -0.314528  2 H  fxxx              66     -0.314528  2 H  fxzz       

 Vector    5  Occ=0.000000D+00  E=-6.254812D-04
              MO Center= -2.0D-15,  2.3D-11, -5.2D-14, r^2= 1.8D+00
   Bfn.  Coefficient  Atom+Function         Bfn.  Coefficient  Atom+Function  
  ----- ------------  ---------------      ----- ------------  ---------------
    13     -0.741672  1 H  pz                48     -0.741672  2 H  pz         
    10      0.734604  1 H  pz                45      0.734604  2 H  pz         
    33     -0.366615  1 H  fyyz              68     -0.366615  2 H  fyyz       
    28     -0.314528  1 H  fxxz              35     -0.314528  1 H  fzzz       
    63     -0.314528  2 H  fxxz              70     -0.314528  2 H  fzzz       

 Vector    6  Occ=0.000000D+00  E=-7.408853D-05
              MO Center= -5.6D-14,  1.6D-10,  3.2D-14, r^2= 1.8D+00
   Bfn.  Coefficient  Atom+Function         Bfn.  Coefficient  Atom+Function  
  ----- ------------  ---------------      ----- ------------  ---------------
     9      0.714607  1 H  py                44     -0.714607  2 H  py         
     2      0.696531  1 H  s                 37      0.696531  2 H  s          
     4     -0.339172  1 H  s                 39     -0.339172  2 H  s          
    12     -0.337130  1 H  py                47      0.337130  2 H  py         
     3     -0.299353  1 H  s                 38     -0.299353  2 H  s          

 Vector    7  Occ=0.000000D+00  E=-3.718751D-05
              MO Center=  1.5D-13, -9.8D-12,  1.6D-12, r^2= 1.5D+00
   Bfn.  Coefficient  Atom+Function         Bfn.  Coefficient  Atom+Function  
  ----- ------------  ---------------      ----- ------------  ---------------
    10      0.823992  1 H  pz                45     -0.823992  2 H  pz         
    13      0.331837  1 H  pz                48     -0.331837  2 H  pz         
    24      0.258429  1 H  dyz               59      0.258429  2 H  dyz        
    28     -0.228730  1 H  fxxz              35     -0.228730  1 H  fzzz       
    63      0.228730  2 H  fxxz              70      0.228730  2 H  fzzz       

 Vector    8  Occ=0.000000D+00  E=-3.718751D-05
              MO Center= -3.2D-12, -1.0D-11,  3.2D-13, r^2= 1.5D+00
   Bfn.  Coefficient  Atom+Function         Bfn.  Coefficient  Atom+Function  
  ----- ------------  ---------------      ----- ------------  ---------------
     8      0.823992  1 H  px                43     -0.823992  2 H  px         
    11      0.331837  1 H  px                46     -0.331837  2 H  px         
    21      0.258429  1 H  dxy               56      0.258429  2 H  dxy        
    26     -0.228730  1 H  fxxx              31     -0.228730  1 H  fxzz       
    61      0.228730  2 H  fxxx              66      0.228730  2 H  fxzz       

 Vector    9  Occ=0.000000D+00  E=-3.535508D-05
              MO Center=  5.8D-12,  3.3D-10, -3.6D-12, r^2= 1.9D+00
   Bfn.  Coefficient  Atom+Function         Bfn.  Coefficient  Atom+Function  
  ----- ------------  ---------------      ----- ------------  ---------------
     9      0.901899  1 H  py                44      0.901899  2 H  py         
     2      0.668658  1 H  s                 37     -0.668658  2 H  s          
     3     -0.614237  1 H  s                 38      0.614237  2 H  s          
    27     -0.264775  1 H  fxxy              34     -0.264775  1 H  fyzz       
    62     -0.264775  2 H  fxxy              69     -0.264775  2 H  fyzz       

 Vector   10  Occ=0.000000D+00  E=-1.759307D-05
              MO Center=  1.2D-14,  2.1D-09, -6.9D-15, r^2= 2.5D+00
   Bfn.  Coefficient  Atom+Function         Bfn.  Coefficient  Atom+Function  
  ----- ------------  ---------------      ----- ------------  ---------------
     9      4.131856  1 H  py                44     -4.131856  2 H  py         
    27     -1.827385  1 H  fxxy              34     -1.827385  1 H  fyzz       
    62      1.827385  2 H  fxxy              69      1.827385  2 H  fyzz       
    32     -1.484903  1 H  fyyy              67      1.484903  2 H  fyyy       
     3     -1.318075  1 H  s                 38     -1.318075  2 H  s          

 Vector   11  Occ=0.000000D+00  E= 4.767771D-01
              MO Center=  7.4D-13,  2.4D-10, -4.5D-13, r^2= 7.8D+00
   Bfn.  Coefficient  Atom+Function         Bfn.  Coefficient  Atom+Function  
  ----- ------------  ---------------      ----- ------------  ---------------
     3      2.794960  1 H  s                 38     -2.794960  2 H  s          
     4     -2.381684  1 H  s                 39      2.381684  2 H  s          
     2     -0.666478  1 H  s                 37      0.666478  2 H  s          
    12     -0.567174  1 H  py                47     -0.567174  2 H  py         
     9      0.544524  1 H  py                44      0.544524  2 H  py         

 Vector   12  Occ=0.000000D+00  E= 8.066189D-01
              MO Center= -3.2D-15, -3.3D-10,  2.7D-15, r^2= 5.5D+00
   Bfn.  Coefficient  Atom+Function         Bfn.  Coefficient  Atom+Function  
  ----- ------------  ---------------      ----- ------------  ---------------
     3      3.812478  1 H  s                 38      3.812478  2 H  s          
     4     -1.469291  1 H  s                 39     -1.469291  2 H  s          
     2     -1.190588  1 H  s                 37     -1.190588  2 H  s          
    23     -0.609897  1 H  dyy               58     -0.609897  2 H  dyy        
    20     -0.588619  1 H  dxx               25     -0.588619  1 H  dzz        


 center of mass
 --------------
 x =   0.00000000 y =   0.00000000 z =   0.00000000

 moments of inertia (a.u.)
 ------------------
           7.469243031250           0.000000000000           0.000000000000
           0.000000000000           0.000000000000           0.000000000000
           0.000000000000           0.000000000000           7.469243031250

  Mulliken analysis of the total density
  --------------------------------------

    Atom       Charge   Shell Charges
 -----------   ------   -------------------------------------------------------
    1 H    1     1.00   0.04  0.19  0.45  0.31  0.00 -0.00  0.00  0.00  0.00  0.00
    2 H    1     1.00   0.04  0.19  0.45  0.31  0.00 -0.00  0.00  0.00  0.00  0.00

       Multipole analysis of the density wrt the origin
       ------------------------------------------------

     L   x y z        total         open         nuclear
     -   - - -        -----         ----         -------
     0   0 0 0     -0.000000      0.000000      2.000000

     1   1 0 0     -0.000000      0.000000      0.000000
     1   0 1 0     -0.000000      0.000000      0.000000
     1   0 0 1      0.000000      0.000000      0.000000

     2   2 0 0     -2.225266      0.000000      0.000000
     2   1 1 0     -0.000000      0.000000      0.000000
     2   1 0 1     -0.000000      0.000000      0.000000
     2   0 2 0     -0.955935      0.000000      7.411250
     2   0 1 1      0.000000      0.000000      0.000000
     2   0 0 2     -2.225266      0.000000      0.000000


 Parallel integral file used      16 records with       0 large values

                   NWChem Extensible Many-Electron Theory Module
                   ---------------------------------------------

              ======================================================
                   This portion of the program was automatically
                  generated by a Tensor Contraction Engine (TCE).
                  The development of this portion of the program
                 and TCE was supported by US Department of Energy,
                Office of Science, Office of Basic Energy Science.
                      TCE is a product of Battelle and PNNL.
              Please cite: S.Hirata, J.Phys.Chem.A 107, 9887 (2003).
              ======================================================

                                        H2


            General Information
            -------------------
      Number of processors :     1
         Wavefunction type : Restricted Hartree-Fock
          No. of electrons :     2
           Alpha electrons :     1
            Beta electrons :     1
           No. of orbitals :   140
            Alpha orbitals :    70
             Beta orbitals :    70
        Alpha frozen cores :     0
         Beta frozen cores :     0
     Alpha frozen virtuals :     0
      Beta frozen virtuals :     0
         Spin multiplicity : singlet 
    Number of AO functions :    70
       Number of AO shells :    20
        Use of symmetry is : off
      Symmetry adaption is : off
         Schwarz screening : 0.10D-09

          Correlation Information
          -----------------------
          Calculation type : Coupled-cluster singles & doubles                           
   Perturbative correction : none                                                        
            Max iterations :      300
        Residual threshold : 0.10D-06
     T(0) DIIS level shift : 0.80D+00
     L(0) DIIS level shift : 0.00D+00
     T(1) DIIS level shift : 0.00D+00
     L(1) DIIS level shift : 0.00D+00
     T(R) DIIS level shift : 0.00D+00
     T(I) DIIS level shift : 0.00D+00
   CC-T/L Amplitude update :  5-th order DIIS
                I/O scheme : Global Array Library
        L-threshold :  0.10D-06
        EOM-threshold :  0.10D-06
 no EOMCCSD initial starts read in
 TCE RESTART OPTIONS
 READ_INT:   F
 WRITE_INT:  F
 READ_TA:    F
 WRITE_TA:   F
 READ_XA:    F
 WRITE_XA:   F
 READ_IN3:   F
 WRITE_IN3:  F
 SLICE:      F
 D4D5:       F
 quantumc:   F
 qrotation:  F
 pwtce:      F
 qducc:      T
 nacto:                         0
 nrotv:                         0
 nrot:                          0

            Memory Information
            ------------------
          Available GA space size is    1610607836 doubles
          Available MA space size is    1610610644 doubles

 Maximum block size        32 doubles

 tile_dim =     23

 Block   Spin    Irrep     Size     Offset   Alpha
 -------------------------------------------------
   1    alpha     a      1 doubles       0       1
   2    beta      a      1 doubles       1       1
   3    alpha     a     23 doubles       2       3
   4    alpha     a     23 doubles      25       4
   5    alpha     a     23 doubles      48       5
   6    beta      a     23 doubles      71       3
   7    beta      a     23 doubles      94       4
   8    beta      a     23 doubles     117       5

 Global array virtual files algorithm will be used

 Parallel file system coherency ......... OK

 Integral file          = ./H2.aoints.0
 Record size in doubles =  65536        No. of integs per rec  =  43688
 Max. records in memory =     99        Max. records in file   = 280198
 No. of bits per label  =      8        No. of bits per value  =     64


 #quartets = 2.193D+04 #integrals = 8.061D+05 #direct =  0.0% #cached =100.0%


 Fock matrix recomputed
 1-e file size   =             4900
 1-e file name   = ./H2.f1
 Cpu & wall time / sec            0.0            0.1
 4-electron integrals stored in orbital form

 v2    file size   =          6102085
 4-index algorithm nr.  13 is used
 imaxsize =       30
 imaxsize ichop =        0
 Cpu & wall time / sec            2.0            2.0
 T1-number-of-tasks                    3

 t1 file size   =               69
 t1 file name   = ./H2.t1
 t1 file handle =       -998
 T2-number-of-boxes                   15

 t2 file size   =             7935
 t2 file name   = ./H2.t2
 t2 file handle =       -996
CCSD iterations
 ---------------------------------------------------------
 Iter          Residuum       Correlation     Cpu    Wall 
 ---------------------------------------------------------
NEW TASK SCHEDULING
CCSD_T1_NTS --- OK
CCSD_T2_NTS --- OK
    1   0.6055284640453  -0.1236877771470     0.1     0.1
    2   0.3199566406234  -0.0811995593541     0.1     0.1
    3   0.1848403896823  -0.1003701322437     0.1     0.1
    4   0.1274442677385  -0.0921793794836     0.1     0.1
    5   0.0918877657375  -0.0994294688763     0.1     0.1
 MICROCYCLE DIIS UPDATE:                    5                    5
    6   0.0280139803286  -0.0989645279347     0.1     0.1
    7   0.0211046229265  -0.1008846265899     0.1     0.1
    8   0.0175755983435  -0.1020491221059     0.1     0.1
    9   0.0147638218947  -0.1031245799340     0.1     0.1
   10   0.0124857880254  -0.1039415931159     0.1     0.1
 MICROCYCLE DIIS UPDATE:                   10                    5
   11   0.0024050191447  -0.1084301151096     0.1     0.1
   12   0.0011082111281  -0.1083505336018     0.1     0.1
   13   0.0006540501294  -0.1083663874327     0.1     0.1
   14   0.0004639886834  -0.1083642317700     0.1     0.1
   15   0.0003590628242  -0.1083844143759     0.1     0.1
 MICROCYCLE DIIS UPDATE:                   15                    5
   16   0.0002446150207  -0.1084052875824     0.1     0.1
   17   0.0001733483944  -0.1084251026784     0.1     0.1
   18   0.0001413345095  -0.1084349463030     0.1     0.1
   19   0.0001155595020  -0.1084453133288     0.1     0.1
   20   0.0000970029814  -0.1084525635800     0.1     0.1
 MICROCYCLE DIIS UPDATE:                   20                    5
   21   0.0000335958521  -0.1084871058005     0.0     0.2
   22   0.0000220172448  -0.1084866904759     0.2     0.2
   23   0.0000164603195  -0.1084871557387     0.2     0.2
   24   0.0000132640057  -0.1084874102339     0.2     0.2
   25   0.0000106888847  -0.1084878464556     0.2     0.2
 MICROCYCLE DIIS UPDATE:                   25                    5
   26   0.0000044460632  -0.1084892499159     0.2     0.2
   27   0.0000027930798  -0.1084895877542     0.2     0.2
   28   0.0000021901183  -0.1084897057064     0.2     0.2
   29   0.0000017656068  -0.1084898667594     0.2     0.2
   30   0.0000014841733  -0.1084899656866     0.2     0.2
 MICROCYCLE DIIS UPDATE:                   30                    5
   31   0.0000007091392  -0.1084904152478     0.1     0.1
   32   0.0000004495186  -0.1084904160059     0.1     0.1
   33   0.0000003269947  -0.1084904309747     0.1     0.1
   34   0.0000002603625  -0.1084904408845     0.1     0.1
   35   0.0000002109757  -0.1084904531834     0.1     0.1
 MICROCYCLE DIIS UPDATE:                   35                    5
   36   0.0000000979738  -0.1084904968761     0.1     0.1
 -----------------------------------------------------------------
 Iterations converged
 CCSD correlation energy / hartree =        -0.108490496876073
 CCSD total energy / hartree       =        -1.019499440194174

 Singles contributions

 Doubles contributions
     2a   (alpha)     2a   (beta ) ---     1a   (alpha)     1a   (beta )       -0.5271851411
     3a   (alpha)     3a   (beta ) ---     1a   (alpha)     1a   (beta )       -0.0331249294
     4a   (alpha)     4a   (beta ) ---     1a   (alpha)     1a   (beta )       -0.0263379768
     5a   (alpha)     5a   (beta ) ---     1a   (alpha)     1a   (beta )       -0.0263379768
 Ground state specification:
 exp(T)|Ref>~(1+T)|Ref>
 ------- a(p)+/a(q) strings ----------

 singles norm

 doubles norm

 Reference string
  0.88460106393742555      :(1a)+ (1b)+ |0>

 Singles strings

 Doubles strings
 -0.46634853669843851      :(2a)+ (2b)+ (1b)  (1a)  (1a)+ (1b)+ |0>
 -------------------------------------
 enrep_tce =   0.25974025974025972     
  EHF(total)         =        -0.91100894
  Shift (HFtot-HFA)  =         0.00000000
 ALL OCCUPIED ORBITALS ARE ACTIVE IN DUCC --> NO SHIFT
 Number of active orbitals                   10
 Number of active alpha electrons                    1
 Number of active beta electrons                    1
  nos                     2
  nvs                   138
 noas                     1
 nobs                     1
 nvas                    69
 nvbs                    69
 nactv                     9
 DUCC MODEL =                     6
 NONHF =  T
 F-T1 correlation    =    9.7077914394453966E-006
 V-T1-T1 correlation =    7.2557436226556218E-010
 V-T2 correlation    =  -0.10850020539308719     
 Total correlation   =  -0.10849049687607339     
 F-T1(Ext) correlation         =   -5.8691345748081460E-007
 V-T1(Ext)-T1(Ext) correlation =    1.3314904593531280E-010
 V-T2(Ext) correlation         =   -8.9010604775869055E-004
 Total Ext correlation         =   -8.9069282806712540E-004
1-BODY TIME =   31.239 SECONDS.
  HHHH TIME =   24.403 SECONDS.
  PPPP TIME =   36.971 SECONDS.
  HHHP TIME =    2.535 SECONDS.
  PPPH TIME =    2.693 SECONDS.
  HPHP TIME =    4.385 SECONDS.
  HHPP TIME =    2.358 SECONDS.
 ONE-BODY UNITARY CHECK
 TWO-BODY UNITARY CHECK
 TWO-BODY ANTISYMMETRY CHECK
 TRANSFORMED ~FOCK~ MATRIX
    1    1        -0.3709596711
    1    3         0.0047170859
    1    6         0.0628031639
    1   10        -0.0107122243
    2    2        -0.0020899927
    2    9         0.1229659231
    3    1         0.0047170859
    3    3         0.5525758429
    3    6         0.0382418581
    3    9        -0.0000000001
    3   10        -0.4073917216
    4    4         0.5725371523
    5    5         0.5725371523
    6    1         0.0628031639
    6    3         0.0382418581
    6    6         0.8227791735
    6   10        -0.0058912127
    7    7         1.1833754037
    8    8         1.1833754037
    9    2         0.1229659231
    9    3        -0.0000000001
    9    9         1.2938413140
    9   10        -0.0000000005
   10    1        -0.0107122243
   10    3        -0.4073917216
   10    6        -0.0058912127
   10    9        -0.0000000005
   10   10         1.7457644827
 begin_one_electron_integrals
    1    1        -0.8013117117
    1    3         0.0711811397
    1    6        -0.0056751737
    1   10        -0.0015982373
    2    2        -0.6973621423
    2    9        -0.0012257045
    3    1         0.0711811397
    3    3        -0.1607298478
    3    6        -0.0187185012
    3   10        -0.2610017221
    4    4        -0.1432848273
    5    5        -0.1432848273
    6    1        -0.0056751737
    6    3        -0.0187185012
    6    6         0.0335901411
    6   10         0.0130515618
    7    7         0.3664788028
    8    8         0.3664788028
    9    2        -0.0012257045
    9    9         0.4665026722
    9   10        -0.0000000004
   10    1        -0.0015982373
   10    3        -0.2610017221
   10    6         0.0130515618
   10    9        -0.0000000004
   10   10         0.9880172480
 end_one_electron_integrals
 begin_two_electron_integrals
    1    1    1    1        0.4303520406
    1    1    1    3       -0.0664640538
    1    1    1    6        0.0684783376
    1    1    1   10       -0.0091139870
    1    2    1    2        0.1904453333
    1    2    1    9        0.0454489186
    1    3    1    1       -0.0664640538
    1    3    1    3        0.0633775391
    1    3    1    6        0.0018044193
    1    3    1   10       -0.0144610851
    1    4    1    4        0.0559538645
    1    5    1    5        0.0559538645
    1    6    1    1        0.0684783376
    1    6    1    3        0.0018044193
    1    6    1    6        0.0706220392
    1    6    1   10       -0.0105747285
    1    7    1    7        0.0532867142
    1    8    1    8        0.0532867142
    1    9    1    2        0.0454489186
    1    9    1    9        0.0610794496
    1   10    1    1       -0.0091139870
    1   10    1    3       -0.0144610851
    1   10    1    6       -0.0105747285
    1   10    1   10        0.0246691560
    1    1    2    2        0.4433934347
    1    1    2    9        0.0849184586
    1    2    2    1        0.1915147197
    1    2    2    3        0.0116949346
    1    2    2    6        0.1213558212
    1    2    2   10       -0.0225260660
    1    3    2    2       -0.0513124444
    1    3    2    9       -0.0572118297
    1    4    2    7       -0.0030531946
    1    4    2    8       -0.0568883614
    1    5    2    7       -0.0568883614
    1    5    2    8        0.0030531946
    1    6    2    2        0.0948004340
    1    6    2    9        0.0380711717
    1    7    2    4       -0.0022126245
    1    7    2    5       -0.0412265187
    1    8    2    4       -0.0412265187
    1    8    2    5        0.0022126245
    1    9    2    1        0.0456452895
    1    9    2    3       -0.0339761509
    1    9    2    6        0.0453945666
    1    9    2   10       -0.0038255546
    1   10    2    2       -0.0165733693
    1   10    2    9        0.0046184689
    1    1    3    1       -0.0664640538
    1    1    3    3        0.3886652007
    1    1    3    6        0.0294817270
    1    1    3   10       -0.0805069470
    1    2    3    2        0.0116944796
    1    2    3    9       -0.1185555372
    1    3    3    1        0.0640247106
    1    3    3    3       -0.0849121138
    1    3    3    6       -0.0181894237
    1    3    3   10        0.0673335491
    1    4    3    4       -0.0127048831
    1    5    3    5       -0.0127048831
    1    6    3    1        0.0020030947
    1    6    3    3        0.0235906966
    1    6    3    6       -0.0084394631
    1    6    3   10       -0.0022111206
    1    7    3    7       -0.0058239626
    1    8    3    8       -0.0058239626
    1    9    3    2       -0.0340020594
    1    9    3    9       -0.0346240884
    1   10    3    1       -0.0146238944
    1   10    3    3        0.0230307620
    1   10    3    6        0.0049391536
    1   10    3   10       -0.0213895042
    1    1    4    4        0.3861436598
    1    2    4    7       -0.0070876892
    1    2    4    8       -0.1320607054
    1    3    4    4       -0.0663497917
    1    4    4    1        0.0564653401
    1    4    4    3       -0.0127207858
    1    4    4    6       -0.0271023799
    1    4    4   10       -0.0180844312
    1    6    4    4        0.0182515162
    1    7    4    2       -0.0022139915
    1    7    4    9        0.0000034573
    1    8    4    2       -0.0412519899
    1    8    4    9        0.0000644182
    1    9    4    7       -0.0014784556
    1    9    4    8       -0.0275471849
    1   10    4    4       -0.0091380611
    1    1    5    5        0.3861436598
    1    2    5    7       -0.1320607054
    1    2    5    8        0.0070876892
    1    3    5    5       -0.0663497917
    1    5    5    1        0.0564653401
    1    5    5    3       -0.0127207858
    1    5    5    6       -0.0271023799
    1    5    5   10       -0.0180844312
    1    6    5    5        0.0182515162
    1    7    5    2       -0.0412519899
    1    7    5    9        0.0000644182
    1    8    5    2        0.0022139915
    1    8    5    9       -0.0000034573
    1    9    5    7       -0.0275471849
    1    9    5    8        0.0014784556
    1   10    5    5       -0.0091380611
    1    1    6    1        0.0684783376
    1    1    6    3        0.0294817270
    1    1    6    6        0.4302356722
    1    1    6   10       -0.0148478404
    1    2    6    2        0.1213613463
    1    2    6    9        0.0932184655
    1    2    6   10       -0.0000000002
    1    3    6    1        0.0020030947
    1    3    6    3       -0.0181978381
    1    3    6    6       -0.0692381390
    1    3    6   10       -0.0001192764
    1    4    6    4       -0.0271124450
    1    5    6    5       -0.0271124450
    1    6    6    1        0.0712823120
    1    6    6    3       -0.0084481701
    1    6    6    6        0.0744466751
    1    6    6   10       -0.0241472795
    1    7    6    7        0.0120274645
    1    8    6    8        0.0120274645
    1    9    6    2        0.0454303935
    1    9    6    9        0.0460705467
    1   10    6    1       -0.0107529063
    1   10    6    3        0.0049372333
    1   10    6    6       -0.0180741572
    1   10    6   10       -0.0017643793
    1    1    7    7        0.4354142981
    1    2    7    4       -0.0070873575
    1    2    7    5       -0.1320545244
    1    3    7    7       -0.0686509394
    1    4    7    2       -0.0030542288
    1    4    7    9       -0.0002645642
    1    5    7    2       -0.0569076327
    1    5    7    9       -0.0049294676
    1    6    7    7        0.0595186923
    1    7    7    1        0.0539319952
    1    7    7    3       -0.0058375209
    1    7    7    6        0.0120415790
    1    7    7   10       -0.0154057884
    1    9    7    4       -0.0014784994
    1    9    7    5       -0.0275480011
    1   10    7    7       -0.0150853251
    1    1    8    8        0.4354142981
    1    2    8    4       -0.1320545244
    1    2    8    5        0.0070873575
    1    3    8    8       -0.0686509394
    1    4    8    2       -0.0569076327
    1    4    8    9       -0.0049294676
    1    5    8    2        0.0030542288
    1    5    8    9        0.0002645642
    1    6    8    8        0.0595186923
    1    8    8    1        0.0539319952
    1    8    8    3       -0.0058375209
    1    8    8    6        0.0120415790
    1    8    8   10       -0.0154057884
    1    9    8    4       -0.0275480011
    1    9    8    5        0.0014784994
    1   10    8    8       -0.0150853251
    1    1    9    2        0.0849184586
    1    1    9    9        0.4444396479
    1    2    9    1        0.0456452895
    1    2    9    3       -0.1185536482
    1    2    9    6        0.0931921730
    1    2    9   10        0.0086086400
    1    3    9    2       -0.0572358410
    1    3    9    9       -0.0844713168
    1    4    9    7       -0.0002638044
    1    4    9    8       -0.0049153104
    1    5    9    7       -0.0049153104
    1    5    9    8        0.0002638044
    1    6    9    2        0.0380806543
    1    6    9    9        0.0814785748
    1    7    9    4        0.0000041737
    1    7    9    5        0.0000777653
    1    8    9    4        0.0000777653
    1    8    9    5       -0.0000041737
    1    9    9    1        0.0615406540
    1    9    9    3       -0.0346373544
    1    9    9    6        0.0460705028
    1    9    9   10        0.0291680971
    1   10    9    2        0.0046548083
    1   10    9    9        0.0082663095
    1    1   10    1       -0.0091139870
    1    1   10    3       -0.0805069470
    1    1   10    6       -0.0148478404
    1    1   10   10        0.3914445330
    1    2   10    2       -0.0225267775
[...]
    9    4    4    9        0.0126436106
    9    6    4    7       -0.0032183098
    9    6    4    8       -0.0599648557
    9    7    4    1       -0.0002645642
    9    7    4    3        0.0007353668
    9    7    4    6       -0.0002217414
    9    7    4   10       -0.0001633369
    9    8    4    1       -0.0049294676
    9    8    4    3        0.0137016522
    9    8    4    6       -0.0041315765
    9    8    4   10       -0.0030433600
    9    9    4    4        0.3862460476
    9   10    4    7       -0.0007509406
    9   10    4    8       -0.0139918296
    9    1    5    7       -0.0275480011
    9    1    5    8        0.0014784994
    9    2    5    5        0.0586529011
    9    3    5    7        0.0855911061
    9    3    5    8       -0.0045936689
    9    5    5    2       -0.0027253490
    9    5    5    9        0.0126436106
    9    6    5    7       -0.0599648557
    9    6    5    8        0.0032183098
    9    7    5    1       -0.0049294676
    9    7    5    3        0.0137016522
    9    7    5    6       -0.0041315765
    9    7    5   10       -0.0030433600
    9    8    5    1        0.0002645642
    9    8    5    3       -0.0007353668
    9    8    5    6        0.0002217414
    9    8    5   10        0.0001633369
    9    9    5    5        0.3862460476
    9   10    5    7       -0.0139918296
    9   10    5    8        0.0007509406
    9    1    6    2        0.0453945666
    9    1    6    9        0.0460705028
    9    2    6    1        0.0380711717
    9    2    6    3        0.0030163084
    9    2    6    6        0.0960701129
    9    2    6   10       -0.0100195951
    9    3    6    2       -0.0651602291
    9    3    6    9       -0.0586775408
    9    3    6   10        0.0000000001
    9    4    6    7       -0.0002611910
    9    4    6    8       -0.0048666176
    9    5    6    7       -0.0048666176
    9    5    6    8        0.0002611910
    9    6    6    2        0.0692171520
    9    6    6    9        0.0664503933
    9    6    6   10       -0.0000000001
    9    7    6    4       -0.0002217416
    9    7    6    5       -0.0041315802
    9    8    6    4       -0.0041315802
    9    8    6    5        0.0002217416
    9    9    6    1        0.0814785748
    9    9    6    3        0.0206482897
    9    9    6    6        0.4406222211
    9    9    6   10       -0.0158730320
    9   10    6    2        0.0014302895
    9   10    6    9        0.0107338623
    9    1    7    4       -0.0014784556
    9    1    7    5       -0.0275471849
    9    2    7    7        0.0818089431
    9    3    7    4        0.0045936690
    9    3    7    5        0.0855911063
    9    4    7    1        0.0000034573
    9    4    7    3        0.0005622468
    9    4    7    6       -0.0002611908
    9    4    7   10       -0.0002133390
    9    5    7    1        0.0000644182
    9    5    7    3        0.0104760111
    9    5    7    6       -0.0048666138
    9    5    7   10       -0.0039750182
    9    6    7    4       -0.0032183098
    9    6    7    5       -0.0599648556
    9    7    7    2        0.0083162230
    9    7    7    9        0.0195763242
    9    9    7    7        0.4412934342
    9   10    7    4       -0.0007509406
    9   10    7    5       -0.0139918300
    9    1    8    4       -0.0275471849
    9    1    8    5        0.0014784556
    9    2    8    8        0.0818089431
    9    3    8    4        0.0855911063
    9    3    8    5       -0.0045936690
    9    4    8    1        0.0000644182
    9    4    8    3        0.0104760111
    9    4    8    6       -0.0048666138
    9    4    8   10       -0.0039750182
    9    5    8    1       -0.0000034573
    9    5    8    3       -0.0005622468
    9    5    8    6        0.0002611908
    9    5    8   10        0.0002133390
    9    6    8    4       -0.0599648556
    9    6    8    5        0.0032183098
    9    8    8    2        0.0083162230
    9    8    8    9        0.0195763242
    9    9    8    8        0.4412934342
    9   10    8    4       -0.0139918300
    9   10    8    5        0.0007509406
    9    1    9    1        0.0610794496
    9    1    9    3       -0.0346240884
    9    1    9    6        0.0460705467
    9    1    9   10        0.0291715360
    9    2    9    2        0.0811647513
    9    2    9    9        0.1153772406
    9    3    9    1       -0.0346240884
    9    3    9    3        0.0946525969
    9    3    9    6       -0.0586775409
    9    3    9   10       -0.0200632865
    9    4    9    4        0.0126436225
    9    5    9    5        0.0126436225
    9    6    9    1        0.0460705467
    9    6    9    3       -0.0586775409
    9    6    9    6        0.0664504020
    9    6    9   10        0.0107338577
    9    7    9    7        0.0195763339
    9    8    9    8        0.0195763339
    9    9    9    2        0.1153772406
    9    9    9    9        0.4929373409
    9   10    9    1        0.0291715360
    9   10    9    3       -0.0200632865
    9   10    9    6        0.0107338577
    9   10    9   10        0.0356089196
    9    1   10    2       -0.0038255546
    9    1   10    9        0.0291680971
    9    2   10    1        0.0046184689
    9    2   10    3       -0.0564526296
    9    2   10    6       -0.0100195933
    9    2   10   10        0.0751669667
    9    3   10    2       -0.0024695789
    9    3   10    6        0.0000000001
    9    3   10    9       -0.0200632916
    9    4   10    7       -0.0002133392
    9    4   10    8       -0.0039750219
    9    5   10    7       -0.0039750219
    9    5   10    8        0.0002133392
    9    6   10    2       -0.0124775837
    9    6   10    6       -0.0000000001
    9    6   10    9        0.0107338623
    9    7   10    4       -0.0001633372
    9    7   10    5       -0.0030433643
    9    8   10    4       -0.0030433643
    9    8   10    5        0.0001633372
    9    9   10    1        0.0082663095
    9    9   10    3       -0.1002087455
    9    9   10    6       -0.0158730320
    9    9   10   10        0.4150775727
    9   10   10    2        0.0054574906
    9   10   10    9        0.0356089278
   10    1    1    1       -0.0091139870
   10    1    1    3       -0.0146238944
   10    1    1    6       -0.0107529063
   10    1    1   10        0.0251418314
   10    2    1    2       -0.0225267775
   10    2    1    9       -0.0037949563
   10    3    1    1       -0.0805069470
   10    3    1    3        0.0673345685
   10    3    1    6       -0.0022137296
   10    3    1   10       -0.0213913851
   10    4    1    4       -0.0180854593
   10    5    1    5       -0.0180854593
   10    6    1    1       -0.0148478404
   10    6    1    2       -0.0000000002
   10    6    1    3       -0.0001199639
   10    6    1    6       -0.0241506298
   10    6    1   10       -0.0017611114
   10    7    1    7       -0.0154064449
   10    8    1    8       -0.0154064449
   10    9    1    2        0.0086029200
   10    9    1    9        0.0291715360
   10   10    1    1        0.3914445330
   10   10    1    2       -0.0000000001
   10   10    1    3       -0.0843785143
   10   10    1    6        0.0269045193
   10   10    1   10        0.0218477034
   10    1    2    2       -0.0165733693
   10    1    2    9        0.0046548083
   10    2    2    1       -0.0225260660
   10    2    2    3       -0.0020047477
   10    2    2    6       -0.0200601051
   10    2    2   10        0.0174502259
   10    3    2    2       -0.0662208036
   10    3    2    9       -0.0564526299
   10    4    2    7        0.0009468203
   10    4    2    8        0.0176415405
   10    5    2    7        0.0176415405
   10    5    2    8       -0.0009468203
   10    6    2    1       -0.0000000002
   10    6    2    2       -0.0233188276
   10    6    2    6       -0.0000000001
   10    6    2    9       -0.0100195951
   10    7    2    4        0.0006469780
   10    7    2    5        0.0120547565
   10    8    2    4        0.0120547565
   10    8    2    5       -0.0006469780
   10    9    2    1        0.0086086400
   10    9    2    3       -0.0247370953
   10    9    2    6        0.0014302895
   10    9    2   10        0.0054574906
   10   10    2    1       -0.0000000001
   10   10    2    2        0.3831755022
   10   10    2    9        0.0751669667
   10    1    3    1       -0.0144610851
   10    1    3    3        0.0230307620
   10    1    3    6        0.0049372333
   10    1    3   10       -0.0213913851
   10    2    3    2       -0.0020047473
   10    2    3    9       -0.0024695799
   10    3    3    1        0.0673335491
   10    3    3    3       -0.1052219602
   10    3    3    6       -0.0224439192
   10    3    3   10        0.0875823703
   10    4    3    4        0.0004197344
   10    5    3    5        0.0004197344
   10    6    3    1       -0.0001192764
   10    6    3    3       -0.0083098822
   10    6    3    6       -0.0005073458
   10    6    3    9        0.0000000001
   10    6    3   10        0.0060308642
   10    7    3    7       -0.0021700745
   10    8    3    8       -0.0021700745
   10    9    3    2       -0.0247370959
   10    9    3    9       -0.0200632865
   10   10    3    1       -0.0843785143
   10   10    3    3        0.4036381768
   10   10    3    6        0.0396426352
   10   10    3   10       -0.1059897714
   10    1    4    4       -0.0091380611
   10    2    4    7        0.0008680927
   10    2    4    8        0.0161746552
   10    3    4    4       -0.0737143168
   10    4    4    1       -0.0180844312
   10    4    4    3        0.0004197334
   10    4    4    6        0.0115188747
   10    4    4   10        0.0141120716
   10    6    4    4        0.0048328692
   10    6    4    8        0.0000000002
   10    7    4    2        0.0006469780
   10    7    4    9       -0.0002133390
   10    8    4    2        0.0120547561
   10    8    4    9       -0.0039750182
   10    9    4    7       -0.0007509406
   10    9    4    8       -0.0139918300
   10   10    4    4        0.3665831112
   10   10    4    8        0.0000000001
   10    1    5    5       -0.0091380611
   10    2    5    7        0.0161746552
   10    2    5    8       -0.0008680927
   10    3    5    5       -0.0737143168
   10    5    5    1       -0.0180844312
   10    5    5    3        0.0004197334
   10    5    5    6        0.0115188747
   10    5    5   10        0.0141120716
   10    6    5    5        0.0048328692
   10    6    5    7        0.0000000002
   10    7    5    2        0.0120547561
   10    7    5    9       -0.0039750182
   10    8    5    2       -0.0006469780
   10    8    5    9        0.0002133390
   10    9    5    7       -0.0139918300
   10    9    5    8        0.0007509406
   10   10    5    5        0.3665831112
   10   10    5    7        0.0000000001
   10    1    6    1       -0.0105747285
   10    1    6    3        0.0049391536
   10    1    6    6       -0.0180741572
   10    1    6   10       -0.0017611114
   10    2    6    2       -0.0200601061
   10    2    6    9       -0.0124775838
   10    3    6    1       -0.0022111206
   10    3    6    3       -0.0224439204
   10    3    6    6       -0.0779607568
   10    3    6   10        0.0060308642
   10    4    6    4        0.0115188745
   10    5    6    5        0.0115188745
   10    6    6    1       -0.0241472795
   10    6    6    2       -0.0000000001
   10    6    6    3       -0.0005073446
   10    6    6    6       -0.0148005100
   10    6    6    9       -0.0000000001
   10    6    6   10        0.0166615884
   10    7    6    7       -0.0033046250
   10    8    6    8       -0.0033046250
   10    9    6    2        0.0014302911
   10    9    6    9        0.0107338577
   10   10    6    1        0.0269045193
   10   10    6    3        0.0396426352
   10   10    6    6        0.3831072661
   10   10    6   10       -0.0071502679
   10    1    7    7       -0.0150853251
   10    2    7    4        0.0008680927
   10    2    7    5        0.0161746550
   10    3    7    7       -0.0799847179
   10    4    7    2        0.0009468203
   10    4    7    9       -0.0001633369
   10    5    7    2        0.0176415400
   10    5    7    9       -0.0030433600
   10    6    7    5        0.0000000002
   10    6    7    7       -0.0095946559
   10    7    7    1       -0.0154057884
   10    7    7    3       -0.0021700746
   10    7    7    6       -0.0033046245
   10    7    7   10        0.0101732621
   10    9    7    4       -0.0007509406
   10    9    7    5       -0.0139918296
   10   10    7    5        0.0000000001
   10   10    7    7        0.3894062818
   10    1    8    8       -0.0150853251
   10    2    8    4        0.0161746550
   10    2    8    5       -0.0008680927
   10    3    8    8       -0.0799847179
   10    4    8    2        0.0176415400
   10    4    8    9       -0.0030433600
   10    5    8    2       -0.0009468203
   10    5    8    9        0.0001633369
   10    6    8    4        0.0000000002
   10    6    8    8       -0.0095946559
   10    8    8    1       -0.0154057884
   10    8    8    3       -0.0021700746
   10    8    8    6       -0.0033046245
   10    8    8   10        0.0101732621
   10    9    8    4       -0.0139918296
   10    9    8    5        0.0007509406
   10   10    8    4        0.0000000001
   10   10    8    8        0.3894062818
   10    1    9    2        0.0046184689
   10    1    9    9        0.0082663095
   10    2    9    1       -0.0038255546
   10    2    9    3       -0.0024695789
   10    2    9    6       -0.0124775837
   10    2    9   10        0.0054574906
   10    3    9    2       -0.0564526296
   10    3    9    9       -0.1002087455
   10    4    9    7       -0.0001633372
   10    4    9    8       -0.0030433643
   10    5    9    7       -0.0030433643
   10    5    9    8        0.0001633372
   10    6    9    2       -0.0100195933
   10    6    9    3        0.0000000001
   10    6    9    6       -0.0000000001
   10    6    9    9       -0.0158730320
   10    7    9    4       -0.0002133392
   10    7    9    5       -0.0039750219
   10    8    9    4       -0.0039750219
   10    8    9    5        0.0002133392
   10    9    9    1        0.0291680971
   10    9    9    3       -0.0200632916
   10    9    9    6        0.0107338623
   10    9    9   10        0.0356089278
   10   10    9    2        0.0751669667
   10   10    9    9        0.4150775727
   10    1   10    1        0.0246691560
   10    1   10    3       -0.0213895042
   10    1   10    6       -0.0017643793
   10    1   10   10        0.0218477034
   10    2   10    2        0.0174502259
   10    2   10    9        0.0054574905
   10    3   10    1       -0.0213895042
   10    3   10    3        0.0875823705
   10    3   10    6        0.0060308640
   10    3   10   10       -0.1059897714
   10    4   10    4        0.0141120715
   10    5   10    5        0.0141120715
   10    6   10    1       -0.0017643793
   10    6   10    3        0.0060308640
   10    6   10    6        0.0166615886
   10    6   10   10       -0.0071502679
   10    7   10    7        0.0101732627
   10    8   10    8        0.0101732627
   10    9   10    2        0.0054574905
   10    9   10    9        0.0356089196
   10   10   10    1        0.0218477034
   10   10   10    3       -0.1059897714
   10   10   10    6       -0.0071502679
   10   10   10   10        0.4116558265
 end_two_electron_integrals

 Parallel integral file used      19 records with       0 large values


 Task  times  cpu:      137.4s     wall:      140.4s


                                NWChem Input Module
                                -------------------


 Summary of allocated global arrays
-----------------------------------
  No active global arrays


MA_summarize_allocated_blocks: starting scan ...
MA_summarize_allocated_blocks: scan completed: 0 heap blocks, 0 stack blocks
MA usage statistics:

	allocation statistics:
					      heap	     stack
					      ----	     -----
	current number of blocks	         0	         0
	maximum number of blocks	        18	        42
	current total bytes		         0	         0
	maximum total bytes		  51983048	9994007128
	maximum total K-bytes		     51984	   9994008
	maximum total M-bytes		        52	      9995


                                     CITATION
                                     --------
                Please cite the following reference when publishing
                           results obtained with NWChem:

          E. Apra, E. J. Bylaska, W. A. de Jong, N. Govind, K. Kowalski,
       T. P. Straatsma, M. Valiev, H. J. J. van Dam, Y. Alexeev, J. Anchell,
       V. Anisimov, F. W. Aquino, R. Atta-Fynn, J. Autschbach, N. P. Bauman,
     J. C. Becca, D. E. Bernholdt, K. Bhaskaran-Nair, S. Bogatko, P. Borowski,
         J. Boschen, J. Brabec, A. Bruner, E. Cauet, Y. Chen, G. N. Chuev,
      C. J. Cramer, J. Daily, M. J. O. Deegan, T. H. Dunning Jr., M. Dupuis,
   K. G. Dyall, G. I. Fann, S. A. Fischer, A. Fonari, H. Fruchtl, L. Gagliardi,
      J. Garza, N. Gawande, S. Ghosh, K. Glaesemann, A. W. Gotz, J. Hammond,
       V. Helms, E. D. Hermes, K. Hirao, S. Hirata, M. Jacquelin, L. Jensen,
   B. G. Johnson, H. Jonsson, R. A. Kendall, M. Klemm, R. Kobayashi, V. Konkov,
      S. Krishnamoorthy, M. Krishnan, Z. Lin, R. D. Lins, R. J. Littlefield,
      A. J. Logsdail, K. Lopata, W. Ma, A. V. Marenich, J. Martin del Campo,
   D. Mejia-Rodriguez, J. E. Moore, J. M. Mullin, T. Nakajima, D. R. Nascimento,
    J. A. Nichols, P. J. Nichols, J. Nieplocha, A. Otero-de-la-Roza, B. Palmer,
    A. Panyala, T. Pirojsirikul, B. Peng, R. Peverati, J. Pittner, L. Pollack,
   R. M. Richard, P. Sadayappan, G. C. Schatz, W. A. Shelton, D. W. Silverstein,
   D. M. A. Smith, T. A. Soares, D. Song, M. Swart, H. L. Taylor, G. S. Thomas,
            V. Tipparaju, D. G. Truhlar, K. Tsemekhman, T. Van Voorhis,
      A. Vazquez-Mayagoitia, P. Verma, O. Villa, A. Vishnu, K. D. Vogiatzis,
        D. Wang, J. H. Weare, M. J. Williamson, T. L. Windus, K. Wolinski,
        A. T. Wong, Q. Wu, C. Yang, Q. Yu, M. Zacharias, Z. Zhang, Y. Zhao,
                                and R. J. Harrison
                        "NWChem: Past, present, and future
                         J. Chem. Phys. 152, 184102 (2020)
                               doi:10.1063/5.0004997

                                      AUTHORS
                                      -------
  E. Apra, E. J. Bylaska, N. Govind, K. Kowalski, M. Valiev, D. Mejia-Rodriguez,
       A. Kunitsa, N. P. Bauman, A. Panyala, W. A. de Jong, T. P. Straatsma,
        H. J. J. van Dam, D. Wang, T. L. Windus, J. Hammond, J. Autschbach,
    K. Bhaskaran-Nair, J. Brabec, K. Lopata, S. A. Fischer, S. Krishnamoorthy,
     M. Jacquelin, W. Ma, M. Klemm, O. Villa, Y. Chen, V. Anisimov, F. Aquino,
    S. Hirata, M. T. Hackler, Eric Hermes, L. Jensen, J. E. Moore, J. C. Becca,
      V. Konjkov, T. Risthaus, M. Malagoli, A. Marenich, A. Otero-de-la-Roza,
        J. Mullin, P. Nichols, R. Peverati, J. Pittner, Y. Zhao, P.-D. Fan,
        A. Fonari, M. J. Williamson, R. J. Harrison, J. R. Rehr, M. Dupuis,
     D. Silverstein, D. M. A. Smith, J. Nieplocha, V. Tipparaju, M. Krishnan,
     B. E. Van Kuiken, A. Vazquez-Mayagoitia, M. Swart, Q. Wu, T. Van Voorhis,
     A. A. Auer, M. Nooijen, L. D. Crosby, E. Brown, G. Cisneros, G. I. Fann,
   H. Fruchtl, J. Garza, K. Hirao, R. A. Kendall, J. A. Nichols, K. Tsemekhman,
    K. Wolinski, J. Anchell, D. E. Bernholdt, P. Borowski, T. Clark, D. Clerc,
   H. Dachsel, M. J. O. Deegan, K. Dyall, D. Elwood, E. Glendening, M. Gutowski,
   A. C. Hess, J. Jaffe, B. G. Johnson, J. Ju, R. Kobayashi, R. Kutteh, Z. Lin,
   R. Littlefield, X. Long, B. Meng, T. Nakajima, S. Niu, L. Pollack, M. Rosing,
   K. Glaesemann, G. Sandrone, M. Stave, H. Taylor, G. Thomas, J. H. van Lenthe,
                               A. T. Wong, Z. Zhang.

 Total times  cpu:      140.6s     wall:      144.4s
