 argument  1 = input.nw
  NWChem w/ OpenMP: maximum threads =    1



============================== echo of input deck ==============================
 echo
 start H2
 title "H2"

 memory total 24 gb

 geometry units bohr
 symmetry c1
        H  0.00000000  0.00000000  0.00000000
        H  0.00000000  4.15  0.00000000
 end

 basis
   * library cc-pVQZ
 end

 mcscf
   active  10
   actelec 2
   multiplicity 1
   maxiter 40
   vectors input H2.mos
   vectors output H2.mos
 end

 task mcscf

 scf
   vectors input H2.mos
   vectors output H2-4.15.mos
   noscf
 end

 tce
   2eorb
   2emet 13
   ccsd
   maxiter 300
   lshift 0.8
 end

# set tce:print_integrals T
# set tce:qorb 10
# set tce:qela 1
# set tce:qelb 1

 set tce:qducc T
 set tce:nactv 9
 set tce:nonhf T
 set tce:ducc_model 6

 set tce:printtol 0.02

 task tce
================================================================================


                                         
                                         


             Northwest Computational Chemistry Package (NWChem) 7.0.1
             --------------------------------------------------------


                    Environmental Molecular Sciences Laboratory
                       Pacific Northwest National Laboratory
                                Richland, WA 99352

                              Copyright (c) 1994-2020
                       Pacific Northwest National Laboratory
                            Battelle Memorial Institute

             NWChem is an open-source computational chemistry package
                        distributed under the terms of the
                      Educational Community License (ECL) 2.0
             A copy of the license is included with this distribution
                              in the LICENSE.TXT file

                                  ACKNOWLEDGMENT
                                  --------------

            This software and its documentation were developed at the
            EMSL at Pacific Northwest National Laboratory, a multiprogram
            national laboratory, operated for the U.S. Department of Energy
            by Battelle under Contract Number DE-AC05-76RL01830. Support
            for this work was provided by the Department of Energy Office
            of Biological and Environmental Research, Office of Basic
            Energy Sciences, and the Office of Advanced Scientific Computing.


           Job information
           ---------------

    hostname        = WE46210
    program         = /home/baum612/code/nwchem/bin/LINUX64/nwchem
    date            = Sat Nov 11 01:58:03 2023

    compiled        = Mon_Nov_06_10:06:57_2023
    source          = /home/baum612/code/nwchem
    nwchem branch   = 7.0.0
    nwchem revision = nwchem_on_git-4191-g39d87d64de
    ga revision     = 5.8.1
    use scalapack   = F
    input           = input.nw
    prefix          = H2.
    data base       = ./H2.db
    status          = startup
    nproc           =        1
    time left       =     -1s



           Memory information
           ------------------

    heap     =  805306362 doubles =   6144.0 Mbytes
    stack    =  805306367 doubles =   6144.0 Mbytes
    global   = 1610612736 doubles =  12288.0 Mbytes (distinct from heap & stack)
    total    = 3221225465 doubles =  24576.0 Mbytes
    verify   = yes
    hardfail = no 


           Directory information
           ---------------------

  0 permanent = .
  0 scratch   = .




                                NWChem Input Module
                                -------------------


                                        H2
                                        --
 Turning off AUTOSYM since
 SYMMETRY directive was detected!


          ------
          auto-z
          ------
     1 autoz failed with cvr_scaling = 1.2 changing to 1.3
     2 autoz failed with cvr_scaling = 1.3 changing to 1.4
     3 autoz failed with cvr_scaling = 1.4 changing to 1.5
     4 autoz failed with cvr_scaling = 1.5 changing to 1.6
     5 autoz failed with cvr_scaling = 1.6 changing to 1.7

 AUTOZ failed to generate good internal coordinates.
 Cartesian coordinates will be used in optimizations.



                             Geometry "geometry" -> ""
                             -------------------------

 Output coordinates in a.u. (scale by  1.000000000 to convert to a.u.)

  No.       Tag          Charge          X              Y              Z
 ---- ---------------- ---------- -------------- -------------- --------------
    1 H                    1.0000     0.00000000    -2.07500000     0.00000000
    2 H                    1.0000     0.00000000     2.07500000     0.00000000

      Atomic Mass 
      ----------- 

      H                  1.007825


 Effective nuclear repulsion energy (a.u.)       0.2409638554

            Nuclear Dipole moment (a.u.) 
            ----------------------------
        X                 Y               Z
 ---------------- ---------------- ----------------
     0.0000000000     0.0000000000     0.0000000000


            XYZ format geometry
            -------------------
     2
 geometry
 H                     0.00000000    -1.09804279     0.00000000
 H                     0.00000000     1.09804279     0.00000000



 Summary of "ao basis" -> "" (cartesian)
 ------------------------------------------------------------------------------
       Tag                 Description            Shells   Functions and Types
 ---------------- ------------------------------  ------  ---------------------
 *                          cc-pVQZ                   on all atoms 


                      Basis "ao basis" -> "ao basis" (cartesian)
                      -----
  H (Hydrogen)
  ------------
            Exponent  Coefficients 
       -------------- ---------------------------------------------------------
  1 S  8.26400000E+01  0.002006
  1 S  1.24100000E+01  0.015343
  1 S  2.82400000E+00  0.075579

  2 S  7.97700000E-01  1.000000

  3 S  2.58100000E-01  1.000000

  4 S  8.98900000E-02  1.000000

  5 P  2.29200000E+00  1.000000

  6 P  8.38000000E-01  1.000000

  7 P  2.92000000E-01  1.000000

  8 D  2.06200000E+00  1.000000

  9 D  6.62000000E-01  1.000000

 10 F  1.39700000E+00  1.000000



 Summary of "ao basis" -> "ao basis" (cartesian)
 ------------------------------------------------------------------------------
       Tag                 Description            Shells   Functions and Types
 ---------------- ------------------------------  ------  ---------------------
 H                          cc-pVQZ                 10       35   4s3p2d1f



                            NWChem Direct MCSCF Module
                            --------------------------


                                        H2


     -----------------------------------
       Basis functions:             70
       Inactive shells:              0
       Active shells:               10
       Active electrons:             2
       Symmetry:                    a       
       Multiplicity:                 1
       Orbital rotations:          600
     -----------------------------------

     -----------------------------------
       E2 extrapolation:             F
       Conjugacy:                    T
       Micro CI relax:               T
       Canonical orbitals:           T
       Maximum iterations:          40
       Converge threshold:    1.00E-04
       Conjugacy resets:            20
       Initial levelshift:        0.10
     -----------------------------------

 Loading old vectors from job with title :

H2


   input molecular orbitals = ./H2.mos
  output molecular orbtials = ./H2.mos

       No. of determinants:           100


  Starting Orbital Energies
    -0.354290    -0.144812    -0.000758    -0.000442    -0.000442    -0.000047
    -0.000023    -0.000023    -0.000021    -0.000011     0.469020     0.806315
     0.950151     1.369620     1.369620     1.723568     1.796825     1.796825
     1.919196     1.919196     2.058312     2.072778     2.072778     2.104038
     2.104038     2.249421     2.249421     2.749627     2.957825     3.025933
     4.322247     4.428074     4.428074     4.433821     4.433821     4.702317
     5.917071     6.048070     6.048070     6.063475     6.063475     6.065567
     6.065567     6.065843     6.065843     6.068975     6.068975     6.086590
     6.086590     6.171144     8.026952     8.064538     8.064538     8.124210
     8.124210     8.145151     8.145151     8.243321     8.243321     8.642980
     9.619872     9.679798     9.691321     9.697739     9.697739     9.734857
     9.734857     9.927813    22.198583    22.993990

  Orbital Symmetry Irreps
a    a    a    a    a    a    a    a    a    a    a    a    a    a    a   
a    a    a    a    a    a    a    a    a    a    a    a    a    a    a   
a    a    a    a    a    a    a    a    a    a    a    a    a    a    a   
a    a    a    a    a    a    a    a    a    a    a    a    a    a    a   
a    a    a    a    a    a    a    a    a    a   

 Integral file          = ./H2.aoints.0
 Record size in doubles =  65536        No. of integs per rec  =  43688
 Max. records in memory =     99        Max. records in file   = 280146
 No. of bits per label  =      8        No. of bits per value  =     64


 #quartets = 2.155D+04 #integrals = 7.428D+05 #direct =  0.0% #cached =100.0%




          %%%%% MacroIteration   1 %%%%%


          Number of sigma calls:       15
                       o<<<<< (aa):             0.00
                       o<<<<< (bb):             0.00
                       o<<<<< (ab):             0.01
                       o<<<<< (total)           0.01
                       o<<<<< (aa) ff           0.00
                       o<<<<< (aa) gop          0.00
                       o<<<<< (aa) dot          0.00
                       o<<<<< (ab) str          0.00
                       o<<<<< (ab) gath         0.00
                       o<<<<< (ab) dotab        0.00
                       o<<<<< (ab) scat         0.00
                       o<<<<< (ab) sync         0.00
                       o<<<<< Density           0.00
                       o<<<<< Density one       0.00
                       o<<<<< Density two       0.00
                       o<<<<< Density ab        0.00
                       o<<<<< Spin adapt        0.00
                       o<<<<< Symm adapt        0.00

                       o<<<<< (ab) max sync:      0.00

           >>>| Valence CI:             -1.253532473865
           >>>| MCSCF energy:           -1.012568618443
           >>>| Gradient norm:          0.199412695D-02
     --- Warning:  478 Hessian diagonals < 0.05 ---

                              ----- Line search ------

        step       energy         lsg     num-lsg   num-lsh   lsrat    time
      ------- ---------------- --------- --------- --------- ------- --------
       0.0000      -1.01256862 -7.16D-07  0.00D+00  0.00D+00 0.0D+00      0.3

          Number of sigma calls:       10
                       o<<<<< (aa):             0.00
                       o<<<<< (bb):             0.00
                       o<<<<< (ab):             0.01
                       o<<<<< (total)           0.01
                       o<<<<< (aa) ff           0.00
                       o<<<<< (aa) gop          0.00
                       o<<<<< (aa) dot          0.00
                       o<<<<< (ab) str          0.00
                       o<<<<< (ab) gath         0.00
                       o<<<<< (ab) dotab        0.00
                       o<<<<< (ab) scat         0.00
                       o<<<<< (ab) sync         0.00
                       o<<<<< Density           0.00
                       o<<<<< Density one       0.00
                       o<<<<< Density two       0.00
                       o<<<<< Density ab        0.00
                       o<<<<< Spin adapt        0.00
                       o<<<<< Symm adapt        0.00

                       o<<<<< (ab) max sync:      0.00
       1.0000      -1.01256908 -2.06D-07 -2.06D-07  5.10D-07 2.9D-01      0.4

          Number of sigma calls:        9
                       o<<<<< (aa):             0.00
                       o<<<<< (bb):             0.00
                       o<<<<< (ab):             0.01
                       o<<<<< (total)           0.01
                       o<<<<< (aa) ff           0.00
                       o<<<<< (aa) gop          0.00
                       o<<<<< (aa) dot          0.00
                       o<<<<< (ab) str          0.00
                       o<<<<< (ab) gath         0.00
                       o<<<<< (ab) dotab        0.00
                       o<<<<< (ab) scat         0.00
                       o<<<<< (ab) sync         0.00
                       o<<<<< Density           0.00
                       o<<<<< Density one       0.00
                       o<<<<< Density two       0.00
                       o<<<<< Density ab        0.00
                       o<<<<< Spin adapt        0.00
                       o<<<<< Symm adapt        0.00

                       o<<<<< (ab) max sync:      0.00
       1.4029      -1.01256912  7.57D-11  7.25D-11  5.10D-07 1.1D-04      0.6
     --- Orbitals canonicalized ---



          %%%%% MacroIteration   2 %%%%%


          Number of sigma calls:       15
                       o<<<<< (aa):             0.00
                       o<<<<< (bb):             0.00
                       o<<<<< (ab):             0.02
                       o<<<<< (total)           0.02
                       o<<<<< (aa) ff           0.00
                       o<<<<< (aa) gop          0.00
                       o<<<<< (aa) dot          0.00
                       o<<<<< (ab) str          0.00
                       o<<<<< (ab) gath         0.00
                       o<<<<< (ab) dotab        0.00
                       o<<<<< (ab) scat         0.00
                       o<<<<< (ab) sync         0.00
                       o<<<<< Density           0.00
                       o<<<<< Density one       0.00
                       o<<<<< Density two       0.00
                       o<<<<< Density ab        0.00
                       o<<<<< Spin adapt        0.00
                       o<<<<< Symm adapt        0.00

                       o<<<<< (ab) max sync:      0.00

           >>>| Valence CI:             -1.253532975937
           >>>| MCSCF energy:           -1.012569120515
           >>>| Gradient norm:          0.518586465D-03
     --- Warning:  478 Hessian diagonals < 0.05 ---
     --- Conjugacy reset ---

                              ----- Line search ------

        step       energy         lsg     num-lsg   num-lsh   lsrat    time
      ------- ---------------- --------- --------- --------- ------- --------
       0.0000      -1.01256912 -1.07D-07  0.00D+00  0.00D+00 0.0D+00      1.0

          Number of sigma calls:        9
                       o<<<<< (aa):             0.00
                       o<<<<< (bb):             0.00
                       o<<<<< (ab):             0.01
                       o<<<<< (total)           0.01
                       o<<<<< (aa) ff           0.00
                       o<<<<< (aa) gop          0.00
                       o<<<<< (aa) dot          0.00
                       o<<<<< (ab) str          0.00
                       o<<<<< (ab) gath         0.00
                       o<<<<< (ab) dotab        0.00
                       o<<<<< (ab) scat         0.00
                       o<<<<< (ab) sync         0.00
                       o<<<<< Density           0.00
                       o<<<<< Density one       0.00
                       o<<<<< Density two       0.00
                       o<<<<< Density ab        0.00
                       o<<<<< Spin adapt        0.00
                       o<<<<< Symm adapt        0.00

                       o<<<<< (ab) max sync:      0.00
       1.0000      -1.01256919 -2.60D-08 -2.60D-08  8.13D-08 2.4D-01      1.2

          Number of sigma calls:        8
                       o<<<<< (aa):             0.00
                       o<<<<< (bb):             0.00
                       o<<<<< (ab):             0.01
                       o<<<<< (total)           0.01
                       o<<<<< (aa) ff           0.00
                       o<<<<< (aa) gop          0.00
                       o<<<<< (aa) dot          0.00
                       o<<<<< (ab) str          0.00
                       o<<<<< (ab) gath         0.00
                       o<<<<< (ab) dotab        0.00
                       o<<<<< (ab) scat         0.00
                       o<<<<< (ab) sync         0.00
                       o<<<<< Density           0.00
                       o<<<<< Density one       0.00
                       o<<<<< Density two       0.00
                       o<<<<< Density ab        0.00
                       o<<<<< Spin adapt        0.00
                       o<<<<< Symm adapt        0.00

                       o<<<<< (ab) max sync:      0.00
       1.3194      -1.01256919  8.55D-12  8.27D-12  8.13D-08 8.0D-05      1.4



          %%%%% MacroIteration   3 %%%%%


          Number of sigma calls:        1
                       o<<<<< (aa):             0.00
                       o<<<<< (bb):             0.00
                       o<<<<< (ab):             0.00
                       o<<<<< (total)           0.00
                       o<<<<< (aa) ff           0.00
                       o<<<<< (aa) gop          0.00
                       o<<<<< (aa) dot          0.00
                       o<<<<< (ab) str          0.00
                       o<<<<< (ab) gath         0.00
                       o<<<<< (ab) dotab        0.00
                       o<<<<< (ab) scat         0.00
                       o<<<<< (ab) sync         0.00
                       o<<<<< Density           0.00
                       o<<<<< Density one       0.00
                       o<<<<< Density two       0.00
                       o<<<<< Density ab        0.00
                       o<<<<< Spin adapt        0.00
                       o<<<<< Symm adapt        0.00

                       o<<<<< (ab) max sync:      0.00

           >>>| Valence CI:             -1.253533046711
           >>>| MCSCF energy:           -1.012569191289
           >>>| Gradient norm:          0.156748947D-03
     --- Warning:  478 Hessian diagonals < 0.05 ---

                              ----- Line search ------

        step       energy         lsg     num-lsg   num-lsh   lsrat    time
      ------- ---------------- --------- --------- --------- ------- --------
       0.0000      -1.01256919 -1.26D-08  0.00D+00  0.00D+00 0.0D+00      1.6

          Number of sigma calls:        8
                       o<<<<< (aa):             0.00
                       o<<<<< (bb):             0.00
                       o<<<<< (ab):             0.01
                       o<<<<< (total)           0.01
                       o<<<<< (aa) ff           0.00
                       o<<<<< (aa) gop          0.00
                       o<<<<< (aa) dot          0.00
                       o<<<<< (ab) str          0.00
                       o<<<<< (ab) gath         0.00
                       o<<<<< (ab) dotab        0.00
                       o<<<<< (ab) scat         0.00
                       o<<<<< (ab) sync         0.00
                       o<<<<< Density           0.00
                       o<<<<< Density one       0.00
                       o<<<<< Density two       0.00
                       o<<<<< Density ab        0.00
                       o<<<<< Spin adapt        0.00
                       o<<<<< Symm adapt        0.00

                       o<<<<< (ab) max sync:      0.00
       1.0000      -1.01256920 -5.95D-09 -5.95D-09  6.64D-09 4.7D-01      1.8

          Number of sigma calls:        7
                       o<<<<< (aa):             0.00
                       o<<<<< (bb):             0.00
                       o<<<<< (ab):             0.00
                       o<<<<< (total)           0.00
                       o<<<<< (aa) ff           0.00
                       o<<<<< (aa) gop          0.00
                       o<<<<< (aa) dot          0.00
                       o<<<<< (ab) str          0.00
                       o<<<<< (ab) gath         0.00
                       o<<<<< (ab) dotab        0.00
                       o<<<<< (ab) scat         0.00
                       o<<<<< (ab) sync         0.00
                       o<<<<< Density           0.00
                       o<<<<< Density one       0.00
                       o<<<<< Density two       0.00
                       o<<<<< Density ab        0.00
                       o<<<<< Spin adapt        0.00
                       o<<<<< Symm adapt        0.00

                       o<<<<< (ab) max sync:      0.00
       1.8961      -1.01256920  3.27D-12  3.01D-12  6.64D-09 2.6D-04      1.9



          %%%%% MacroIteration   4 %%%%%


          Number of sigma calls:        1
                       o<<<<< (aa):             0.00
                       o<<<<< (bb):             0.00
                       o<<<<< (ab):             0.00
                       o<<<<< (total)           0.00
                       o<<<<< (aa) ff           0.00
                       o<<<<< (aa) gop          0.00
                       o<<<<< (aa) dot          0.00
                       o<<<<< (ab) str          0.00
                       o<<<<< (ab) gath         0.00
                       o<<<<< (ab) dotab        0.00
                       o<<<<< (ab) scat         0.00
                       o<<<<< (ab) sync         0.00
                       o<<<<< Density           0.00
                       o<<<<< Density one       0.00
                       o<<<<< Density two       0.00
                       o<<<<< Density ab        0.00
                       o<<<<< Spin adapt        0.00
                       o<<<<< Symm adapt        0.00

                       o<<<<< (ab) max sync:      0.00

           >>>| Valence CI:             -1.253533058641
           >>>| MCSCF energy:           -1.012569203220
           >>>| Gradient norm:          0.143983491D-03
     --- Warning:  478 Hessian diagonals < 0.05 ---

                              ----- Line search ------

        step       energy         lsg     num-lsg   num-lsh   lsrat    time
      ------- ---------------- --------- --------- --------- ------- --------
       0.0000      -1.01256920 -5.04D-09  0.00D+00  0.00D+00 0.0D+00      2.1

          Number of sigma calls:        8
                       o<<<<< (aa):             0.00
                       o<<<<< (bb):             0.00
                       o<<<<< (ab):             0.01
                       o<<<<< (total)           0.01
                       o<<<<< (aa) ff           0.00
                       o<<<<< (aa) gop          0.00
                       o<<<<< (aa) dot          0.00
                       o<<<<< (ab) str          0.00
                       o<<<<< (ab) gath         0.00
                       o<<<<< (ab) dotab        0.00
                       o<<<<< (ab) scat         0.00
                       o<<<<< (ab) sync         0.00
                       o<<<<< Density           0.00
                       o<<<<< Density one       0.00
                       o<<<<< Density two       0.00
                       o<<<<< Density ab        0.00
                       o<<<<< Spin adapt        0.00
                       o<<<<< Symm adapt        0.00

                       o<<<<< (ab) max sync:      0.00
       1.0000      -1.01256921 -4.13D-09 -4.13D-09  9.08D-10 8.2D-01      2.2
  restricting step size    4.5535968481240854     

          Number of sigma calls:        9
                       o<<<<< (aa):             0.00
                       o<<<<< (bb):             0.00
                       o<<<<< (ab):             0.02
                       o<<<<< (total)           0.02
                       o<<<<< (aa) ff           0.00
                       o<<<<< (aa) gop          0.00
                       o<<<<< (aa) dot          0.00
                       o<<<<< (ab) str          0.00
                       o<<<<< (ab) gath         0.00
                       o<<<<< (ab) dotab        0.00
                       o<<<<< (ab) scat         0.00
                       o<<<<< (ab) sync         0.00
                       o<<<<< Density           0.00
                       o<<<<< Density one       0.00
                       o<<<<< Density two       0.00
                       o<<<<< Density ab        0.00
                       o<<<<< Spin adapt        0.00
                       o<<<<< Symm adapt        0.00

                       o<<<<< (ab) max sync:      0.00
       5.0000      -1.01256922 -5.01D-10 -5.01D-10  9.08D-10 9.9D-02      2.5



          %%%%% MacroIteration   5 %%%%%


          Number of sigma calls:        1
                       o<<<<< (aa):             0.00
                       o<<<<< (bb):             0.00
                       o<<<<< (ab):             0.00
                       o<<<<< (total)           0.00
                       o<<<<< (aa) ff           0.00
                       o<<<<< (aa) gop          0.00
                       o<<<<< (aa) dot          0.00
                       o<<<<< (ab) str          0.00
                       o<<<<< (ab) gath         0.00
                       o<<<<< (ab) dotab        0.00
                       o<<<<< (ab) scat         0.00
                       o<<<<< (ab) sync         0.00
                       o<<<<< Density           0.00
                       o<<<<< Density one       0.00
                       o<<<<< Density two       0.00
                       o<<<<< Density ab        0.00
                       o<<<<< Spin adapt        0.00
                       o<<<<< Symm adapt        0.00

                       o<<<<< (ab) max sync:      0.00

           >>>| Valence CI:             -1.253533072502
           >>>| MCSCF energy:           -1.012569217081
           >>>| Gradient norm:          0.189929815D-03
     --- Warning:  478 Hessian diagonals < 0.05 ---

                              ----- Line search ------

        step       energy         lsg     num-lsg   num-lsh   lsrat    time
      ------- ---------------- --------- --------- --------- ------- --------
       0.0000      -1.01256922 -1.17D-08  0.00D+00  0.00D+00 0.0D+00      2.6

          Number of sigma calls:        8
                       o<<<<< (aa):             0.00
                       o<<<<< (bb):             0.00
                       o<<<<< (ab):             0.01
                       o<<<<< (total)           0.01
                       o<<<<< (aa) ff           0.00
                       o<<<<< (aa) gop          0.00
                       o<<<<< (aa) dot          0.00
                       o<<<<< (ab) str          0.00
                       o<<<<< (ab) gath         0.00
                       o<<<<< (ab) dotab        0.00
                       o<<<<< (ab) scat         0.00
                       o<<<<< (ab) sync         0.00
                       o<<<<< Density           0.00
                       o<<<<< Density one       0.00
                       o<<<<< Density two       0.00
                       o<<<<< Density ab        0.00
                       o<<<<< Spin adapt        0.00
                       o<<<<< Symm adapt        0.00

                       o<<<<< (ab) max sync:      0.00
       1.0000      -1.01256923 -1.07D-08 -1.07D-08  1.05D-09 9.1D-01      2.8
  restricting step size    10.158022516202539     

          Number of sigma calls:        9
                       o<<<<< (aa):             0.00
                       o<<<<< (bb):             0.00
                       o<<<<< (ab):             0.01
                       o<<<<< (total)           0.01
                       o<<<<< (aa) ff           0.00
                       o<<<<< (aa) gop          0.00
                       o<<<<< (aa) dot          0.00
                       o<<<<< (ab) str          0.00
                       o<<<<< (ab) gath         0.00
                       o<<<<< (ab) dotab        0.00
                       o<<<<< (ab) scat         0.00
                       o<<<<< (ab) sync         0.00
                       o<<<<< Density           0.00
                       o<<<<< Density one       0.00
                       o<<<<< Density two       0.00
                       o<<<<< Density ab        0.00
                       o<<<<< Spin adapt        0.00
                       o<<<<< Symm adapt        0.00

                       o<<<<< (ab) max sync:      0.00
       5.0000      -1.01256926 -6.48D-09 -6.48D-09  1.05D-09 5.5D-01      3.0

          Number of sigma calls:       10
                       o<<<<< (aa):             0.00
                       o<<<<< (bb):             0.00
                       o<<<<< (ab):             0.01
                       o<<<<< (total)           0.01
                       o<<<<< (aa) ff           0.00
                       o<<<<< (aa) gop          0.00
                       o<<<<< (aa) dot          0.00
                       o<<<<< (ab) str          0.00
                       o<<<<< (ab) gath         0.00
                       o<<<<< (ab) dotab        0.00
                       o<<<<< (ab) scat         0.00
                       o<<<<< (ab) sync         0.00
                       o<<<<< Density           0.00
                       o<<<<< Density one       0.00
                       o<<<<< Density two       0.00
                       o<<<<< Density ab        0.00
                       o<<<<< Spin adapt        0.00
                       o<<<<< Symm adapt        0.00

                       o<<<<< (ab) max sync:      0.00
      11.1772      -1.01256928 -2.62D-11 -2.35D-11  1.04D-09 2.2D-03      3.2



          %%%%% MacroIteration   6 %%%%%


          Number of sigma calls:        1
                       o<<<<< (aa):             0.00
                       o<<<<< (bb):             0.00
                       o<<<<< (ab):             0.00
                       o<<<<< (total)           0.00
                       o<<<<< (aa) ff           0.00
                       o<<<<< (aa) gop          0.00
                       o<<<<< (aa) dot          0.00
                       o<<<<< (ab) str          0.00
                       o<<<<< (ab) gath         0.00
                       o<<<<< (ab) dotab        0.00
                       o<<<<< (ab) scat         0.00
                       o<<<<< (ab) sync         0.00
                       o<<<<< Density           0.00
                       o<<<<< Density one       0.00
                       o<<<<< Density two       0.00
                       o<<<<< Density ab        0.00
                       o<<<<< Spin adapt        0.00
                       o<<<<< Symm adapt        0.00

                       o<<<<< (ab) max sync:      0.00

           >>>| Valence CI:             -1.253533138075
           >>>| MCSCF energy:           -1.012569282653
           >>>| Gradient norm:          0.303287130D-03
     --- Warning:  478 Hessian diagonals < 0.05 ---

                              ----- Line search ------

        step       energy         lsg     num-lsg   num-lsh   lsrat    time
      ------- ---------------- --------- --------- --------- ------- --------
       0.0000      -1.01256928 -3.17D-08  0.00D+00  0.00D+00 0.0D+00      3.4

          Number of sigma calls:        9
                       o<<<<< (aa):             0.00
                       o<<<<< (bb):             0.00
                       o<<<<< (ab):             0.01
                       o<<<<< (total)           0.01
                       o<<<<< (aa) ff           0.00
                       o<<<<< (aa) gop          0.00
                       o<<<<< (aa) dot          0.00
                       o<<<<< (ab) str          0.00
                       o<<<<< (ab) gath         0.00
                       o<<<<< (ab) dotab        0.00
                       o<<<<< (ab) scat         0.00
                       o<<<<< (ab) sync         0.00
                       o<<<<< Density           0.00
                       o<<<<< Density one       0.00
                       o<<<<< Density two       0.00
                       o<<<<< Density ab        0.00
                       o<<<<< Spin adapt        0.00
                       o<<<<< Symm adapt        0.00

                       o<<<<< (ab) max sync:      0.00
       1.0000      -1.01256931 -1.43D-08 -1.43D-08  1.74D-08 4.5D-01      3.6

          Number of sigma calls:        9
                       o<<<<< (aa):             0.00
                       o<<<<< (bb):             0.00
                       o<<<<< (ab):             0.01
                       o<<<<< (total)           0.01
                       o<<<<< (aa) ff           0.00
                       o<<<<< (aa) gop          0.00
                       o<<<<< (aa) dot          0.00
                       o<<<<< (ab) str          0.00
                       o<<<<< (ab) gath         0.00
                       o<<<<< (ab) dotab        0.00
                       o<<<<< (ab) scat         0.00
                       o<<<<< (ab) sync         0.00
                       o<<<<< Density           0.00
                       o<<<<< Density one       0.00
                       o<<<<< Density two       0.00
                       o<<<<< Density ab        0.00
                       o<<<<< Spin adapt        0.00
                       o<<<<< Symm adapt        0.00

                       o<<<<< (ab) max sync:      0.00
       1.8218      -1.01256931  5.17D-12  4.82D-12  1.74D-08 1.6D-04      3.8



          %%%%% MacroIteration   7 %%%%%


          Number of sigma calls:        1
                       o<<<<< (aa):             0.00
                       o<<<<< (bb):             0.00
                       o<<<<< (ab):             0.00
                       o<<<<< (total)           0.00
                       o<<<<< (aa) ff           0.00
                       o<<<<< (aa) gop          0.00
                       o<<<<< (aa) dot          0.00
                       o<<<<< (ab) str          0.00
                       o<<<<< (ab) gath         0.00
                       o<<<<< (ab) dotab        0.00
                       o<<<<< (ab) scat         0.00
                       o<<<<< (ab) sync         0.00
                       o<<<<< Density           0.00
                       o<<<<< Density one       0.00
                       o<<<<< Density two       0.00
                       o<<<<< Density ab        0.00
                       o<<<<< Spin adapt        0.00
                       o<<<<< Symm adapt        0.00

                       o<<<<< (ab) max sync:      0.00

           >>>| Valence CI:             -1.253533166986
           >>>| MCSCF energy:           -1.012569311565
           >>>| Gradient norm:          0.429817083D-04




     ==============================
            MCSCF Converged
     ==============================



          Canonical Eigenvalues

              1      
    1   -0.3509
    2   -0.1482
    3   -0.0007
    4   -0.0004
    5   -0.0004
    6   -0.0000
    7   -0.0000
    8   -0.0000
    9   -0.0000
   10   -0.0000
   11    0.4696
   12    0.8059
   13    0.9443
   14    1.3695
   15    1.3695
   16    1.7177
   17    1.7977
   18    1.7977
   19    1.9271
   20    1.9271
   21    2.0468
   22    2.0744
   23    2.0744
   24    2.1024
   25    2.1024
   26    2.2385
   27    2.2385
   28    2.7259
   29    2.9565
   30    3.0223
   31    4.3352
   32    4.4301
   33    4.4301
   34    4.4311
   35    4.4311
   36    4.6884
   37    5.9163
   38    6.0516
   39    6.0516
   40    6.0641
   41    6.0641
   42    6.0657
   43    6.0657
   44    6.0659
   45    6.0659
   46    6.0685
   47    6.0685
   48    6.0825
   49    6.0825
   50    6.1572
   51    8.0209
   52    8.0693
   53    8.0693
   54    8.1255
   55    8.1255
   56    8.1443
   57    8.1443
   58    8.2342
   59    8.2342
   60    8.6147
   61    9.6246
   62    9.6786
   63    9.6847
   64    9.6995
   65    9.6995
   66    9.7335
   67    9.7335
   68    9.9193
   69   22.2128
   70   22.9700


          Converged CI vector

   Index           Coefficient          Config. Occupation
         1          0.85687543          1  1
        12         -0.51406952          2  2
        23         -0.02581244          3  3

          Number of sigma calls:        1
                       o<<<<< (aa):             0.00
                       o<<<<< (bb):             0.00
                       o<<<<< (ab):             0.00
                       o<<<<< (total)           0.00
                       o<<<<< (aa) ff           0.00
                       o<<<<< (aa) gop          0.00
                       o<<<<< (aa) dot          0.00
                       o<<<<< (ab) str          0.00
                       o<<<<< (ab) gath         0.00
                       o<<<<< (ab) dotab        0.00
                       o<<<<< (ab) scat         0.00
                       o<<<<< (ab) sync         0.00
                       o<<<<< Density           0.00
                       o<<<<< Density one       0.00
                       o<<<<< Density two       0.00
                       o<<<<< Density ab        0.00
                       o<<<<< Spin adapt        0.00
                       o<<<<< Symm adapt        0.00

                       o<<<<< (ab) max sync:      0.00



          Natural orbital occupation numbers

              1      
    1    1.4685
    2    0.5285
    3    0.0013
    4    0.0007
    5    0.0007
    6    0.0001
    7    0.0000
    8    0.0000
    9    0.0000
   10    0.0000


          Number of sigma calls:       15
                       o<<<<< (aa):             0.00
                       o<<<<< (bb):             0.00
                       o<<<<< (ab):             0.00
                       o<<<<< (total)           0.00
                       o<<<<< (aa) ff           0.00
                       o<<<<< (aa) gop          0.00
                       o<<<<< (aa) dot          0.00
                       o<<<<< (ab) str          0.00
                       o<<<<< (ab) gath         0.00
                       o<<<<< (ab) dotab        0.00
                       o<<<<< (ab) scat         0.00
                       o<<<<< (ab) sync         0.00
                       o<<<<< Density           0.00
                       o<<<<< Density one       0.00
                       o<<<<< Density two       0.00
                       o<<<<< Density ab        0.00
                       o<<<<< Spin adapt        0.00
                       o<<<<< Symm adapt        0.00

                       o<<<<< (ab) max sync:      0.00


       Final MCSCF results 
       ------------------- 

       Total MCSCF energy =     -1.012569311564
            Gradient norm =      4.3D-05

    CPU time for solution =      4.0s
   Wall time for solution =      4.6s



                        Analysis of MCSCF natural orbitals
                        ----------------------------------

 Vector    1  Occ=1.468521D+00  E=-3.509214D-01  Symmetry=a
              MO Center=  2.9D-15,  3.4D-12, -1.9D-15, r^2= 2.0D+00
   Bfn.  Coefficient  Atom+Function         Bfn.  Coefficient  Atom+Function  
  ----- ------------  ---------------      ----- ------------  ---------------
     3      0.311680  1 H  s                 38      0.311680  2 H  s          
     4      0.205469  1 H  s                 39      0.205469  2 H  s          
     2      0.162466  1 H  s                 37      0.162466  2 H  s          

 Vector    2  Occ=5.285350D-01  E=-1.481549D-01  Symmetry=a
              MO Center=  8.4D-15, -3.6D-12, -6.4D-15, r^2= 2.1D+00
   Bfn.  Coefficient  Atom+Function         Bfn.  Coefficient  Atom+Function  
  ----- ------------  ---------------      ----- ------------  ---------------
     3      0.401596  1 H  s                 38     -0.401596  2 H  s          
     2      0.202665  1 H  s                  4      0.202473  1 H  s          
    37     -0.202665  2 H  s                 39     -0.202473  2 H  s          

 Vector    3  Occ=1.335039D-03  E=-7.208313D-04  Symmetry=a
              MO Center= -3.4D-14,  2.4D-10,  2.2D-14, r^2= 2.7D+00
   Bfn.  Coefficient  Atom+Function         Bfn.  Coefficient  Atom+Function  
  ----- ------------  ---------------      ----- ------------  ---------------
     3      0.526214  1 H  s                 12      0.525236  1 H  py         
    38      0.526214  2 H  s                 47     -0.525236  2 H  py         
     4     -0.498298  1 H  s                 39     -0.498298  2 H  s          

 Vector    4  Occ=7.305852D-04  E=-4.116952D-04  Symmetry=a
              MO Center=  1.2D-13,  3.5D-11,  6.7D-15, r^2= 2.0D+00
   Bfn.  Coefficient  Atom+Function         Bfn.  Coefficient  Atom+Function  
  ----- ------------  ---------------      ----- ------------  ---------------
     8      0.928431  1 H  px                43      0.928431  2 H  px         
    11     -0.792915  1 H  px                46     -0.792915  2 H  px         
    29     -0.442442  1 H  fxyy              64     -0.442442  2 H  fxyy       
    26     -0.393205  1 H  fxxx              31     -0.393205  1 H  fxzz       
    61     -0.393205  2 H  fxxx              66     -0.393205  2 H  fxzz       

 Vector    5  Occ=7.305852D-04  E=-4.116952D-04  Symmetry=a
              MO Center=  5.4D-15,  3.4D-11, -8.1D-14, r^2= 2.0D+00
   Bfn.  Coefficient  Atom+Function         Bfn.  Coefficient  Atom+Function  
  ----- ------------  ---------------      ----- ------------  ---------------
    10      0.928431  1 H  pz                45      0.928431  2 H  pz         
    13     -0.792915  1 H  pz                48     -0.792915  2 H  pz         
    33     -0.442442  1 H  fyyz              68     -0.442442  2 H  fyyz       
    28     -0.393205  1 H  fxxz              35     -0.393205  1 H  fzzz       
    63     -0.393205  2 H  fxxz              70     -0.393205  2 H  fzzz       

 Vector    6  Occ=6.682338D-05  E=-4.313124D-05  Symmetry=a
              MO Center= -8.1D-14,  2.4D-10,  4.7D-14, r^2= 2.0D+00
   Bfn.  Coefficient  Atom+Function         Bfn.  Coefficient  Atom+Function  
  ----- ------------  ---------------      ----- ------------  ---------------
     9      0.828390  1 H  py                44     -0.828390  2 H  py         
     2      0.668962  1 H  s                 37      0.668962  2 H  s          
     4     -0.383582  1 H  s                 39     -0.383582  2 H  s          
    27     -0.335249  1 H  fxxy              34     -0.335249  1 H  fyzz       
    62      0.335249  2 H  fxxy              69      0.335249  2 H  fyzz       

 Vector    7  Occ=2.569358D-05  E=-2.122889D-05  Symmetry=a
              MO Center= -1.3D-12, -2.0D-11,  7.3D-14, r^2= 1.6D+00
   Bfn.  Coefficient  Atom+Function         Bfn.  Coefficient  Atom+Function  
  ----- ------------  ---------------      ----- ------------  ---------------
     8      0.939059  1 H  px                43     -0.939059  2 H  px         
    11      0.292802  1 H  px                21      0.291959  1 H  dxy        
    46     -0.292802  2 H  px                56      0.291959  2 H  dxy        
    26     -0.278971  1 H  fxxx              31     -0.278971  1 H  fxzz       
    61      0.278971  2 H  fxxx              66      0.278971  2 H  fxzz       

 Vector    8  Occ=2.569358D-05  E=-2.122889D-05  Symmetry=a
              MO Center=  3.9D-14, -2.0D-11,  6.9D-13, r^2= 1.6D+00
   Bfn.  Coefficient  Atom+Function         Bfn.  Coefficient  Atom+Function  
  ----- ------------  ---------------      ----- ------------  ---------------
    10      0.939059  1 H  pz                45     -0.939059  2 H  pz         
    13      0.292802  1 H  pz                24      0.291959  1 H  dyz        
    48     -0.292802  2 H  pz                59      0.291959  2 H  dyz        
    28     -0.278971  1 H  fxxz              35     -0.278971  1 H  fzzz       
    63      0.278971  2 H  fxxz              70      0.278971  2 H  fzzz       

 Vector    9  Occ=2.113456D-05  E=-1.896374D-05  Symmetry=a
              MO Center=  4.1D-12,  2.5D-10, -2.5D-12, r^2= 1.9D+00
   Bfn.  Coefficient  Atom+Function         Bfn.  Coefficient  Atom+Function  
  ----- ------------  ---------------      ----- ------------  ---------------
     9      1.155520  1 H  py                44      1.155520  2 H  py         
     3     -0.730633  1 H  s                 38      0.730633  2 H  s          
     2      0.706029  1 H  s                 37     -0.706029  2 H  s          
    27     -0.378270  1 H  fxxy              34     -0.378270  1 H  fyzz       
    62     -0.378270  2 H  fxxy              69     -0.378270  2 H  fyzz       

 Vector   10  Occ=8.357247D-06  E=-9.868559D-06  Symmetry=a
              MO Center=  1.2D-14,  2.2D-09, -5.7D-15, r^2= 2.5D+00
   Bfn.  Coefficient  Atom+Function         Bfn.  Coefficient  Atom+Function  
  ----- ------------  ---------------      ----- ------------  ---------------
     9      4.298752  1 H  py                44     -4.298752  2 H  py         
    27     -1.923023  1 H  fxxy              34     -1.923023  1 H  fyzz       
    62      1.923023  2 H  fxxy              69      1.923023  2 H  fyzz       
    32     -1.572305  1 H  fyyy              67      1.572305  2 H  fyyy       
     6     -1.116223  1 H  py                41      1.116223  2 H  py         

 Vector   11  Occ=0.000000D+00  E= 4.695564D-01  Symmetry=a
              MO Center=  9.2D-13,  1.8D-10, -5.6D-13, r^2= 8.0D+00
   Bfn.  Coefficient  Atom+Function         Bfn.  Coefficient  Atom+Function  
  ----- ------------  ---------------      ----- ------------  ---------------
     3      2.870311  1 H  s                 38     -2.870311  2 H  s          
     4     -2.299738  1 H  s                 39      2.299738  2 H  s          
     2     -0.674984  1 H  s                 37      0.674984  2 H  s          
    12     -0.469002  1 H  py                47     -0.469002  2 H  py         
    23     -0.398594  1 H  dyy               58      0.398594  2 H  dyy        

 Vector   12  Occ=0.000000D+00  E= 8.058720D-01  Symmetry=a
              MO Center= -4.4D-15, -5.1D-10,  3.3D-15, r^2= 5.6D+00
   Bfn.  Coefficient  Atom+Function         Bfn.  Coefficient  Atom+Function  
  ----- ------------  ---------------      ----- ------------  ---------------
     3      3.845817  1 H  s                 38      3.845817  2 H  s          
     4     -1.491088  1 H  s                 39     -1.491088  2 H  s          
     2     -1.192713  1 H  s                 37     -1.192713  2 H  s          
    23     -0.634546  1 H  dyy               58     -0.634546  2 H  dyy        
    20     -0.588612  1 H  dxx               25     -0.588612  1 H  dzz        

 Vector   13  Occ=0.000000D+00  E= 9.442698D-01  Symmetry=a
              MO Center= -5.8D-12, -3.5D-09,  3.5D-12, r^2= 3.1D+00
   Bfn.  Coefficient  Atom+Function         Bfn.  Coefficient  Atom+Function  
  ----- ------------  ---------------      ----- ------------  ---------------
     9      2.828225  1 H  py                44      2.828225  2 H  py         
     3     -2.045566  1 H  s                 38      2.045566  2 H  s          
    12     -1.577552  1 H  py                47     -1.577552  2 H  py         
    32     -1.098699  1 H  fyyy              67     -1.098699  2 H  fyyy       
    27     -1.079042  1 H  fxxy              34     -1.079042  1 H  fyzz       

 Vector   14  Occ=0.000000D+00  E= 1.369459D+00  Symmetry=a
              MO Center= -1.1D-13, -7.2D-11, -1.7D-12, r^2= 3.5D+00
   Bfn.  Coefficient  Atom+Function         Bfn.  Coefficient  Atom+Function  
  ----- ------------  ---------------      ----- ------------  ---------------
    10      5.496005  1 H  pz                45     -5.496005  2 H  pz         
    28     -2.133792  1 H  fxxz              33     -2.126541  1 H  fyyz       
    35     -2.133792  1 H  fzzz              63      2.133792  2 H  fxxz       
    68      2.126541  2 H  fyyz              70      2.133792  2 H  fzzz       
    13     -1.577019  1 H  pz                48      1.577019  2 H  pz         

 Vector   15  Occ=0.000000D+00  E= 1.369459D+00  Symmetry=a
              MO Center=  3.3D-12, -7.2D-11, -2.0D-13, r^2= 3.5D+00
   Bfn.  Coefficient  Atom+Function         Bfn.  Coefficient  Atom+Function  
  ----- ------------  ---------------      ----- ------------  ---------------
     8      5.496005  1 H  px                43     -5.496005  2 H  px         
    26     -2.133792  1 H  fxxx              29     -2.126541  1 H  fxyy       
    31     -2.133792  1 H  fxzz              61      2.133792  2 H  fxxx       
    64      2.126541  2 H  fxyy              66      2.133792  2 H  fxzz       
    11     -1.577019  1 H  px                46      1.577019  2 H  px         

 Vector   16  Occ=0.000000D+00  E= 1.717691D+00  Symmetry=a
              MO Center= -1.2D-12,  1.4D-09,  7.5D-13, r^2= 3.8D+00
   Bfn.  Coefficient  Atom+Function         Bfn.  Coefficient  Atom+Function  
  ----- ------------  ---------------      ----- ------------  ---------------
     9      4.927729  1 H  py                44      4.927729  2 H  py         
     3      2.346348  1 H  s                 38     -2.346348  2 H  s          
    32     -1.866578  1 H  fyyy              67     -1.866578  2 H  fyyy       
    27     -1.847580  1 H  fxxy              34     -1.847580  1 H  fyzz       
    62     -1.847580  2 H  fxxy              69     -1.847580  2 H  fyzz       

 Vector   17  Occ=0.000000D+00  E= 1.797731D+00  Symmetry=a
              MO Center= -1.9D-15,  3.1D-11,  2.7D-14, r^2= 2.5D+00
   Bfn.  Coefficient  Atom+Function         Bfn.  Coefficient  Atom+Function  
  ----- ------------  ---------------      ----- ------------  ---------------
    10      6.139717  1 H  pz                45      6.139717  2 H  pz         
    28     -2.399635  1 H  fxxz              33     -2.398328  1 H  fyyz       
    35     -2.399635  1 H  fzzz              63     -2.399635  2 H  fxxz       
    68     -2.398328  2 H  fyyz              70     -2.399635  2 H  fzzz       
     7     -1.623216  1 H  pz                42     -1.623216  2 H  pz         

 Vector   18  Occ=0.000000D+00  E= 1.797731D+00  Symmetry=a
              MO Center= -3.3D-14,  3.2D-11, -1.2D-15, r^2= 2.5D+00
   Bfn.  Coefficient  Atom+Function         Bfn.  Coefficient  Atom+Function  
  ----- ------------  ---------------      ----- ------------  ---------------
     8      6.139717  1 H  px                43      6.139717  2 H  px         
    26     -2.399635  1 H  fxxx              29     -2.398328  1 H  fxyy       
    31     -2.399635  1 H  fxzz              61     -2.399635  2 H  fxxx       
    64     -2.398328  2 H  fxyy              66     -2.399635  2 H  fxzz       
     5     -1.623216  1 H  px                40     -1.623216  2 H  px         

 Vector   19  Occ=0.000000D+00  E= 1.927126D+00  Symmetry=a
              MO Center= -4.3D-15,  3.0D-11, -1.1D-15, r^2= 2.4D+00
   Bfn.  Coefficient  Atom+Function         Bfn.  Coefficient  Atom+Function  
  ----- ------------  ---------------      ----- ------------  ---------------
    24      1.206819  1 H  dyz               59     -1.206819  2 H  dyz        
    21     -0.409955  1 H  dxy               56      0.409955  2 H  dxy        
    10      0.378005  1 H  pz                45      0.378005  2 H  pz         
    13     -0.251281  1 H  pz                48     -0.251281  2 H  pz         
    18     -0.175006  1 H  dyz               53      0.175006  2 H  dyz        

 Vector   20  Occ=0.000000D+00  E= 1.927126D+00  Symmetry=a
              MO Center= -4.6D-15,  3.0D-11, -2.1D-16, r^2= 2.4D+00
   Bfn.  Coefficient  Atom+Function         Bfn.  Coefficient  Atom+Function  
  ----- ------------  ---------------      ----- ------------  ---------------
    21      1.206819  1 H  dxy               56     -1.206819  2 H  dxy        
    24      0.409955  1 H  dyz               59     -0.409955  2 H  dyz        
     8      0.378005  1 H  px                43      0.378005  2 H  px         
    11     -0.251281  1 H  px                46     -0.251281  2 H  px         
    15     -0.175006  1 H  dxy               50      0.175006  2 H  dxy        


 Wrote Lagrangian and 1- and 2-particle density matrices to ./H2.mcpdm


     Multipole analysis of the density
     ---------------------------------

     L   x y z        total        nuclear
     -   - - -        -----        -------
     0   0 0 0     -0.000000      2.000000

     1   1 0 0     -0.000000      0.000000
     1   0 1 0     -0.000000      0.000000
     1   0 0 1      0.000000      0.000000

     2   2 0 0     -2.082259      0.000000
     2   1 1 0      0.000000      0.000000
     2   1 0 1     -0.000000      0.000000
     2   0 2 0     -1.517965      8.611250
     2   0 1 1     -0.000000      0.000000
     2   0 0 2     -2.082259      0.000000


  Mulliken analysis of the total density
  --------------------------------------

    Atom       Charge   Shell Charges
 -----------   ------   -------------------------------------------------------
    1 H    1     1.00   0.04  0.21  0.47  0.27  0.00 -0.00  0.00  0.00  0.00  0.00
    2 H    1     1.00   0.04  0.21  0.47  0.27  0.00 -0.00  0.00  0.00  0.00  0.00

    Mulliken analysis of the active space density
    ---------------------------------------------

    Atom       Charge   Shell Charges
 -----------   ------   -------------------------------------------------------
    1 H    1     1.00   0.04  0.21  0.47  0.27  0.00 -0.00  0.00  0.00  0.00  0.00
    2 H    1     1.00   0.04  0.21  0.47  0.27  0.00 -0.00  0.00  0.00  0.00  0.00

 Parallel integral file used      18 records with       0 large values


 Task  times  cpu:        4.1s     wall:        4.6s


                                NWChem Input Module
                                -------------------


                                 NWChem SCF Module
                                 -----------------


                                        H2



  ao basis        = "ao basis"
  functions       =    70
  atoms           =     2
  closed shells   =     1
  open shells     =     0
  charge          =   0.00
  wavefunction    = RHF 
  input vectors   = ./H2.mos
  output vectors  = ./H2-4.15.mos
  use symmetry    = F
  symmetry adapt  = F


 Summary of "ao basis" -> "ao basis" (cartesian)
 ------------------------------------------------------------------------------
       Tag                 Description            Shells   Functions and Types
 ---------------- ------------------------------  ------  ---------------------
 H                          cc-pVQZ                 10       35   4s3p2d1f



 Forming initial guess at       4.7s


 Loading old vectors from job with title :

H2


 Starting SCF solution at       4.7s



 ----------------------------------------------
         Quadratically convergent ROHF

 Convergence threshold     :          1.000E-04
 Maximum no. of iterations :           30
 Final Fock-matrix accuracy:          1.000E-07
 ----------------------------------------------


 Integral file          = ./H2.aoints.0
 Record size in doubles =  65536        No. of integs per rec  =  43688
 Max. records in memory =     99        Max. records in file   = 280196
 No. of bits per label  =      8        No. of bits per value  =     64


 #quartets = 2.090D+04 #integrals = 6.320D+05 #direct =  0.0% #cached =100.0%



       Final RHF  results 
       ------------------ 

         Total SCF energy =     -0.888702774187
      One-electron energy =     -1.551259764411
      Two-electron energy =      0.421593134802
 Nuclear repulsion energy =      0.240963855422

        Time for solution =      0.0s


             Final eigenvalues
             -----------------

              1      
    1   -0.3509
    2   -0.1482
    3   -0.0007
    4   -0.0004
    5   -0.0004
    6   -0.0000
    7   -0.0000
    8   -0.0000
    9   -0.0000
   10   -0.0000
   11    0.4696

                       ROHF Final Molecular Orbital Analysis
                       -------------------------------------

 Vector    1  Occ=2.000000D+00  E=-3.509214D-01
              MO Center=  2.9D-15,  3.4D-12, -1.9D-15, r^2= 2.0D+00
   Bfn.  Coefficient  Atom+Function         Bfn.  Coefficient  Atom+Function  
  ----- ------------  ---------------      ----- ------------  ---------------
     3      0.311680  1 H  s                 38      0.311680  2 H  s          
     4      0.205469  1 H  s                 39      0.205469  2 H  s          
     2      0.162466  1 H  s                 37      0.162466  2 H  s          

 Vector    2  Occ=0.000000D+00  E=-1.481549D-01
              MO Center=  8.4D-15, -3.6D-12, -6.4D-15, r^2= 2.1D+00
   Bfn.  Coefficient  Atom+Function         Bfn.  Coefficient  Atom+Function  
  ----- ------------  ---------------      ----- ------------  ---------------
     3      0.401596  1 H  s                 38     -0.401596  2 H  s          
     2      0.202665  1 H  s                  4      0.202473  1 H  s          
    37     -0.202665  2 H  s                 39     -0.202473  2 H  s          

 Vector    3  Occ=0.000000D+00  E=-7.208313D-04
              MO Center= -3.4D-14,  2.4D-10,  2.2D-14, r^2= 2.7D+00
   Bfn.  Coefficient  Atom+Function         Bfn.  Coefficient  Atom+Function  
  ----- ------------  ---------------      ----- ------------  ---------------
     3      0.526214  1 H  s                 12      0.525236  1 H  py         
    38      0.526214  2 H  s                 47     -0.525236  2 H  py         
     4     -0.498298  1 H  s                 39     -0.498298  2 H  s          

 Vector    4  Occ=0.000000D+00  E=-4.116952D-04
              MO Center=  1.2D-13,  3.5D-11,  6.7D-15, r^2= 2.0D+00
   Bfn.  Coefficient  Atom+Function         Bfn.  Coefficient  Atom+Function  
  ----- ------------  ---------------      ----- ------------  ---------------
     8      0.928431  1 H  px                43      0.928431  2 H  px         
    11     -0.792915  1 H  px                46     -0.792915  2 H  px         
    29     -0.442442  1 H  fxyy              64     -0.442442  2 H  fxyy       
    26     -0.393205  1 H  fxxx              31     -0.393205  1 H  fxzz       
    61     -0.393205  2 H  fxxx              66     -0.393205  2 H  fxzz       

 Vector    5  Occ=0.000000D+00  E=-4.116952D-04
              MO Center=  5.4D-15,  3.4D-11, -8.1D-14, r^2= 2.0D+00
   Bfn.  Coefficient  Atom+Function         Bfn.  Coefficient  Atom+Function  
  ----- ------------  ---------------      ----- ------------  ---------------
    10      0.928431  1 H  pz                45      0.928431  2 H  pz         
    13     -0.792915  1 H  pz                48     -0.792915  2 H  pz         
    33     -0.442442  1 H  fyyz              68     -0.442442  2 H  fyyz       
    28     -0.393205  1 H  fxxz              35     -0.393205  1 H  fzzz       
    63     -0.393205  2 H  fxxz              70     -0.393205  2 H  fzzz       

 Vector    6  Occ=0.000000D+00  E=-4.313124D-05
              MO Center= -8.1D-14,  2.4D-10,  4.7D-14, r^2= 2.0D+00
   Bfn.  Coefficient  Atom+Function         Bfn.  Coefficient  Atom+Function  
  ----- ------------  ---------------      ----- ------------  ---------------
     9      0.828390  1 H  py                44     -0.828390  2 H  py         
     2      0.668962  1 H  s                 37      0.668962  2 H  s          
     4     -0.383582  1 H  s                 39     -0.383582  2 H  s          
    27     -0.335249  1 H  fxxy              34     -0.335249  1 H  fyzz       
    62      0.335249  2 H  fxxy              69      0.335249  2 H  fyzz       

 Vector    7  Occ=0.000000D+00  E=-2.122889D-05
              MO Center= -1.3D-12, -2.0D-11,  7.3D-14, r^2= 1.6D+00
   Bfn.  Coefficient  Atom+Function         Bfn.  Coefficient  Atom+Function  
  ----- ------------  ---------------      ----- ------------  ---------------
     8      0.939059  1 H  px                43     -0.939059  2 H  px         
    11      0.292802  1 H  px                21      0.291959  1 H  dxy        
    46     -0.292802  2 H  px                56      0.291959  2 H  dxy        
    26     -0.278971  1 H  fxxx              31     -0.278971  1 H  fxzz       
    61      0.278971  2 H  fxxx              66      0.278971  2 H  fxzz       

 Vector    8  Occ=0.000000D+00  E=-2.122889D-05
              MO Center=  3.9D-14, -2.0D-11,  6.9D-13, r^2= 1.6D+00
   Bfn.  Coefficient  Atom+Function         Bfn.  Coefficient  Atom+Function  
  ----- ------------  ---------------      ----- ------------  ---------------
    10      0.939059  1 H  pz                45     -0.939059  2 H  pz         
    13      0.292802  1 H  pz                24      0.291959  1 H  dyz        
    48     -0.292802  2 H  pz                59      0.291959  2 H  dyz        
    28     -0.278971  1 H  fxxz              35     -0.278971  1 H  fzzz       
    63      0.278971  2 H  fxxz              70      0.278971  2 H  fzzz       

 Vector    9  Occ=0.000000D+00  E=-1.896374D-05
              MO Center=  4.1D-12,  2.5D-10, -2.5D-12, r^2= 1.9D+00
   Bfn.  Coefficient  Atom+Function         Bfn.  Coefficient  Atom+Function  
  ----- ------------  ---------------      ----- ------------  ---------------
     9      1.155520  1 H  py                44      1.155520  2 H  py         
     3     -0.730633  1 H  s                 38      0.730633  2 H  s          
     2      0.706029  1 H  s                 37     -0.706029  2 H  s          
    27     -0.378270  1 H  fxxy              34     -0.378270  1 H  fyzz       
    62     -0.378270  2 H  fxxy              69     -0.378270  2 H  fyzz       

 Vector   10  Occ=0.000000D+00  E=-9.868559D-06
              MO Center=  1.2D-14,  2.2D-09, -5.7D-15, r^2= 2.5D+00
   Bfn.  Coefficient  Atom+Function         Bfn.  Coefficient  Atom+Function  
  ----- ------------  ---------------      ----- ------------  ---------------
     9      4.298752  1 H  py                44     -4.298752  2 H  py         
    27     -1.923023  1 H  fxxy              34     -1.923023  1 H  fyzz       
    62      1.923023  2 H  fxxy              69      1.923023  2 H  fyzz       
    32     -1.572305  1 H  fyyy              67      1.572305  2 H  fyyy       
     6     -1.116223  1 H  py                41      1.116223  2 H  py         

 Vector   11  Occ=0.000000D+00  E= 4.695564D-01
              MO Center=  9.2D-13,  1.8D-10, -5.6D-13, r^2= 8.0D+00
   Bfn.  Coefficient  Atom+Function         Bfn.  Coefficient  Atom+Function  
  ----- ------------  ---------------      ----- ------------  ---------------
     3      2.870311  1 H  s                 38     -2.870311  2 H  s          
     4     -2.299738  1 H  s                 39      2.299738  2 H  s          
     2     -0.674984  1 H  s                 37      0.674984  2 H  s          
    12     -0.469002  1 H  py                47     -0.469002  2 H  py         
    23     -0.398594  1 H  dyy               58      0.398594  2 H  dyy        

 Vector   12  Occ=0.000000D+00  E= 8.058720D-01
              MO Center= -4.4D-15, -5.1D-10,  3.3D-15, r^2= 5.6D+00
   Bfn.  Coefficient  Atom+Function         Bfn.  Coefficient  Atom+Function  
  ----- ------------  ---------------      ----- ------------  ---------------
     3      3.845817  1 H  s                 38      3.845817  2 H  s          
     4     -1.491088  1 H  s                 39     -1.491088  2 H  s          
     2     -1.192713  1 H  s                 37     -1.192713  2 H  s          
    23     -0.634546  1 H  dyy               58     -0.634546  2 H  dyy        
    20     -0.588612  1 H  dxx               25     -0.588612  1 H  dzz        


 center of mass
 --------------
 x =   0.00000000 y =   0.00000000 z =   0.00000000

 moments of inertia (a.u.)
 ------------------
           8.678633031250           0.000000000000           0.000000000000
           0.000000000000           0.000000000000           0.000000000000
           0.000000000000           0.000000000000           8.678633031250

  Mulliken analysis of the total density
  --------------------------------------

    Atom       Charge   Shell Charges
 -----------   ------   -------------------------------------------------------
    1 H    1     1.00   0.04  0.19  0.45  0.31  0.00 -0.00  0.00  0.00  0.00  0.00
    2 H    1     1.00   0.04  0.19  0.45  0.31  0.00 -0.00  0.00  0.00  0.00  0.00

       Multipole analysis of the density wrt the origin
       ------------------------------------------------

     L   x y z        total         open         nuclear
     -   - - -        -----         ----         -------
     0   0 0 0     -0.000000      0.000000      2.000000

     1   1 0 0     -0.000000      0.000000      0.000000
     1   0 1 0     -0.000000      0.000000      0.000000
     1   0 0 1      0.000000      0.000000      0.000000

     2   2 0 0     -2.216861      0.000000      0.000000
     2   1 1 0     -0.000000      0.000000      0.000000
     2   1 0 1      0.000000      0.000000      0.000000
     2   0 2 0     -0.997600      0.000000      8.611250
     2   0 1 1      0.000000      0.000000      0.000000
     2   0 0 2     -2.216861      0.000000      0.000000


 Parallel integral file used      15 records with       0 large values

                   NWChem Extensible Many-Electron Theory Module
                   ---------------------------------------------

              ======================================================
                   This portion of the program was automatically
                  generated by a Tensor Contraction Engine (TCE).
                  The development of this portion of the program
                 and TCE was supported by US Department of Energy,
                Office of Science, Office of Basic Energy Science.
                      TCE is a product of Battelle and PNNL.
              Please cite: S.Hirata, J.Phys.Chem.A 107, 9887 (2003).
              ======================================================

                                        H2


            General Information
            -------------------
      Number of processors :     1
         Wavefunction type : Restricted Hartree-Fock
          No. of electrons :     2
           Alpha electrons :     1
            Beta electrons :     1
           No. of orbitals :   140
            Alpha orbitals :    70
             Beta orbitals :    70
        Alpha frozen cores :     0
         Beta frozen cores :     0
     Alpha frozen virtuals :     0
      Beta frozen virtuals :     0
         Spin multiplicity : singlet 
    Number of AO functions :    70
       Number of AO shells :    20
        Use of symmetry is : off
      Symmetry adaption is : off
         Schwarz screening : 0.10D-09

          Correlation Information
          -----------------------
          Calculation type : Coupled-cluster singles & doubles                           
   Perturbative correction : none                                                        
            Max iterations :      300
        Residual threshold : 0.10D-06
     T(0) DIIS level shift : 0.80D+00
     L(0) DIIS level shift : 0.00D+00
     T(1) DIIS level shift : 0.00D+00
     L(1) DIIS level shift : 0.00D+00
     T(R) DIIS level shift : 0.00D+00
     T(I) DIIS level shift : 0.00D+00
   CC-T/L Amplitude update :  5-th order DIIS
                I/O scheme : Global Array Library
        L-threshold :  0.10D-06
        EOM-threshold :  0.10D-06
 no EOMCCSD initial starts read in
 TCE RESTART OPTIONS
 READ_INT:   F
 WRITE_INT:  F
 READ_TA:    F
 WRITE_TA:   F
 READ_XA:    F
 WRITE_XA:   F
 READ_IN3:   F
 WRITE_IN3:  F
 SLICE:      F
 D4D5:       F
 quantumc:   F
 qrotation:  F
 pwtce:      F
 qducc:      T
 nacto:                         0
 nrotv:                         0
 nrot:                          0

            Memory Information
            ------------------
          Available GA space size is    1610607836 doubles
          Available MA space size is    1610610644 doubles

 Maximum block size        32 doubles

 tile_dim =     23

 Block   Spin    Irrep     Size     Offset   Alpha
 -------------------------------------------------
   1    alpha     a      1 doubles       0       1
   2    beta      a      1 doubles       1       1
   3    alpha     a     23 doubles       2       3
   4    alpha     a     23 doubles      25       4
   5    alpha     a     23 doubles      48       5
   6    beta      a     23 doubles      71       3
   7    beta      a     23 doubles      94       4
   8    beta      a     23 doubles     117       5

 Global array virtual files algorithm will be used

 Parallel file system coherency ......... OK

 Integral file          = ./H2.aoints.0
 Record size in doubles =  65536        No. of integs per rec  =  43688
 Max. records in memory =     99        Max. records in file   = 280196
 No. of bits per label  =      8        No. of bits per value  =     64


 #quartets = 2.155D+04 #integrals = 7.570D+05 #direct =  0.0% #cached =100.0%


 Fock matrix recomputed
 1-e file size   =             4900
 1-e file name   = ./H2.f1
 Cpu & wall time / sec            0.1            0.1
 4-electron integrals stored in orbital form

 v2    file size   =          6102085
 4-index algorithm nr.  13 is used
 imaxsize =       30
 imaxsize ichop =        0
 Cpu & wall time / sec            2.1            2.1
 T1-number-of-tasks                    3

 t1 file size   =               69
 t1 file name   = ./H2.t1
 t1 file handle =       -998
 T2-number-of-boxes                   15

 t2 file size   =             7935
 t2 file name   = ./H2.t2
 t2 file handle =       -996
CCSD iterations
 ---------------------------------------------------------
 Iter          Residuum       Correlation     Cpu    Wall 
 ---------------------------------------------------------
NEW TASK SCHEDULING
CCSD_T1_NTS --- OK
CCSD_T2_NTS --- OK
    1   0.6651755581765  -0.1438550088324     0.1     0.1
    2   0.3830097128174  -0.0975413309291     0.1     0.1
    3   0.2609381229929  -0.1199483739524     0.1     0.1
    4   0.2148460227767  -0.1075418982960     0.1     0.1
    5   0.1868457608146  -0.1178709485821     0.1     0.1
 MICROCYCLE DIIS UPDATE:                    5                    5
    6   0.0279409951471  -0.1145763880056     0.0     0.1
    7   0.0212180726442  -0.1164241157197     0.1     0.1
    8   0.0176252220657  -0.1175394490873     0.1     0.1
    9   0.0147434421469  -0.1186164596451     0.1     0.1
   10   0.0124396612067  -0.1194061280788     0.1     0.1
 MICROCYCLE DIIS UPDATE:                   10                    5
   11   0.0023897280847  -0.1236633486648     0.1     0.1
   12   0.0013863947682  -0.1236296189694     0.1     0.1
   13   0.0009929319991  -0.1236845289341     0.1     0.1
   14   0.0007905151456  -0.1237090749395     0.0     0.1
   15   0.0006488162596  -0.1237560816994     0.1     0.1
 MICROCYCLE DIIS UPDATE:                   15                    5
   16   0.0003867485180  -0.1238563186819     0.1     0.1
   17   0.0002707456505  -0.1238896540892     0.1     0.1
   18   0.0002187646711  -0.1239056331249     0.1     0.1
   19   0.0001795655138  -0.1239223700465     0.1     0.1
   20   0.0001524416541  -0.1239336035673     0.1     0.1
 MICROCYCLE DIIS UPDATE:                   20                    5
   21   0.0000550047748  -0.1239796782265     0.1     0.1
   22   0.0000397686091  -0.1239795484967     0.0     0.1
   23   0.0000311849399  -0.1239808604694     0.0     0.1
   24   0.0000259076075  -0.1239817638089     0.1     0.1
   25   0.0000215619183  -0.1239829874013     0.1     0.1
 MICROCYCLE DIIS UPDATE:                   25                    5
   26   0.0000097105348  -0.1239877936964     0.1     0.1
   27   0.0000064792605  -0.1239885277161     0.1     0.1
   28   0.0000052316760  -0.1239888541813     0.1     0.1
   29   0.0000043292949  -0.1239892286249     0.1     0.1
   30   0.0000037326962  -0.1239894645259     0.1     0.1
 MICROCYCLE DIIS UPDATE:                   30                    5
   31   0.0000014013864  -0.1239902758344     0.1     0.1
   32   0.0000010980395  -0.1239903064269     0.1     0.1
   33   0.0000008908014  -0.1239903614564     0.1     0.1
   34   0.0000007490185  -0.1239903976737     0.1     0.1
   35   0.0000006281433  -0.1239904390645     0.1     0.1
 MICROCYCLE DIIS UPDATE:                   35                    5
   36   0.0000001801346  -0.1239906386520     0.1     0.1
   37   0.0000001193498  -0.1239906461100     0.1     0.1
   38   0.0000000932124  -0.1239906545865     0.1     0.1
 -----------------------------------------------------------------
 Iterations converged
 CCSD correlation energy / hartree =        -0.123990654586541
 CCSD total energy / hartree       =        -1.012693428773245

 Singles contributions

 Doubles contributions
     2a   (alpha)     2a   (beta ) ---     1a   (alpha)     1a   (beta )       -0.5972120739
     3a   (alpha)     3a   (beta ) ---     1a   (alpha)     1a   (beta )       -0.0298357271
     4a   (alpha)     4a   (beta ) ---     1a   (alpha)     1a   (beta )       -0.0220900138
     5a   (alpha)     5a   (beta ) ---     1a   (alpha)     1a   (beta )       -0.0220900138
 Ground state specification:
 exp(T)|Ref>~(1+T)|Ref>
 ------- a(p)+/a(q) strings ----------

 singles norm

 doubles norm

 Reference string
  0.85854710450230587      :(1a)+ (1b)+ |0>

 Singles strings

 Doubles strings
 -0.51273469684692352      :(2a)+ (2b)+ (1b)  (1a)  (1a)+ (1b)+ |0>
 -------------------------------------
 enrep_tce =   0.24096385542168666     
  EHF(total)         =        -0.88870277
  Shift (HFtot-HFA)  =         0.00000000
 ALL OCCUPIED ORBITALS ARE ACTIVE IN DUCC --> NO SHIFT
 Number of active orbitals                   10
 Number of active alpha electrons                    1
 Number of active beta electrons                    1
  nos                     2
  nvs                   138
 noas                     1
 nobs                     1
 nvas                    69
 nvbs                    69
 nactv                     9
 DUCC MODEL =                     6
 NONHF =  T
 F-T1 correlation    =    7.9666915842178597E-006
 V-T1-T1 correlation =    3.2460841976341887E-010
 V-T2 correlation    =  -0.12399862160273213     
 Total correlation   =  -0.12399065458653949     
 F-T1(Ext) correlation         =   -3.4852726272613390E-007
 V-T1(Ext)-T1(Ext) correlation =    8.8350844248077340E-011
 V-T2(Ext) correlation         =   -7.3242423093565305E-004
 Total Ext correlation         =   -7.3277266984753489E-004
1-BODY TIME =   30.967 SECONDS.
  HHHH TIME =   24.447 SECONDS.
  PPPP TIME =   36.369 SECONDS.
  HHHP TIME =    2.335 SECONDS.
  PPPH TIME =    2.799 SECONDS.
  HPHP TIME =    4.143 SECONDS.
  HHPP TIME =    2.253 SECONDS.
 ONE-BODY UNITARY CHECK
 TWO-BODY UNITARY CHECK
 TWO-BODY ANTISYMMETRY CHECK
 TRANSFORMED ~FOCK~ MATRIX
    1    1        -0.3553350807
    1    3        -0.0082456611
    1    6         0.0694346797
    1   10        -0.0125941665
    2    2        -0.0236518132
    2    9         0.1096008664
    3    1        -0.0082456611
    3    3         0.5274964032
    3    6        -0.0201138985
    3    9         0.0000000002
    3   10         0.3820101065
    4    4         0.5647413085
    5    5         0.5647413085
    6    1         0.0694346797
    6    3        -0.0201138985
    6    6         0.7940171466
    6   10         0.0434736001
    7    7         1.1956401523
    8    8         1.1956401523
    9    2         0.1096008664
    9    3         0.0000000002
    9    9         1.3464923971
    9   10        -0.0000000005
   10    1        -0.0125941665
   10    3         0.3820101065
   10    6         0.0434736001
   10    9        -0.0000000005
   10   10         1.9269842733
 begin_one_electron_integrals
    1    1        -0.7756294657
    1    3        -0.0643414767
    1    6        -0.0045129661
    1   10        -0.0018110303
    2    2        -0.6928606311
    2    9        -0.0052006802
    3    1        -0.0643414767
    3    3        -0.1649640034
    3    6         0.0332453193
    3    9         0.0000000001
    3   10         0.2495292843
    4    4        -0.1248763217
    5    5        -0.1248763217
    6    1        -0.0045129661
    6    3         0.0332453193
    6    6         0.0322587459
    6   10         0.0569854927
    7    7         0.3932147385
    8    8         0.3932147385
    9    2        -0.0052006802
    9    3         0.0000000001
    9    9         0.5308521201
    9   10        -0.0000000004
   10    1        -0.0018110303
   10    3         0.2495292843
   10    6         0.0569854927
   10    9        -0.0000000004
   10   10         1.1770673739
 end_one_electron_integrals
 begin_two_electron_integrals
    1    1    1    1        0.4202943850
    1    1    1    3        0.0560958156
    1    1    1    6        0.0739476458
    1    1    1   10       -0.0107831363
    1    2    1    2        0.1966484588
    1    2    1    9        0.0471378692
    1    3    1    1        0.0560958156
    1    3    1    3        0.0591818420
    1    3    1    6       -0.0016417163
    1    3    1   10        0.0136937937
    1    4    1    4        0.0521273626
    1    5    1    5        0.0521273626
    1    6    1    1        0.0739476458
    1    6    1    3       -0.0016417163
    1    6    1    6        0.0704074942
    1    6    1   10       -0.0116212007
    1    7    1    7        0.0538394502
    1    8    1    8        0.0538394502
    1    9    1    2        0.0471378692
    1    9    1    9        0.0613210052
    1   10    1    1       -0.0107831363
    1   10    1    3        0.0136937937
    1   10    1    6       -0.0116212007
    1   10    1   10        0.0245163348
    1    1    2    2        0.4333631347
    1    1    2    9        0.0810522736
    1    2    2    1        0.1975174515
    1    2    2    3       -0.0157291123
    1    2    2    6        0.1177016443
    1    2    2   10       -0.0228310031
    1    3    2    2        0.0424184940
    1    3    2    9        0.0505050162
    1    4    2    7       -0.0544545323
    1    4    2    8       -0.0065235851
    1    5    2    7        0.0065235851
    1    5    2    8       -0.0544545323
    1    6    2    2        0.0960185755
    1    6    2    9        0.0440532527
    1    7    2    4       -0.0413337152
    1    7    2    5        0.0049517275
    1    8    2    4       -0.0049517275
    1    8    2    5       -0.0413337152
    1    9    2    1        0.0473030006
    1    9    2    3        0.0308929620
    1    9    2    6        0.0492820696
    1    9    2   10       -0.0022661156
    1   10    2    2       -0.0175934105
    1   10    2    9        0.0043623373
    1    1    3    1        0.0560958156
    1    1    3    3        0.3760835141
    1    1    3    6       -0.0275849125
    1    1    3   10        0.0731703836
    1    2    3    2       -0.0157293106
    1    2    3    9        0.1115226405
    1    3    3    1        0.0597066216
    1    3    3    3        0.0771377456
    1    3    3    6       -0.0180052829
    1    3    3   10        0.0607760347
    1    4    3    4        0.0116940931
    1    5    3    5        0.0116940931
    1    6    3    1       -0.0018106074
    1    6    3    3        0.0258805954
    1    6    3    6        0.0080654324
    1    6    3   10        0.0081099547
    1    7    3    7        0.0071746355
    1    8    3    8        0.0071746355
    1    9    3    2        0.0309136658
[...]
    9    1    4    7       -0.0277671104
    9    1    4    8       -0.0033264652
    9    2    4    4        0.0513404130
    9    3    4    7       -0.0803621891
    9    3    4    8       -0.0096272901
    9    4    4    2       -0.0056589897
    9    4    4    9        0.0133332765
    9    6    4    7       -0.0733768223
    9    6    4    8       -0.0087904518
    9    7    4    1       -0.0025478767
    9    7    4    3       -0.0117292300
    9    7    4    6       -0.0065678551
    9    7    4   10       -0.0043489263
    9    8    4    1       -0.0003052325
    9    8    4    3       -0.0014051471
    9    8    4    6       -0.0007868209
    9    8    4   10       -0.0005209960
    9    9    4    4        0.3770043571
    9   10    4    7       -0.0240386112
    9   10    4    8       -0.0028797956
    9    1    5    7        0.0033264652
    9    1    5    8       -0.0277671104
    9    2    5    5        0.0513404130
    9    3    5    7        0.0096272901
    9    3    5    8       -0.0803621891
    9    5    5    2       -0.0056589897
    9    5    5    9        0.0133332765
    9    6    5    7        0.0087904518
    9    6    5    8       -0.0733768223
    9    7    5    1        0.0003052325
    9    7    5    3        0.0014051471
    9    7    5    6        0.0007868209
    9    7    5   10        0.0005209960
    9    8    5    1       -0.0025478767
    9    8    5    3       -0.0117292300
    9    8    5    6       -0.0065678551
    9    8    5   10       -0.0043489263
    9    9    5    5        0.3770043571
    9   10    5    7        0.0028797956
    9   10    5    8       -0.0240386112
    9    1    6    2        0.0492820696
    9    1    6    9        0.0516919291
    9    2    6    1        0.0440532527
    9    2    6    3       -0.0027807800
    9    2    6    6        0.0938622359
    9    2    6   10       -0.0070889903
    9    3    6    2        0.0578006974
    9    3    6    9        0.0654568900
    9    3    6   10       -0.0000000001
    9    4    6    7       -0.0058873413
    9    4    6    8       -0.0007052962
    9    5    6    7        0.0007052962
    9    5    6    8       -0.0058873413
    9    6    6    2        0.0778768411
    9    6    6    9        0.0857587049
    9    6    6   10       -0.0000000002
    9    7    6    4       -0.0065678579
    9    7    6    5        0.0007868212
    9    8    6    4       -0.0007868212
    9    8    6    5       -0.0065678579
    9    9    6    1        0.0883157468
    9    9    6    3       -0.0183710956
    9    9    6    6        0.4356184082
    9    9    6   10       -0.0096877882
    9   10    6    2        0.0070596461
    9   10    6    9        0.0188514660
    9    1    7    4       -0.0277655092
    9    1    7    5        0.0033262734
    9    2    7    7        0.0808224038
    9    3    7    4       -0.0803621892
    9    3    7    5        0.0096272901
    9    4    7    1        0.0027703011
    9    4    7    3       -0.0090113253
    9    4    7    6       -0.0058873385
    9    4    7   10       -0.0057424554
    9    5    7    1       -0.0003318786
    9    5    7    3        0.0010795455
    9    5    7    6        0.0007052958
    9    5    7   10        0.0006879390
    9    6    7    4       -0.0733768221
    9    6    7    5        0.0087904518
    9    7    7    2        0.0074345238
    9    7    7    9        0.0191843937
    9    9    7    7        0.4413205095
    9   10    7    4       -0.0240386114
    9   10    7    5        0.0028797957
    9    1    8    4       -0.0033262734
    9    1    8    5       -0.0277655092
    9    2    8    8        0.0808224038
    9    3    8    4       -0.0096272901
    9    3    8    5       -0.0803621892
    9    4    8    1        0.0003318786
    9    4    8    3       -0.0010795455
    9    4    8    6       -0.0007052958
    9    4    8   10       -0.0006879390
    9    5    8    1        0.0027703011
    9    5    8    3       -0.0090113253
    9    5    8    6       -0.0058873385
    9    5    8   10       -0.0057424554
    9    6    8    4       -0.0087904518
    9    6    8    5       -0.0733768221
    9    8    8    2        0.0074345238
    9    8    8    9        0.0191843937
    9    9    8    8        0.4413205095
    9   10    8    4       -0.0028797957
    9   10    8    5       -0.0240386114
    9    1    9    1        0.0613210052
    9    1    9    3        0.0333586466
    9    1    9    6        0.0516941374
    9    1    9   10        0.0306510237
    9    2    9    2        0.0785602883
    9    2    9    9        0.1169562760
    9    3    9    1        0.0333586466
    9    3    9    3        0.0828236567
    9    3    9    6        0.0654568894
    9    3    9   10        0.0291652122
    9    4    9    4        0.0133332818
    9    5    9    5        0.0133332818
    9    6    9    1        0.0516941374
    9    6    9    3        0.0654568894
    9    6    9    6        0.0857587085
    9    6    9   10        0.0188514632
    9    7    9    7        0.0191843982
    9    8    9    8        0.0191843982
    9    9    9    2        0.1169562760
    9    9    9    9        0.4949877337
    9   10    9    1        0.0306510237
    9   10    9    3        0.0291652122
    9   10    9    6        0.0188514632
    9   10    9   10        0.0426321362
    9    1   10    2       -0.0022661156
    9    1   10    9        0.0306482245
    9    2   10    1        0.0043623373
    9    2   10    3        0.0530520611
    9    2   10    6       -0.0070889890
    9    2   10   10        0.0751585057
    9    3   10    2        0.0044577382
    9    3   10    6       -0.0000000001
    9    3   10    9        0.0291652155
    9    4   10    7       -0.0057424578
    9    4   10    8       -0.0006879393
    9    5   10    7        0.0006879393
    9    5   10    8       -0.0057424578
    9    6   10    2       -0.0133494089
    9    6   10    6       -0.0000000002
    9    6   10    9        0.0188514660
    9    7   10    4       -0.0043489289
    9    7   10    5        0.0005209963
    9    8   10    4       -0.0005209963
    9    8   10    5       -0.0043489289
    9    9   10    1        0.0063421819
    9    9   10    3        0.0979968051
    9    9   10    6       -0.0096877882
    9    9   10   10        0.4184094906
    9   10   10    2        0.0088302667
    9   10   10    9        0.0426321402
   10    1    1    1       -0.0107831363
   10    1    1    3        0.0138599450
   10    1    1    6       -0.0117894453
   10    1    1   10        0.0249462183
   10    2    1    2       -0.0228317602
   10    2    1    9       -0.0022435234
   10    3    1    1        0.0731703836
   10    3    1    3        0.0607771388
   10    3    1    6        0.0081126811
   10    3    1   10        0.0179894611
   10    4    1    4       -0.0154039381
   10    5    1    5       -0.0154039381
   10    6    1    1       -0.0126506689
   10    6    1    2       -0.0000000003
   10    6    1    3        0.0073042625
   10    6    1    6       -0.0246617473
   10    6    1   10        0.0033362000
   10    7    1    7       -0.0140427469
   10    8    1    8       -0.0140427469
   10    9    1    2        0.0194325956
   10    9    1    9        0.0306510237
   10   10    1    1        0.3874315588
   10   10    1    3        0.0755777330
   10   10    1    6        0.0382531970
   10   10    1   10        0.0199145204
   10    1    2    2       -0.0175934105
   10    1    2    9        0.0043901332
   10    2    2    1       -0.0228310031
   10    2    2    3        0.0042861348
   10    2    2    6       -0.0201995227
   10    2    2   10        0.0201571604
   10    3    2    2        0.0625289086
   10    3    2    9        0.0530520613
   10    4    2    7        0.0154613464
   10    4    2    8        0.0018522500
   10    5    2    7       -0.0018522500
   10    5    2    8        0.0154613464
   10    6    2    1       -0.0000000003
   10    6    2    2       -0.0214831910
   10    6    2    6       -0.0000000002
   10    6    2    9       -0.0070889903
   10    7    2    4        0.0110937793
   10    7    2    5       -0.0013290209
   10    8    2    4        0.0013290209
   10    8    2    5        0.0110937793
   10    9    2    1        0.0194377837
   10    9    2    3        0.0250893432
   10    9    2    6        0.0070596461
   10    9    2   10        0.0088302667
   10   10    2    2        0.3834924013
   10   10    2    9        0.0751585057
   10    1    3    1        0.0136937937
   10    1    3    3        0.0213603206
   10    1    3    6       -0.0025163977
   10    1    3   10        0.0179894611
   10    2    3    2        0.0042861345
   10    2    3    9        0.0044577389
   10    3    3    1        0.0607760347
   10    3    3    3        0.0940837190
   10    3    3    6       -0.0190839625
   10    3    3   10        0.0785021233
   10    4    3    4       -0.0005472001
   10    5    3    5       -0.0005472001
   10    6    3    1        0.0073033561
   10    6    3    3       -0.0004159160
   10    6    3    6       -0.0015596129
   10    6    3    9       -0.0000000001
   10    6    3   10        0.0012172052
   10    7    3    7        0.0035307235
   10    8    3    8        0.0035307235
   10    9    3    2        0.0250893436
   10    9    3    9        0.0291652122
   10   10    3    1        0.0755777330
   10   10    3    3        0.3951725914
   10   10    3    6       -0.0351159826
   10   10    3   10        0.0951648684
   10    1    4    4       -0.0084605904
   10    2    4    7        0.0150175252
   10    2    4    8        0.0017990808
   10    3    4    4        0.0651305052
   10    4    4    1       -0.0154040486
   10    4    4    3       -0.0005471997
   10    4    4    6        0.0095338140
   10    4    4   10        0.0120986468
   10    6    4    4        0.0073021430
   10    6    4    7        0.0000000002
   10    7    4    2        0.0110937790
   10    7    4    9       -0.0057424554
   10    8    4    2        0.0013290209
   10    8    4    9       -0.0006879390
   10    9    4    7       -0.0240386114
   10    9    4    8       -0.0028797957
   10   10    4    4        0.3557751486
   10    1    5    5       -0.0084605904
   10    2    5    7       -0.0017990808
   10    2    5    8        0.0150175252
   10    3    5    5        0.0651305052
   10    5    5    1       -0.0154040486
   10    5    5    3       -0.0005471997
   10    5    5    6        0.0095338140
   10    5    5   10        0.0120986468
   10    6    5    5        0.0073021430
   10    6    5    8        0.0000000002
   10    7    5    2       -0.0013290209
   10    7    5    9        0.0006879390
   10    8    5    2        0.0110937790
   10    8    5    9       -0.0057424554
   10    9    5    7        0.0028797957
   10    9    5    8       -0.0240386114
   10   10    5    5        0.3557751486
   10    1    6    1       -0.0116212007
   10    1    6    3       -0.0025182174
   10    1    6    6       -0.0182496925
   10    1    6   10        0.0033362000
   10    2    6    2       -0.0201995233
   10    2    6    9       -0.0133494088
   10    3    6    1        0.0081099547
   10    3    6    3       -0.0190839633
   10    3    6    6        0.0725981167
   10    3    6   10        0.0012172052
   10    4    6    4        0.0095338140
   10    5    6    5        0.0095338140
   10    6    6    1       -0.0246597079
   10    6    6    2       -0.0000000002
   10    6    6    3       -0.0015596138
   10    6    6    6       -0.0122169177
   10    6    6    9       -0.0000000002
   10    6    6   10        0.0169608826
   10    7    6    7       -0.0034034891
   10    8    6    8       -0.0034034891
   10    9    6    2        0.0070596475
   10    9    6    9        0.0188514632
   10   10    6    1        0.0382531970
   10   10    6    3       -0.0351159826
   10   10    6    6        0.3777262694
   10   10    6   10       -0.0010101341
   10    1    7    7       -0.0142281748
   10    2    7    4        0.0150175250
   10    2    7    5       -0.0017990808
   10    3    7    7        0.0785938737
   10    4    7    2        0.0154613459
   10    4    7    9       -0.0043489263
   10    5    7    2       -0.0018522500
   10    5    7    9        0.0005209960
   10    6    7    4        0.0000000002
   10    6    7    7       -0.0065068639
   10    7    7    1       -0.0140432056
   10    7    7    3        0.0035307236
   10    7    7    6       -0.0034034888
   10    7    7   10        0.0108933039
   10    9    7    4       -0.0240386112
   10    9    7    5        0.0028797956
   10   10    7    7        0.3911203810
   10    1    8    8       -0.0142281748
   10    2    8    4        0.0017990808
   10    2    8    5        0.0150175250
   10    3    8    8        0.0785938737
   10    4    8    2        0.0018522500
   10    4    8    9       -0.0005209960
   10    5    8    2        0.0154613459
   10    5    8    9       -0.0043489263
   10    6    8    5        0.0000000002
   10    6    8    8       -0.0065068639
   10    8    8    1       -0.0140432056
   10    8    8    3        0.0035307236
   10    8    8    6       -0.0034034888
   10    8    8   10        0.0108933039
   10    9    8    4       -0.0028797956
   10    9    8    5       -0.0240386112
   10   10    8    8        0.3911203810
   10    1    9    2        0.0043623373
   10    1    9    9        0.0063421819
   10    2    9    1       -0.0022661156
   10    2    9    3        0.0044577382
   10    2    9    6       -0.0133494089
   10    2    9   10        0.0088302667
   10    3    9    2        0.0530520611
   10    3    9    9        0.0979968051
   10    4    9    7       -0.0043489289
   10    4    9    8       -0.0005209963
   10    5    9    7        0.0005209963
   10    5    9    8       -0.0043489289
   10    6    9    2       -0.0070889890
   10    6    9    3       -0.0000000001
   10    6    9    6       -0.0000000002
   10    6    9    9       -0.0096877882
   10    7    9    4       -0.0057424578
   10    7    9    5        0.0006879393
   10    8    9    4       -0.0006879393
   10    8    9    5       -0.0057424578
   10    9    9    1        0.0306482245
   10    9    9    3        0.0291652155
   10    9    9    6        0.0188514660
   10    9    9   10        0.0426321402
   10   10    9    2        0.0751585057
   10   10    9    9        0.4184094906
   10    1   10    1        0.0245163348
   10    1   10    3        0.0179872569
   10    1   10    6        0.0033338429
   10    1   10   10        0.0199145204
   10    2   10    2        0.0201571603
   10    2   10    9        0.0088302667
   10    3   10    1        0.0179872569
   10    3   10    3        0.0785021233
   10    3   10    6        0.0012172054
   10    3   10   10        0.0951648684
   10    4   10    4        0.0120986471
   10    5   10    5        0.0120986471
   10    6   10    1        0.0033338429
   10    6   10    3        0.0012172054
   10    6   10    6        0.0169608832
   10    6   10   10       -0.0010101341
   10    7   10    7        0.0108933046
   10    8   10    8        0.0108933046
   10    9   10    2        0.0088302667
   10    9   10    9        0.0426321362
   10   10   10    1        0.0199145204
   10   10   10    3        0.0951648684
   10   10   10    6       -0.0010101341
   10   10   10   10        0.4079078505
 end_two_electron_integrals

 Parallel integral file used      18 records with       0 large values


 Task  times  cpu:      137.3s     wall:      139.9s


                                NWChem Input Module
                                -------------------


 Summary of allocated global arrays
-----------------------------------
  No active global arrays


MA_summarize_allocated_blocks: starting scan ...
MA_summarize_allocated_blocks: scan completed: 0 heap blocks, 0 stack blocks
MA usage statistics:

	allocation statistics:
					      heap	     stack
					      ----	     -----
	current number of blocks	         0	         0
	maximum number of blocks	        18	        42
	current total bytes		         0	         0
	maximum total bytes		  51983048	9994007128
	maximum total K-bytes		     51984	   9994008
	maximum total M-bytes		        52	      9995


                                     CITATION
                                     --------
                Please cite the following reference when publishing
                           results obtained with NWChem:

          E. Apra, E. J. Bylaska, W. A. de Jong, N. Govind, K. Kowalski,
       T. P. Straatsma, M. Valiev, H. J. J. van Dam, Y. Alexeev, J. Anchell,
       V. Anisimov, F. W. Aquino, R. Atta-Fynn, J. Autschbach, N. P. Bauman,
     J. C. Becca, D. E. Bernholdt, K. Bhaskaran-Nair, S. Bogatko, P. Borowski,
         J. Boschen, J. Brabec, A. Bruner, E. Cauet, Y. Chen, G. N. Chuev,
      C. J. Cramer, J. Daily, M. J. O. Deegan, T. H. Dunning Jr., M. Dupuis,
   K. G. Dyall, G. I. Fann, S. A. Fischer, A. Fonari, H. Fruchtl, L. Gagliardi,
      J. Garza, N. Gawande, S. Ghosh, K. Glaesemann, A. W. Gotz, J. Hammond,
       V. Helms, E. D. Hermes, K. Hirao, S. Hirata, M. Jacquelin, L. Jensen,
   B. G. Johnson, H. Jonsson, R. A. Kendall, M. Klemm, R. Kobayashi, V. Konkov,
      S. Krishnamoorthy, M. Krishnan, Z. Lin, R. D. Lins, R. J. Littlefield,
      A. J. Logsdail, K. Lopata, W. Ma, A. V. Marenich, J. Martin del Campo,
   D. Mejia-Rodriguez, J. E. Moore, J. M. Mullin, T. Nakajima, D. R. Nascimento,
    J. A. Nichols, P. J. Nichols, J. Nieplocha, A. Otero-de-la-Roza, B. Palmer,
    A. Panyala, T. Pirojsirikul, B. Peng, R. Peverati, J. Pittner, L. Pollack,
   R. M. Richard, P. Sadayappan, G. C. Schatz, W. A. Shelton, D. W. Silverstein,
   D. M. A. Smith, T. A. Soares, D. Song, M. Swart, H. L. Taylor, G. S. Thomas,
            V. Tipparaju, D. G. Truhlar, K. Tsemekhman, T. Van Voorhis,
      A. Vazquez-Mayagoitia, P. Verma, O. Villa, A. Vishnu, K. D. Vogiatzis,
        D. Wang, J. H. Weare, M. J. Williamson, T. L. Windus, K. Wolinski,
        A. T. Wong, Q. Wu, C. Yang, Q. Yu, M. Zacharias, Z. Zhang, Y. Zhao,
                                and R. J. Harrison
                        "NWChem: Past, present, and future
                         J. Chem. Phys. 152, 184102 (2020)
                               doi:10.1063/5.0004997

                                      AUTHORS
                                      -------
  E. Apra, E. J. Bylaska, N. Govind, K. Kowalski, M. Valiev, D. Mejia-Rodriguez,
       A. Kunitsa, N. P. Bauman, A. Panyala, W. A. de Jong, T. P. Straatsma,
        H. J. J. van Dam, D. Wang, T. L. Windus, J. Hammond, J. Autschbach,
    K. Bhaskaran-Nair, J. Brabec, K. Lopata, S. A. Fischer, S. Krishnamoorthy,
     M. Jacquelin, W. Ma, M. Klemm, O. Villa, Y. Chen, V. Anisimov, F. Aquino,
    S. Hirata, M. T. Hackler, Eric Hermes, L. Jensen, J. E. Moore, J. C. Becca,
      V. Konjkov, T. Risthaus, M. Malagoli, A. Marenich, A. Otero-de-la-Roza,
        J. Mullin, P. Nichols, R. Peverati, J. Pittner, Y. Zhao, P.-D. Fan,
        A. Fonari, M. J. Williamson, R. J. Harrison, J. R. Rehr, M. Dupuis,
     D. Silverstein, D. M. A. Smith, J. Nieplocha, V. Tipparaju, M. Krishnan,
     B. E. Van Kuiken, A. Vazquez-Mayagoitia, M. Swart, Q. Wu, T. Van Voorhis,
     A. A. Auer, M. Nooijen, L. D. Crosby, E. Brown, G. Cisneros, G. I. Fann,
   H. Fruchtl, J. Garza, K. Hirao, R. A. Kendall, J. A. Nichols, K. Tsemekhman,
    K. Wolinski, J. Anchell, D. E. Bernholdt, P. Borowski, T. Clark, D. Clerc,
   H. Dachsel, M. J. O. Deegan, K. Dyall, D. Elwood, E. Glendening, M. Gutowski,
   A. C. Hess, J. Jaffe, B. G. Johnson, J. Ju, R. Kobayashi, R. Kutteh, Z. Lin,
   R. Littlefield, X. Long, B. Meng, T. Nakajima, S. Niu, L. Pollack, M. Rosing,
   K. Glaesemann, G. Sandrone, M. Stave, H. Taylor, G. Thomas, J. H. van Lenthe,
                               A. T. Wong, Z. Zhang.

 Total times  cpu:      141.4s     wall:      144.5s
