 argument  1 = input.nw
  NWChem w/ OpenMP: maximum threads =    1



============================== echo of input deck ==============================
 echo
 start H2
 title "H2"

 memory total 24 gb

 geometry units bohr
 symmetry c1
        H  0.00000000  0.00000000  0.00000000
        H  0.00000000  5.35  0.00000000
 end

 basis
   * library cc-pVQZ
 end

 mcscf
   active  10
   actelec 2
   multiplicity 1
   maxiter 40
   vectors input H2.mos
   vectors output H2.mos
 end

 task mcscf

 scf
   vectors input H2.mos
   vectors output H2-5.35.mos
   noscf
 end

 tce
   2eorb
   2emet 13
   ccsd
   maxiter 300
   lshift 0.8
 end

# set tce:print_integrals T
# set tce:qorb 10
# set tce:qela 1
# set tce:qelb 1

 set tce:qducc T
 set tce:nactv 9
 set tce:nonhf T
 set tce:ducc_model 6

 set tce:printtol 0.02

 task tce
================================================================================


                                         
                                         


             Northwest Computational Chemistry Package (NWChem) 7.0.1
             --------------------------------------------------------


                    Environmental Molecular Sciences Laboratory
                       Pacific Northwest National Laboratory
                                Richland, WA 99352

                              Copyright (c) 1994-2020
                       Pacific Northwest National Laboratory
                            Battelle Memorial Institute

             NWChem is an open-source computational chemistry package
                        distributed under the terms of the
                      Educational Community License (ECL) 2.0
             A copy of the license is included with this distribution
                              in the LICENSE.TXT file

                                  ACKNOWLEDGMENT
                                  --------------

            This software and its documentation were developed at the
            EMSL at Pacific Northwest National Laboratory, a multiprogram
            national laboratory, operated for the U.S. Department of Energy
            by Battelle under Contract Number DE-AC05-76RL01830. Support
            for this work was provided by the Department of Energy Office
            of Biological and Environmental Research, Office of Basic
            Energy Sciences, and the Office of Advanced Scientific Computing.


           Job information
           ---------------

    hostname        = WE46210
    program         = /home/baum612/code/nwchem/bin/LINUX64/nwchem
    date            = Sat Nov 11 02:58:19 2023

    compiled        = Mon_Nov_06_10:06:57_2023
    source          = /home/baum612/code/nwchem
    nwchem branch   = 7.0.0
    nwchem revision = nwchem_on_git-4191-g39d87d64de
    ga revision     = 5.8.1
    use scalapack   = F
    input           = input.nw
    prefix          = H2.
    data base       = ./H2.db
    status          = startup
    nproc           =        1
    time left       =     -1s



           Memory information
           ------------------

    heap     =  805306362 doubles =   6144.0 Mbytes
    stack    =  805306367 doubles =   6144.0 Mbytes
    global   = 1610612736 doubles =  12288.0 Mbytes (distinct from heap & stack)
    total    = 3221225465 doubles =  24576.0 Mbytes
    verify   = yes
    hardfail = no 


           Directory information
           ---------------------

  0 permanent = .
  0 scratch   = .




                                NWChem Input Module
                                -------------------


                                        H2
                                        --
 Turning off AUTOSYM since
 SYMMETRY directive was detected!


          ------
          auto-z
          ------
     1 autoz failed with cvr_scaling = 1.2 changing to 1.3
     2 autoz failed with cvr_scaling = 1.3 changing to 1.4
     3 autoz failed with cvr_scaling = 1.4 changing to 1.5
     4 autoz failed with cvr_scaling = 1.5 changing to 1.6
     5 autoz failed with cvr_scaling = 1.6 changing to 1.7

 AUTOZ failed to generate good internal coordinates.
 Cartesian coordinates will be used in optimizations.



                             Geometry "geometry" -> ""
                             -------------------------

 Output coordinates in a.u. (scale by  1.000000000 to convert to a.u.)

  No.       Tag          Charge          X              Y              Z
 ---- ---------------- ---------- -------------- -------------- --------------
    1 H                    1.0000     0.00000000    -2.67500000     0.00000000
    2 H                    1.0000     0.00000000     2.67500000     0.00000000

      Atomic Mass 
      ----------- 

      H                  1.007825


 Effective nuclear repulsion energy (a.u.)       0.1869158879

            Nuclear Dipole moment (a.u.) 
            ----------------------------
        X                 Y               Z
 ---------------- ---------------- ----------------
     0.0000000000     0.0000000000     0.0000000000


            XYZ format geometry
            -------------------
     2
 geometry
 H                     0.00000000    -1.41554914     0.00000000
 H                     0.00000000     1.41554914     0.00000000



 Summary of "ao basis" -> "" (cartesian)
 ------------------------------------------------------------------------------
       Tag                 Description            Shells   Functions and Types
 ---------------- ------------------------------  ------  ---------------------
 *                          cc-pVQZ                   on all atoms 


                      Basis "ao basis" -> "ao basis" (cartesian)
                      -----
  H (Hydrogen)
  ------------
            Exponent  Coefficients 
       -------------- ---------------------------------------------------------
  1 S  8.26400000E+01  0.002006
  1 S  1.24100000E+01  0.015343
  1 S  2.82400000E+00  0.075579

  2 S  7.97700000E-01  1.000000

  3 S  2.58100000E-01  1.000000

  4 S  8.98900000E-02  1.000000

  5 P  2.29200000E+00  1.000000

  6 P  8.38000000E-01  1.000000

  7 P  2.92000000E-01  1.000000

  8 D  2.06200000E+00  1.000000

  9 D  6.62000000E-01  1.000000

 10 F  1.39700000E+00  1.000000



 Summary of "ao basis" -> "ao basis" (cartesian)
 ------------------------------------------------------------------------------
       Tag                 Description            Shells   Functions and Types
 ---------------- ------------------------------  ------  ---------------------
 H                          cc-pVQZ                 10       35   4s3p2d1f



                            NWChem Direct MCSCF Module
                            --------------------------


                                        H2


     -----------------------------------
       Basis functions:             70
       Inactive shells:              0
       Active shells:               10
       Active electrons:             2
       Symmetry:                    a       
       Multiplicity:                 1
       Orbital rotations:          600
     -----------------------------------

     -----------------------------------
       E2 extrapolation:             F
       Conjugacy:                    T
       Micro CI relax:               T
       Canonical orbitals:           T
       Maximum iterations:          40
       Converge threshold:    1.00E-04
       Conjugacy resets:            20
       Initial levelshift:        0.10
     -----------------------------------

 Loading old vectors from job with title :

H2


   input molecular orbitals = ./H2.mos
  output molecular orbtials = ./H2.mos

       No. of determinants:           100


  Starting Orbital Energies
    -0.293748    -0.205885    -0.000194    -0.000069    -0.000069    -0.000004
    -0.000002    -0.000001    -0.000001    -0.000001     0.444893     0.696938
     0.798635     1.183142     1.183142     1.721312     1.804298     1.804298
     1.869570     2.025777     2.025777     2.086703     2.086703     2.088852
     2.088852     2.090196     2.090196     2.293922     2.868747     2.966880
     4.396874     4.396874     4.428522     4.428522     4.493693     4.511032
     5.939610     6.055853     6.055853     6.064987     6.067739     6.067739
     6.068971     6.068971     6.068973     6.068973     6.069089     6.069089
     6.069104     6.069104     8.108021     8.134466     8.134466     8.139826
     8.139826     8.140584     8.140584     8.140669     8.140669     8.201927
     9.637114     9.672811     9.710081     9.710081     9.721870     9.721870
     9.758758     9.759994    22.377896    22.604820

  Orbital Symmetry Irreps
a    a    a    a    a    a    a    a    a    a    a    a    a    a    a   
a    a    a    a    a    a    a    a    a    a    a    a    a    a    a   
a    a    a    a    a    a    a    a    a    a    a    a    a    a    a   
a    a    a    a    a    a    a    a    a    a    a    a    a    a    a   
a    a    a    a    a    a    a    a    a    a   

 Integral file          = ./H2.aoints.0
 Record size in doubles =  65536        No. of integs per rec  =  43688
 Max. records in memory =     99        Max. records in file   = 280144
 No. of bits per label  =      8        No. of bits per value  =     64


 #quartets = 1.942D+04 #integrals = 5.218D+05 #direct =  0.0% #cached =100.0%




          %%%%% MacroIteration   1 %%%%%


          Number of sigma calls:       15
                       o<<<<< (aa):             0.00
                       o<<<<< (bb):             0.00
                       o<<<<< (ab):             0.01
                       o<<<<< (total)           0.01
                       o<<<<< (aa) ff           0.00
                       o<<<<< (aa) gop          0.00
                       o<<<<< (aa) dot          0.00
                       o<<<<< (ab) str          0.00
                       o<<<<< (ab) gath         0.00
                       o<<<<< (ab) dotab        0.00
                       o<<<<< (ab) scat         0.00
                       o<<<<< (ab) sync         0.00
                       o<<<<< Density           0.00
                       o<<<<< Density one       0.00
                       o<<<<< Density two       0.00
                       o<<<<< Density ab        0.00
                       o<<<<< Spin adapt        0.00
                       o<<<<< Symm adapt        0.00

                       o<<<<< (ab) max sync:      0.00

           >>>| Valence CI:             -1.188821772564
           >>>| MCSCF energy:           -1.001905884714
           >>>| Gradient norm:          0.806228001D-03
     --- Warning:  480 Hessian diagonals < 0.05 ---

                              ----- Line search ------

        step       energy         lsg     num-lsg   num-lsh   lsrat    time
      ------- ---------------- --------- --------- --------- ------- --------
       0.0000      -1.00190588 -1.23D-07  0.00D+00  0.00D+00 0.0D+00      0.4

          Number of sigma calls:       10
                       o<<<<< (aa):             0.00
                       o<<<<< (bb):             0.00
                       o<<<<< (ab):             0.01
                       o<<<<< (total)           0.01
                       o<<<<< (aa) ff           0.00
                       o<<<<< (aa) gop          0.00
                       o<<<<< (aa) dot          0.00
                       o<<<<< (ab) str          0.00
                       o<<<<< (ab) gath         0.00
                       o<<<<< (ab) dotab        0.00
                       o<<<<< (ab) scat         0.00
                       o<<<<< (ab) sync         0.00
                       o<<<<< Density           0.00
                       o<<<<< Density one       0.00
                       o<<<<< Density two       0.00
                       o<<<<< Density ab        0.00
                       o<<<<< Spin adapt        0.00
                       o<<<<< Symm adapt        0.00

                       o<<<<< (ab) max sync:      0.00
       1.0000      -1.00190596 -2.86D-08 -2.86D-08  9.39D-08 2.3D-01      0.6

          Number of sigma calls:        9
                       o<<<<< (aa):             0.00
                       o<<<<< (bb):             0.00
                       o<<<<< (ab):             0.01
                       o<<<<< (total)           0.01
                       o<<<<< (aa) ff           0.00
                       o<<<<< (aa) gop          0.00
                       o<<<<< (aa) dot          0.00
                       o<<<<< (ab) str          0.00
                       o<<<<< (ab) gath         0.00
                       o<<<<< (ab) dotab        0.00
                       o<<<<< (ab) scat         0.00
                       o<<<<< (ab) sync         0.00
                       o<<<<< Density           0.00
                       o<<<<< Density one       0.00
                       o<<<<< Density two       0.00
                       o<<<<< Density ab        0.00
                       o<<<<< Spin adapt        0.00
                       o<<<<< Symm adapt        0.00

                       o<<<<< (ab) max sync:      0.00
       1.3050      -1.00190596  3.73D-12  3.64D-12  9.39D-08 3.0D-05      0.7
     --- Orbitals canonicalized ---



          %%%%% MacroIteration   2 %%%%%


          Number of sigma calls:       15
                       o<<<<< (aa):             0.00
                       o<<<<< (bb):             0.00
                       o<<<<< (ab):             0.02
                       o<<<<< (total)           0.02
                       o<<<<< (aa) ff           0.00
                       o<<<<< (aa) gop          0.00
                       o<<<<< (aa) dot          0.00
                       o<<<<< (ab) str          0.00
                       o<<<<< (ab) gath         0.00
                       o<<<<< (ab) dotab        0.00
                       o<<<<< (ab) scat         0.00
                       o<<<<< (ab) sync         0.00
                       o<<<<< Density           0.00
                       o<<<<< Density one       0.00
                       o<<<<< Density two       0.00
                       o<<<<< Density ab        0.00
                       o<<<<< Spin adapt        0.00
                       o<<<<< Symm adapt        0.00

                       o<<<<< (ab) max sync:      0.00

           >>>| Valence CI:             -1.188821852530
           >>>| MCSCF energy:           -1.001905964679
           >>>| Gradient norm:          0.133590356D-03
     --- Warning:  480 Hessian diagonals < 0.05 ---
     --- Conjugacy reset ---

                              ----- Line search ------

        step       energy         lsg     num-lsg   num-lsh   lsrat    time
      ------- ---------------- --------- --------- --------- ------- --------
       0.0000      -1.00190596 -3.35D-08  0.00D+00  0.00D+00 0.0D+00      1.1

          Number of sigma calls:        8
                       o<<<<< (aa):             0.00
                       o<<<<< (bb):             0.00
                       o<<<<< (ab):             0.01
                       o<<<<< (total)           0.01
                       o<<<<< (aa) ff           0.00
                       o<<<<< (aa) gop          0.00
                       o<<<<< (aa) dot          0.00
                       o<<<<< (ab) str          0.00
                       o<<<<< (ab) gath         0.00
                       o<<<<< (ab) dotab        0.00
                       o<<<<< (ab) scat         0.00
                       o<<<<< (ab) sync         0.00
                       o<<<<< Density           0.00
                       o<<<<< Density one       0.00
                       o<<<<< Density two       0.00
                       o<<<<< Density ab        0.00
                       o<<<<< Spin adapt        0.00
                       o<<<<< Symm adapt        0.00

                       o<<<<< (ab) max sync:      0.00
       1.0000      -1.00190599 -1.22D-08 -1.22D-08  2.13D-08 3.6D-01      1.3

          Number of sigma calls:        8
                       o<<<<< (aa):             0.00
                       o<<<<< (bb):             0.00
                       o<<<<< (ab):             0.00
                       o<<<<< (total)           0.00
                       o<<<<< (aa) ff           0.00
                       o<<<<< (aa) gop          0.00
                       o<<<<< (aa) dot          0.00
                       o<<<<< (ab) str          0.00
                       o<<<<< (ab) gath         0.00
                       o<<<<< (ab) dotab        0.00
                       o<<<<< (ab) scat         0.00
                       o<<<<< (ab) sync         0.00
                       o<<<<< Density           0.00
                       o<<<<< Density one       0.00
                       o<<<<< Density two       0.00
                       o<<<<< Density ab        0.00
                       o<<<<< Spin adapt        0.00
                       o<<<<< Symm adapt        0.00

                       o<<<<< (ab) max sync:      0.00
       1.5709      -1.00190599 -8.06D-12 -7.53D-12  2.13D-08 2.4D-04      1.4



          %%%%% MacroIteration   3 %%%%%


          Number of sigma calls:        1
                       o<<<<< (aa):             0.00
                       o<<<<< (bb):             0.00
                       o<<<<< (ab):             0.00
                       o<<<<< (total)           0.00
                       o<<<<< (aa) ff           0.00
                       o<<<<< (aa) gop          0.00
                       o<<<<< (aa) dot          0.00
                       o<<<<< (ab) str          0.00
                       o<<<<< (ab) gath         0.00
                       o<<<<< (ab) dotab        0.00
                       o<<<<< (ab) scat         0.00
                       o<<<<< (ab) sync         0.00
                       o<<<<< Density           0.00
                       o<<<<< Density one       0.00
                       o<<<<< Density two       0.00
                       o<<<<< Density ab        0.00
                       o<<<<< Spin adapt        0.00
                       o<<<<< Symm adapt        0.00

                       o<<<<< (ab) max sync:      0.00

           >>>| Valence CI:             -1.188821878851
           >>>| MCSCF energy:           -1.001905991001
           >>>| Gradient norm:          0.757305083D-04




     ==============================
            MCSCF Converged
     ==============================



          Canonical Eigenvalues

              1      
    1   -0.2921
    2   -0.2076
    3   -0.0002
    4   -0.0001
    5   -0.0001
    6   -0.0000
    7   -0.0000
    8   -0.0000
    9   -0.0000
   10   -0.0000
   11    0.4445
   12    0.6928
   13    0.7995
   14    1.1810
   15    1.1810
   16    1.7240
   17    1.8051
   18    1.8051
   19    1.8668
   20    2.0274
   21    2.0274
   22    2.0839
   23    2.0839
   24    2.0890
   25    2.0890
   26    2.0902
   27    2.0902
   28    2.2814
   29    2.8671
   30    2.9696
   31    4.3965
   32    4.3965
   33    4.4283
   34    4.4283
   35    4.4992
   36    4.5014
   37    5.9398
   38    6.0558
   39    6.0558
   40    6.0641
   41    6.0678
   42    6.0678
   43    6.0691
   44    6.0691
   45    6.0691
   46    6.0691
   47    6.0692
   48    6.0692
   49    6.0692
   50    6.0692
   51    8.1103
   52    8.1353
   53    8.1353
   54    8.1398
   55    8.1398
   56    8.1400
   57    8.1400
   58    8.1407
   59    8.1407
   60    8.1944
   61    9.6361
   62    9.6742
   63    9.7100
   64    9.7100
   65    9.7219
   66    9.7219
   67    9.7537
   68    9.7611
   69   22.3540
   70   22.6151


          Converged CI vector

   Index           Coefficient          Config. Occupation
         1          0.77455992          1  1
        12         -0.63226709          2  2

          Number of sigma calls:        1
                       o<<<<< (aa):             0.00
                       o<<<<< (bb):             0.00
                       o<<<<< (ab):             0.00
                       o<<<<< (total)           0.00
                       o<<<<< (aa) ff           0.00
                       o<<<<< (aa) gop          0.00
                       o<<<<< (aa) dot          0.00
                       o<<<<< (ab) str          0.00
                       o<<<<< (ab) gath         0.00
                       o<<<<< (ab) dotab        0.00
                       o<<<<< (ab) scat         0.00
                       o<<<<< (ab) sync         0.00
                       o<<<<< Density           0.00
                       o<<<<< Density one       0.00
                       o<<<<< Density two       0.00
                       o<<<<< Density ab        0.00
                       o<<<<< Spin adapt        0.00
                       o<<<<< Symm adapt        0.00

                       o<<<<< (ab) max sync:      0.00



          Natural orbital occupation numbers

              1      
    1    1.1999
    2    0.7995
    3    0.0003
    4    0.0001
    5    0.0001
    6    0.0000
    7    0.0000
    8    0.0000
    9    0.0000
   10    0.0000


          Number of sigma calls:       15
                       o<<<<< (aa):             0.00
                       o<<<<< (bb):             0.00
                       o<<<<< (ab):             0.02
                       o<<<<< (total)           0.02
                       o<<<<< (aa) ff           0.00
                       o<<<<< (aa) gop          0.00
                       o<<<<< (aa) dot          0.00
                       o<<<<< (ab) str          0.00
                       o<<<<< (ab) gath         0.00
                       o<<<<< (ab) dotab        0.00
                       o<<<<< (ab) scat         0.00
                       o<<<<< (ab) sync         0.00
                       o<<<<< Density           0.00
                       o<<<<< Density one       0.00
                       o<<<<< Density two       0.00
                       o<<<<< Density ab        0.00
                       o<<<<< Spin adapt        0.00
                       o<<<<< Symm adapt        0.00

                       o<<<<< (ab) max sync:      0.00


       Final MCSCF results 
       ------------------- 

       Total MCSCF energy =     -1.001905991001
            Gradient norm =      7.6D-05

    CPU time for solution =      1.8s
   Wall time for solution =      2.1s



                        Analysis of MCSCF natural orbitals
                        ----------------------------------

 Vector    1  Occ=1.199892D+00  E=-2.920979D-01  Symmetry=a
              MO Center=  5.2D-15,  6.0D-12, -3.3D-15, r^2= 2.8D+00
   Bfn.  Coefficient  Atom+Function         Bfn.  Coefficient  Atom+Function  
  ----- ------------  ---------------      ----- ------------  ---------------
     3      0.331154  1 H  s                 38      0.331154  2 H  s          
     4      0.209483  1 H  s                 39      0.209483  2 H  s          
     2      0.172154  1 H  s                 37      0.172154  2 H  s          

 Vector    2  Occ=7.995234D-01  E=-2.075576D-01  Symmetry=a
              MO Center=  2.4D-14, -4.6D-12, -1.6D-14, r^2= 2.9D+00
   Bfn.  Coefficient  Atom+Function         Bfn.  Coefficient  Atom+Function  
  ----- ------------  ---------------      ----- ------------  ---------------
     3      0.371055  1 H  s                 38     -0.371055  2 H  s          
     4      0.209308  1 H  s                 39     -0.209308  2 H  s          
     2      0.188406  1 H  s                 37     -0.188406  2 H  s          

 Vector    3  Occ=3.499161D-04  E=-1.819673D-04  Symmetry=a
              MO Center= -5.2D-16,  2.0D-09, -2.2D-15, r^2= 3.2D+00
   Bfn.  Coefficient  Atom+Function         Bfn.  Coefficient  Atom+Function  
  ----- ------------  ---------------      ----- ------------  ---------------
     9      1.103446  1 H  py                44     -1.103446  2 H  py         
    12     -0.844256  1 H  py                47      0.844256  2 H  py         
     3     -0.674337  1 H  s                 38     -0.674337  2 H  s          
    32     -0.470307  1 H  fyyy              67      0.470307  2 H  fyyy       
    27     -0.446122  1 H  fxxy              34     -0.446122  1 H  fyzz       

 Vector    4  Occ=1.129095D-04  E=-6.411820D-05  Symmetry=a
              MO Center=  1.7D-13, -7.3D-12, -1.5D-13, r^2= 3.0D+00
   Bfn.  Coefficient  Atom+Function         Bfn.  Coefficient  Atom+Function  
  ----- ------------  ---------------      ----- ------------  ---------------
     8      1.078099  1 H  px                43      1.078099  2 H  px         
    10     -0.944023  1 H  pz                45     -0.944023  2 H  pz         
    11     -0.693468  1 H  px                46     -0.693468  2 H  px         
    13      0.607226  1 H  pz                48      0.607226  2 H  pz         
    29     -0.482135  1 H  fxyy              64     -0.482135  2 H  fxyy       

 Vector    5  Occ=1.129095D-04  E=-6.411820D-05  Symmetry=a
              MO Center=  1.5D-14, -7.4D-12,  1.7D-14, r^2= 3.0D+00
   Bfn.  Coefficient  Atom+Function         Bfn.  Coefficient  Atom+Function  
  ----- ------------  ---------------      ----- ------------  ---------------
    10      1.078099  1 H  pz                45      1.078099  2 H  pz         
     8      0.944023  1 H  px                43      0.944023  2 H  px         
    13     -0.693468  1 H  pz                48     -0.693468  2 H  pz         
    11     -0.607226  1 H  px                46     -0.607226  2 H  px         
    33     -0.482135  1 H  fyyz              68     -0.482135  2 H  fyyz       

 Vector    6  Occ=4.925057D-06  E=-3.157281D-06  Symmetry=a
              MO Center= -1.5D-13, -1.1D-09,  1.2D-13, r^2= 2.8D+00
   Bfn.  Coefficient  Atom+Function         Bfn.  Coefficient  Atom+Function  
  ----- ------------  ---------------      ----- ------------  ---------------
     9      0.996270  1 H  py                44     -0.996270  2 H  py         
     2      0.624314  1 H  s                 37      0.624314  2 H  s          
     4     -0.490186  1 H  s                 39     -0.490186  2 H  s          
    27     -0.405081  1 H  fxxy              34     -0.405081  1 H  fyzz       
    62      0.405081  2 H  fxxy              69      0.405081  2 H  fyzz       

 Vector    7  Occ=1.451815D-06  E=-1.391207D-06  Symmetry=a
              MO Center= -1.9D-12,  4.1D-09,  1.1D-12, r^2= 2.3D+00
   Bfn.  Coefficient  Atom+Function         Bfn.  Coefficient  Atom+Function  
  ----- ------------  ---------------      ----- ------------  ---------------
     9      1.479980  1 H  py                44      1.479980  2 H  py         
     3     -0.971520  1 H  s                 38      0.971520  2 H  s          
     2      0.866559  1 H  s                 37     -0.866559  2 H  s          
    27     -0.539224  1 H  fxxy              34     -0.539224  1 H  fyzz       
    62     -0.539224  2 H  fxxy              69     -0.539224  2 H  fyzz       

 Vector    8  Occ=1.115544D-06  E=-9.978134D-07  Symmetry=a
              MO Center=  2.1D-12, -6.1D-13, -1.2D-13, r^2= 2.0D+00
   Bfn.  Coefficient  Atom+Function         Bfn.  Coefficient  Atom+Function  
  ----- ------------  ---------------      ----- ------------  ---------------
     8      1.378265  1 H  px                43     -1.378265  2 H  px         
    26     -0.447511  1 H  fxxx              31     -0.447511  1 H  fxzz       
    61      0.447511  2 H  fxxx              66      0.447511  2 H  fxzz       
    21      0.380378  1 H  dxy               56      0.380378  2 H  dxy        
    29     -0.329263  1 H  fxyy              64      0.329263  2 H  fxyy       

 Vector    9  Occ=1.115544D-06  E=-9.978134D-07  Symmetry=a
              MO Center= -6.4D-14, -2.0D-13, -1.1D-12, r^2= 2.0D+00
   Bfn.  Coefficient  Atom+Function         Bfn.  Coefficient  Atom+Function  
  ----- ------------  ---------------      ----- ------------  ---------------
    10      1.378265  1 H  pz                45     -1.378265  2 H  pz         
    28     -0.447511  1 H  fxxz              35     -0.447511  1 H  fzzz       
    63      0.447511  2 H  fxxz              70      0.447511  2 H  fzzz       
    24      0.380378  1 H  dyz               59      0.380378  2 H  dyz        
    33     -0.329263  1 H  fyyz              68      0.329263  2 H  fyyz       

 Vector   10  Occ=6.718426D-07  E=-8.655859D-07  Symmetry=a
              MO Center=  6.7D-16,  2.6D-09, -9.1D-15, r^2= 2.8D+00
   Bfn.  Coefficient  Atom+Function         Bfn.  Coefficient  Atom+Function  
  ----- ------------  ---------------      ----- ------------  ---------------
     9      3.204010  1 H  py                44     -3.204010  2 H  py         
    27     -1.409341  1 H  fxxy              34     -1.409341  1 H  fyzz       
    62      1.409341  2 H  fxxy              69      1.409341  2 H  fyzz       
    32     -1.097365  1 H  fyyy              67      1.097365  2 H  fyyy       
     6     -0.792117  1 H  py                41      0.792117  2 H  py         

 Vector   11  Occ=0.000000D+00  E= 4.445164D-01  Symmetry=a
              MO Center=  2.1D-12,  7.3D-09, -1.3D-12, r^2= 8.6D+00
   Bfn.  Coefficient  Atom+Function         Bfn.  Coefficient  Atom+Function  
  ----- ------------  ---------------      ----- ------------  ---------------
     3      3.065285  1 H  s                 38     -3.065285  2 H  s          
     4     -1.980706  1 H  s                 39      1.980706  2 H  s          
     2     -0.762856  1 H  s                 37      0.762857  2 H  s          
     9     -0.691652  1 H  py                44     -0.691652  2 H  py         
    23     -0.464816  1 H  dyy               58      0.464816  2 H  dyy        

 Vector   12  Occ=0.000000D+00  E= 6.928101D-01  Symmetry=a
              MO Center= -2.2D-12, -6.6D-09,  1.3D-12, r^2= 4.2D+00
   Bfn.  Coefficient  Atom+Function         Bfn.  Coefficient  Atom+Function  
  ----- ------------  ---------------      ----- ------------  ---------------
     9      1.847076  1 H  py                44      1.847076  2 H  py         
    12     -1.176372  1 H  py                47     -1.176372  2 H  py         
     3      0.832522  1 H  s                 38     -0.832522  2 H  s          
    27     -0.742492  1 H  fxxy              32     -0.739287  1 H  fyyy       
    34     -0.742492  1 H  fyzz              62     -0.742492  2 H  fxxy       

 Vector   13  Occ=0.000000D+00  E= 7.994871D-01  Symmetry=a
              MO Center= -2.1D-15, -1.2D-08,  2.4D-15, r^2= 6.4D+00
   Bfn.  Coefficient  Atom+Function         Bfn.  Coefficient  Atom+Function  
  ----- ------------  ---------------      ----- ------------  ---------------
     3      3.947925  1 H  s                 38      3.947925  2 H  s          
     4     -1.567794  1 H  s                 39     -1.567794  2 H  s          
     2     -1.238242  1 H  s                 37     -1.238242  2 H  s          
    23     -0.627796  1 H  dyy               58     -0.627796  2 H  dyy        
    20     -0.622014  1 H  dxx               25     -0.622014  1 H  dzz        

 Vector   14  Occ=0.000000D+00  E= 1.180981D+00  Symmetry=a
              MO Center=  1.2D-12, -2.3D-11, -1.0D-13, r^2= 4.4D+00
   Bfn.  Coefficient  Atom+Function         Bfn.  Coefficient  Atom+Function  
  ----- ------------  ---------------      ----- ------------  ---------------
     8      4.966015  1 H  px                43     -4.966015  2 H  px         
    26     -1.929419  1 H  fxxx              31     -1.929419  1 H  fxzz       
    61      1.929419  2 H  fxxx              66      1.929419  2 H  fxzz       
    29     -1.910011  1 H  fxyy              64      1.910011  2 H  fxyy       
    11     -1.496871  1 H  px                46      1.496871  2 H  px         

 Vector   15  Occ=0.000000D+00  E= 1.180981D+00  Symmetry=a
              MO Center= -4.9D-14, -2.3D-11, -5.6D-13, r^2= 4.4D+00
   Bfn.  Coefficient  Atom+Function         Bfn.  Coefficient  Atom+Function  
  ----- ------------  ---------------      ----- ------------  ---------------
    10      4.966015  1 H  pz                45     -4.966015  2 H  pz         
    28     -1.929419  1 H  fxxz              35     -1.929419  1 H  fzzz       
    63      1.929419  2 H  fxxz              70      1.929419  2 H  fzzz       
    33     -1.910011  1 H  fyyz              68      1.910011  2 H  fyyz       
    13     -1.496871  1 H  pz                48      1.496871  2 H  pz         

 Vector   16  Occ=0.000000D+00  E= 1.724010D+00  Symmetry=a
              MO Center= -1.2D-12,  4.1D-09,  7.1D-13, r^2= 4.0D+00
   Bfn.  Coefficient  Atom+Function         Bfn.  Coefficient  Atom+Function  
  ----- ------------  ---------------      ----- ------------  ---------------
     9      4.845234  1 H  py                44      4.845234  2 H  py         
     3      2.106631  1 H  s                 38     -2.106631  2 H  s          
    27     -1.882441  1 H  fxxy              34     -1.882441  1 H  fyzz       
    62     -1.882441  2 H  fxxy              69     -1.882441  2 H  fyzz       
    32     -1.871115  1 H  fyyy              67     -1.871115  2 H  fyyy       

 Vector   17  Occ=0.000000D+00  E= 1.805138D+00  Symmetry=a
              MO Center= -6.5D-14,  5.0D-11, -6.0D-15, r^2= 3.3D+00
   Bfn.  Coefficient  Atom+Function         Bfn.  Coefficient  Atom+Function  
  ----- ------------  ---------------      ----- ------------  ---------------
     8      6.166862  1 H  px                43      6.166862  2 H  px         
    26     -2.409475  1 H  fxxx              29     -2.411347  1 H  fxyy       
    31     -2.409475  1 H  fxzz              61     -2.409475  2 H  fxxx       
    64     -2.411347  2 H  fxyy              66     -2.409475  2 H  fxzz       
     5     -1.631204  1 H  px                40     -1.631204  2 H  px         

 Vector   18  Occ=0.000000D+00  E= 1.805138D+00  Symmetry=a
              MO Center= -8.8D-15,  4.9D-11,  5.7D-14, r^2= 3.3D+00
   Bfn.  Coefficient  Atom+Function         Bfn.  Coefficient  Atom+Function  
  ----- ------------  ---------------      ----- ------------  ---------------
    10      6.166862  1 H  pz                45      6.166862  2 H  pz         
    28     -2.409475  1 H  fxxz              33     -2.411347  1 H  fyyz       
    35     -2.409475  1 H  fzzz              63     -2.409475  2 H  fxxz       
    68     -2.411347  2 H  fyyz              70     -2.409475  2 H  fzzz       
     7     -1.631204  1 H  pz                42     -1.631204  2 H  pz         

 Vector   19  Occ=0.000000D+00  E= 1.866842D+00  Symmetry=a
              MO Center=  1.4D-14, -1.2D-09, -1.0D-14, r^2= 3.5D+00
   Bfn.  Coefficient  Atom+Function         Bfn.  Coefficient  Atom+Function  
  ----- ------------  ---------------      ----- ------------  ---------------
     9      4.320566  1 H  py                44     -4.320566  2 H  py         
    32     -1.690698  1 H  fyyy              67      1.690698  2 H  fyyy       
    27     -1.677889  1 H  fxxy              34     -1.677889  1 H  fyzz       
    62      1.677889  2 H  fxxy              69      1.677889  2 H  fyzz       
     6     -1.140970  1 H  py                41      1.140970  2 H  py         

 Vector   20  Occ=0.000000D+00  E= 2.027391D+00  Symmetry=a
              MO Center= -9.4D-15, -2.6D-10,  1.2D-15, r^2= 3.2D+00
   Bfn.  Coefficient  Atom+Function         Bfn.  Coefficient  Atom+Function  
  ----- ------------  ---------------      ----- ------------  ---------------
    24      1.085856  1 H  dyz               59     -1.085856  2 H  dyz        
    21      0.707730  1 H  dxy               56     -0.707730  2 H  dxy        
    18     -0.150595  1 H  dyz               53      0.150595  2 H  dyz        


 Wrote Lagrangian and 1- and 2-particle density matrices to ./H2.mcpdm


     Multipole analysis of the density
     ---------------------------------

     L   x y z        total        nuclear
     -   - - -        -----        -------
     0   0 0 0     -0.000000      2.000000

     1   1 0 0     -0.000000      0.000000
     1   0 1 0     -0.000000      0.000000
     1   0 0 1      0.000000      0.000000

     2   2 0 0     -2.022068      0.000000
     2   1 1 0      0.000000      0.000000
     2   1 0 1     -0.000000      0.000000
     2   0 2 0     -1.850750     14.311250
     2   0 1 1     -0.000000      0.000000
     2   0 0 2     -2.022068      0.000000


  Mulliken analysis of the total density
  --------------------------------------

    Atom       Charge   Shell Charges
 -----------   ------   -------------------------------------------------------
    1 H    1     1.00   0.05  0.22  0.48  0.26  0.00 -0.00  0.00  0.00  0.00  0.00
    2 H    1     1.00   0.05  0.22  0.48  0.26  0.00 -0.00  0.00  0.00  0.00  0.00

    Mulliken analysis of the active space density
    ---------------------------------------------

    Atom       Charge   Shell Charges
 -----------   ------   -------------------------------------------------------
    1 H    1     1.00   0.05  0.22  0.48  0.26  0.00 -0.00  0.00  0.00  0.00  0.00
    2 H    1     1.00   0.05  0.22  0.48  0.26  0.00 -0.00  0.00  0.00  0.00  0.00

 Parallel integral file used      12 records with       0 large values


 Task  times  cpu:        1.8s     wall:        2.1s


                                NWChem Input Module
                                -------------------


                                 NWChem SCF Module
                                 -----------------


                                        H2



  ao basis        = "ao basis"
  functions       =    70
  atoms           =     2
  closed shells   =     1
  open shells     =     0
  charge          =   0.00
  wavefunction    = RHF 
  input vectors   = ./H2.mos
  output vectors  = ./H2-5.35.mos
  use symmetry    = F
  symmetry adapt  = F


 Summary of "ao basis" -> "ao basis" (cartesian)
 ------------------------------------------------------------------------------
       Tag                 Description            Shells   Functions and Types
 ---------------- ------------------------------  ------  ---------------------
 H                          cc-pVQZ                 10       35   4s3p2d1f



 Forming initial guess at       2.1s


 Loading old vectors from job with title :

H2


 Starting SCF solution at       2.1s



 ----------------------------------------------
         Quadratically convergent ROHF

 Convergence threshold     :          1.000E-04
 Maximum no. of iterations :           30
 Final Fock-matrix accuracy:          1.000E-07
 ----------------------------------------------


 Integral file          = ./H2.aoints.0
 Record size in doubles =  65536        No. of integs per rec  =  43688
 Max. records in memory =     99        Max. records in file   = 280186
 No. of bits per label  =      8        No. of bits per value  =     64


 #quartets = 1.800D+04 #integrals = 4.203D+05 #direct =  0.0% #cached =100.0%



       Final RHF  results 
       ------------------ 

         Total SCF energy =     -0.820521766467
      One-electron energy =     -1.403897970772
      Two-electron energy =      0.396460316455
 Nuclear repulsion energy =      0.186915887850

        Time for solution =      0.0s


             Final eigenvalues
             -----------------

              1      
    1   -0.2921
    2   -0.2076
    3   -0.0002
    4   -0.0001
    5   -0.0001
    6   -0.0000
    7   -0.0000
    8   -0.0000
    9   -0.0000
   10   -0.0000
   11    0.4445

                       ROHF Final Molecular Orbital Analysis
                       -------------------------------------

 Vector    1  Occ=2.000000D+00  E=-2.920979D-01
              MO Center=  5.2D-15,  6.0D-12, -3.3D-15, r^2= 2.8D+00
   Bfn.  Coefficient  Atom+Function         Bfn.  Coefficient  Atom+Function  
  ----- ------------  ---------------      ----- ------------  ---------------
     3      0.331154  1 H  s                 38      0.331154  2 H  s          
     4      0.209483  1 H  s                 39      0.209483  2 H  s          
     2      0.172154  1 H  s                 37      0.172154  2 H  s          

 Vector    2  Occ=0.000000D+00  E=-2.075576D-01
              MO Center=  2.4D-14, -4.6D-12, -1.6D-14, r^2= 2.9D+00
   Bfn.  Coefficient  Atom+Function         Bfn.  Coefficient  Atom+Function  
  ----- ------------  ---------------      ----- ------------  ---------------
     3      0.371055  1 H  s                 38     -0.371055  2 H  s          
     4      0.209308  1 H  s                 39     -0.209308  2 H  s          
     2      0.188406  1 H  s                 37     -0.188406  2 H  s          

 Vector    3  Occ=0.000000D+00  E=-1.819673D-04
              MO Center= -5.2D-16,  2.0D-09, -2.2D-15, r^2= 3.2D+00
   Bfn.  Coefficient  Atom+Function         Bfn.  Coefficient  Atom+Function  
  ----- ------------  ---------------      ----- ------------  ---------------
     9      1.103446  1 H  py                44     -1.103446  2 H  py         
    12     -0.844256  1 H  py                47      0.844256  2 H  py         
     3     -0.674337  1 H  s                 38     -0.674337  2 H  s          
    32     -0.470307  1 H  fyyy              67      0.470307  2 H  fyyy       
    27     -0.446122  1 H  fxxy              34     -0.446122  1 H  fyzz       

 Vector    4  Occ=0.000000D+00  E=-6.411820D-05
              MO Center=  1.7D-13, -7.3D-12, -1.5D-13, r^2= 3.0D+00
   Bfn.  Coefficient  Atom+Function         Bfn.  Coefficient  Atom+Function  
  ----- ------------  ---------------      ----- ------------  ---------------
     8      1.078099  1 H  px                43      1.078099  2 H  px         
    10     -0.944023  1 H  pz                45     -0.944023  2 H  pz         
    11     -0.693468  1 H  px                46     -0.693468  2 H  px         
    13      0.607226  1 H  pz                48      0.607226  2 H  pz         
    29     -0.482135  1 H  fxyy              64     -0.482135  2 H  fxyy       

 Vector    5  Occ=0.000000D+00  E=-6.411820D-05
              MO Center=  1.5D-14, -7.4D-12,  1.7D-14, r^2= 3.0D+00
   Bfn.  Coefficient  Atom+Function         Bfn.  Coefficient  Atom+Function  
  ----- ------------  ---------------      ----- ------------  ---------------
    10      1.078099  1 H  pz                45      1.078099  2 H  pz         
     8      0.944023  1 H  px                43      0.944023  2 H  px         
    13     -0.693468  1 H  pz                48     -0.693468  2 H  pz         
    11     -0.607226  1 H  px                46     -0.607226  2 H  px         
    33     -0.482135  1 H  fyyz              68     -0.482135  2 H  fyyz       

 Vector    6  Occ=0.000000D+00  E=-3.157281D-06
              MO Center= -1.5D-13, -1.1D-09,  1.2D-13, r^2= 2.8D+00
   Bfn.  Coefficient  Atom+Function         Bfn.  Coefficient  Atom+Function  
  ----- ------------  ---------------      ----- ------------  ---------------
     9      0.996270  1 H  py                44     -0.996270  2 H  py         
     2      0.624314  1 H  s                 37      0.624314  2 H  s          
     4     -0.490186  1 H  s                 39     -0.490186  2 H  s          
    27     -0.405081  1 H  fxxy              34     -0.405081  1 H  fyzz       
    62      0.405081  2 H  fxxy              69      0.405081  2 H  fyzz       

 Vector    7  Occ=0.000000D+00  E=-1.391207D-06
              MO Center= -1.9D-12,  4.1D-09,  1.1D-12, r^2= 2.3D+00
   Bfn.  Coefficient  Atom+Function         Bfn.  Coefficient  Atom+Function  
  ----- ------------  ---------------      ----- ------------  ---------------
     9      1.479980  1 H  py                44      1.479980  2 H  py         
     3     -0.971520  1 H  s                 38      0.971520  2 H  s          
     2      0.866559  1 H  s                 37     -0.866559  2 H  s          
    27     -0.539224  1 H  fxxy              34     -0.539224  1 H  fyzz       
    62     -0.539224  2 H  fxxy              69     -0.539224  2 H  fyzz       

 Vector    8  Occ=0.000000D+00  E=-9.978134D-07
              MO Center=  2.1D-12, -6.1D-13, -1.2D-13, r^2= 2.0D+00
   Bfn.  Coefficient  Atom+Function         Bfn.  Coefficient  Atom+Function  
  ----- ------------  ---------------      ----- ------------  ---------------
     8      1.378265  1 H  px                43     -1.378265  2 H  px         
    26     -0.447511  1 H  fxxx              31     -0.447511  1 H  fxzz       
    61      0.447511  2 H  fxxx              66      0.447511  2 H  fxzz       
    21      0.380378  1 H  dxy               56      0.380378  2 H  dxy        
    29     -0.329263  1 H  fxyy              64      0.329263  2 H  fxyy       

 Vector    9  Occ=0.000000D+00  E=-9.978134D-07
              MO Center= -6.4D-14, -2.0D-13, -1.1D-12, r^2= 2.0D+00
   Bfn.  Coefficient  Atom+Function         Bfn.  Coefficient  Atom+Function  
  ----- ------------  ---------------      ----- ------------  ---------------
    10      1.378265  1 H  pz                45     -1.378265  2 H  pz         
    28     -0.447511  1 H  fxxz              35     -0.447511  1 H  fzzz       
    63      0.447511  2 H  fxxz              70      0.447511  2 H  fzzz       
    24      0.380378  1 H  dyz               59      0.380378  2 H  dyz        
    33     -0.329263  1 H  fyyz              68      0.329263  2 H  fyyz       

 Vector   10  Occ=0.000000D+00  E=-8.655859D-07
              MO Center=  6.7D-16,  2.6D-09, -9.1D-15, r^2= 2.8D+00
   Bfn.  Coefficient  Atom+Function         Bfn.  Coefficient  Atom+Function  
  ----- ------------  ---------------      ----- ------------  ---------------
     9      3.204010  1 H  py                44     -3.204010  2 H  py         
    27     -1.409341  1 H  fxxy              34     -1.409341  1 H  fyzz       
    62      1.409341  2 H  fxxy              69      1.409341  2 H  fyzz       
    32     -1.097365  1 H  fyyy              67      1.097365  2 H  fyyy       
     6     -0.792117  1 H  py                41      0.792117  2 H  py         

 Vector   11  Occ=0.000000D+00  E= 4.445164D-01
              MO Center=  2.1D-12,  7.3D-09, -1.3D-12, r^2= 8.6D+00
   Bfn.  Coefficient  Atom+Function         Bfn.  Coefficient  Atom+Function  
  ----- ------------  ---------------      ----- ------------  ---------------
     3      3.065285  1 H  s                 38     -3.065285  2 H  s          
     4     -1.980706  1 H  s                 39      1.980706  2 H  s          
     2     -0.762856  1 H  s                 37      0.762857  2 H  s          
     9     -0.691652  1 H  py                44     -0.691652  2 H  py         
    23     -0.464816  1 H  dyy               58      0.464816  2 H  dyy        

 Vector   12  Occ=0.000000D+00  E= 6.928101D-01
              MO Center= -2.2D-12, -6.6D-09,  1.3D-12, r^2= 4.2D+00
   Bfn.  Coefficient  Atom+Function         Bfn.  Coefficient  Atom+Function  
  ----- ------------  ---------------      ----- ------------  ---------------
     9      1.847076  1 H  py                44      1.847076  2 H  py         
    12     -1.176372  1 H  py                47     -1.176372  2 H  py         
     3      0.832522  1 H  s                 38     -0.832522  2 H  s          
    27     -0.742492  1 H  fxxy              32     -0.739287  1 H  fyyy       
    34     -0.742492  1 H  fyzz              62     -0.742492  2 H  fxxy       


 center of mass
 --------------
 x =   0.00000000 y =   0.00000000 z =   0.00000000

 moments of inertia (a.u.)
 ------------------
          14.423235531250           0.000000000000           0.000000000000
           0.000000000000           0.000000000000           0.000000000000
           0.000000000000           0.000000000000          14.423235531250

  Mulliken analysis of the total density
  --------------------------------------

    Atom       Charge   Shell Charges
 -----------   ------   -------------------------------------------------------
    1 H    1     1.00   0.04  0.20  0.46  0.29  0.00 -0.00  0.00  0.00  0.00  0.00
    2 H    1     1.00   0.04  0.20  0.46  0.29  0.00 -0.00  0.00  0.00  0.00  0.00

       Multipole analysis of the density wrt the origin
       ------------------------------------------------

     L   x y z        total         open         nuclear
     -   - - -        -----         ----         -------
     0   0 0 0     -0.000000      0.000000      2.000000

     1   1 0 0     -0.000000      0.000000      0.000000
     1   0 1 0     -0.000000      0.000000      0.000000
     1   0 0 1      0.000000      0.000000      0.000000

     2   2 0 0     -2.134632      0.000000      0.000000
     2   1 1 0     -0.000000      0.000000      0.000000
     2   1 0 1      0.000000      0.000000      0.000000
     2   0 2 0     -1.267079      0.000000     14.311250
     2   0 1 1      0.000000      0.000000      0.000000
     2   0 0 2     -2.134632      0.000000      0.000000


 Parallel integral file used      10 records with       0 large values

                   NWChem Extensible Many-Electron Theory Module
                   ---------------------------------------------

              ======================================================
                   This portion of the program was automatically
                  generated by a Tensor Contraction Engine (TCE).
                  The development of this portion of the program
                 and TCE was supported by US Department of Energy,
                Office of Science, Office of Basic Energy Science.
                      TCE is a product of Battelle and PNNL.
              Please cite: S.Hirata, J.Phys.Chem.A 107, 9887 (2003).
              ======================================================

                                        H2


            General Information
            -------------------
      Number of processors :     1
         Wavefunction type : Restricted Hartree-Fock
          No. of electrons :     2
           Alpha electrons :     1
            Beta electrons :     1
           No. of orbitals :   140
            Alpha orbitals :    70
             Beta orbitals :    70
        Alpha frozen cores :     0
         Beta frozen cores :     0
     Alpha frozen virtuals :     0
      Beta frozen virtuals :     0
         Spin multiplicity : singlet 
    Number of AO functions :    70
       Number of AO shells :    20
        Use of symmetry is : off
      Symmetry adaption is : off
         Schwarz screening : 0.10D-09

          Correlation Information
          -----------------------
          Calculation type : Coupled-cluster singles & doubles                           
   Perturbative correction : none                                                        
            Max iterations :      300
        Residual threshold : 0.10D-06
     T(0) DIIS level shift : 0.80D+00
     L(0) DIIS level shift : 0.00D+00
     T(1) DIIS level shift : 0.00D+00
     L(1) DIIS level shift : 0.00D+00
     T(R) DIIS level shift : 0.00D+00
     T(I) DIIS level shift : 0.00D+00
   CC-T/L Amplitude update :  5-th order DIIS
                I/O scheme : Global Array Library
        L-threshold :  0.10D-06
        EOM-threshold :  0.10D-06
 no EOMCCSD initial starts read in
 TCE RESTART OPTIONS
 READ_INT:   F
 WRITE_INT:  F
 READ_TA:    F
 WRITE_TA:   F
 READ_XA:    F
 WRITE_XA:   F
 READ_IN3:   F
 WRITE_IN3:  F
 SLICE:      F
 D4D5:       F
 quantumc:   F
 qrotation:  F
 pwtce:      F
 qducc:      T
 nacto:                         0
 nrotv:                         0
 nrot:                          0

            Memory Information
            ------------------
          Available GA space size is    1610607836 doubles
          Available MA space size is    1610610644 doubles

 Maximum block size        32 doubles

 tile_dim =     23

 Block   Spin    Irrep     Size     Offset   Alpha
 -------------------------------------------------
   1    alpha     a      1 doubles       0       1
   2    beta      a      1 doubles       1       1
   3    alpha     a     23 doubles       2       3
   4    alpha     a     23 doubles      25       4
   5    alpha     a     23 doubles      48       5
   6    beta      a     23 doubles      71       3
   7    beta      a     23 doubles      94       4
   8    beta      a     23 doubles     117       5

 Global array virtual files algorithm will be used

 Parallel file system coherency ......... OK

 Integral file          = ./H2.aoints.0
 Record size in doubles =  65536        No. of integs per rec  =  43688
 Max. records in memory =     99        Max. records in file   = 280186
 No. of bits per label  =      8        No. of bits per value  =     64


 #quartets = 1.946D+04 #integrals = 5.397D+05 #direct =  0.0% #cached =100.0%


 Fock matrix recomputed
 1-e file size   =             4900
 1-e file name   = ./H2.f1
 Cpu & wall time / sec            0.0            0.0
 4-electron integrals stored in orbital form

 v2    file size   =          6102085
 4-index algorithm nr.  13 is used
 imaxsize =       30
 imaxsize ichop =        0
 Cpu & wall time / sec            1.8            2.0
 T1-number-of-tasks                    3

 t1 file size   =               69
 t1 file name   = ./H2.t1
 t1 file handle =       -998
 T2-number-of-boxes                   15

 t2 file size   =             7935
 t2 file name   = ./H2.t2
 t2 file handle =       -996
CCSD iterations
 ---------------------------------------------------------
 Iter          Residuum       Correlation     Cpu    Wall 
 ---------------------------------------------------------
NEW TASK SCHEDULING
CCSD_T1_NTS --- OK
CCSD_T2_NTS --- OK
    1   1.0049949933673  -0.2799055561426     0.1     0.1
    2   0.6835482070361  -0.2374309311455     0.1     0.1
    3   0.6460772532040  -0.2394694078128     0.1     0.1
    4   0.7500905564108  -0.2036170332870     0.0     0.1
    5   0.9323980139128  -0.2195134425253     0.1     0.1
 MICROCYCLE DIIS UPDATE:                    5                    5
    6   0.0555052600615  -0.1993624573026     0.1     0.1
    7   0.0452739996473  -0.1996947818074     0.1     0.1
    8   0.0330705106347  -0.1941552876550     0.1     0.1
    9   0.0289479862776  -0.1933110369653     0.1     0.1
   10   0.0234122945866  -0.1895240311342     0.1     0.1
 MICROCYCLE DIIS UPDATE:                   10                    5
   11   0.0080798046974  -0.1835803217857     0.0     0.1
   12   0.0058085824740  -0.1832144353965     0.1     0.1
   13   0.0051928884680  -0.1828775656873     0.1     0.1
   14   0.0054135547990  -0.1825579110791     0.1     0.1
   15   0.0062964695470  -0.1824100557304     0.0     0.1
 MICROCYCLE DIIS UPDATE:                   15                    5
   16   0.0009951073571  -0.1815863044371     0.1     0.1
   17   0.0007853559844  -0.1816428823789     0.1     0.1
   18   0.0005625332715  -0.1815538044240     0.1     0.1
   19   0.0004979261166  -0.1815689483850     0.1     0.1
   20   0.0004376080579  -0.1815020906861     0.2     0.2
 MICROCYCLE DIIS UPDATE:                   20                    5
   21   0.0001975204922  -0.1814662015562     0.1     0.1
   22   0.0001456616892  -0.1814553709612     0.1     0.1
   23   0.0001239889267  -0.1814439043597     0.1     0.1
   24   0.0001209170775  -0.1814347654717     0.1     0.1
   25   0.0001316039900  -0.1814290878222     0.1     0.1
 MICROCYCLE DIIS UPDATE:                   25                    5
   26   0.0000212146791  -0.1814010970227     0.1     0.1
   27   0.0000159432839  -0.1814024591899     0.1     0.1
   28   0.0000122176743  -0.1814006187406     0.1     0.1
   29   0.0000114314180  -0.1814012663370     0.1     0.1
   30   0.0000136191460  -0.1813997128642     0.1     0.1
 MICROCYCLE DIIS UPDATE:                   30                    5
   31   0.0000038327924  -0.1813995837898     0.1     0.1
   32   0.0000030019694  -0.1813993616287     0.0     0.1
   33   0.0000026200753  -0.1813991245782     0.1     0.1
   34   0.0000025808250  -0.1813989429708     0.1     0.1
   35   0.0000028036861  -0.1813988220734     0.1     0.1
 MICROCYCLE DIIS UPDATE:                   35                    5
   36   0.0000004975106  -0.1813982484376     0.0     0.1
   37   0.0000002660899  -0.1813982444145     0.1     0.1
   38   0.0000002268283  -0.1813982298359     0.1     0.1
   39   0.0000002263826  -0.1813982276706     0.2     0.2
   40   0.0000002986316  -0.1813982078122     0.1     0.1
 MICROCYCLE DIIS UPDATE:                   40                    5
   41   0.0000000772153  -0.1813982031941     0.1     0.1
 -----------------------------------------------------------------
 Iterations converged
 CCSD correlation energy / hartree =        -0.181398203194144
 CCSD total energy / hartree       =        -1.001919969660914

 Singles contributions

 Doubles contributions
     2a   (alpha)     2a   (beta ) ---     1a   (alpha)     1a   (beta )       -0.8155955800
 Ground state specification:
 exp(T)|Ref>~(1+T)|Ref>
 ------- a(p)+/a(q) strings ----------

 singles norm

 doubles norm

 Reference string
  0.77493861269901410      :(1a)+ (1b)+ |0>

 Singles strings

 Doubles strings
 -0.63203650729062133      :(2a)+ (2b)+ (1b)  (1a)  (1a)+ (1b)+ |0>
 -------------------------------------
 enrep_tce =   0.18691588785046723     
  EHF(total)         =        -0.82052177
  Shift (HFtot-HFA)  =         0.00000000
 ALL OCCUPIED ORBITALS ARE ACTIVE IN DUCC --> NO SHIFT
 Number of active orbitals                   10
 Number of active alpha electrons                    1
 Number of active beta electrons                    1
  nos                     2
  nvs                   138
 noas                     1
 nobs                     1
 nvas                    69
 nvbs                    69
 nactv                     9
 DUCC MODEL =                     6
 NONHF =  T
 F-T1 correlation    =    1.3040038977818103E-005
 V-T1-T1 correlation =    3.7684917593897763E-010
 V-T2 correlation    =  -0.18141124360996669     
 Total correlation   =  -0.18139820319413968     
 F-T1(Ext) correlation         =   -2.0347227822872236E-007
 V-T1(Ext)-T1(Ext) correlation =    5.5148998055353532E-011
 V-T2(Ext) correlation         =   -2.1706560078763249E-004
 Total Ext correlation         =   -2.1726901791686317E-004
1-BODY TIME =   30.992 SECONDS.
  HHHH TIME =   25.111 SECONDS.
  PPPP TIME =   34.834 SECONDS.
  HHHP TIME =    2.412 SECONDS.
  PPPH TIME =    2.623 SECONDS.
  HPHP TIME =    4.230 SECONDS.
  HHPP TIME =    2.367 SECONDS.
 ONE-BODY UNITARY CHECK
 TWO-BODY UNITARY CHECK
 TWO-BODY ANTISYMMETRY CHECK
 TRANSFORMED ~FOCK~ MATRIX
    1    1        -0.3059007199
    1    3         0.0174101277
    1    6         0.0838184951
    1   10        -0.0238305855
    2    2        -0.0778136085
    2    7         0.0861988829
    2   10         0.0000000001
    3    1         0.0174101277
    3    3         0.4790597837
    3    6        -0.0515590823
    3    7         0.0000000004
    3   10        -0.2870165333
    4    4         0.5674809369
    5    5         0.5674809369
    6    1         0.0838184951
    6    3        -0.0515590823
    6    6         0.7774597277
    6    7        -0.0000000012
    6   10         0.2201620259
    7    2         0.0861988829
    7    3         0.0000000004
    7    6        -0.0000000012
    7    7         1.4906478851
    7   10        -0.0000000013
    8    8         1.3755330931
    9    9         1.3755330931
   10    1        -0.0238305855
   10    2         0.0000000001
   10    3        -0.2870165333
   10    6         0.2201620259
   10    7        -0.0000000013
   10   10         2.2071154643
 begin_one_electron_integrals
    1    1        -0.7019488544
    1    3         0.0426616452
    1    6        -0.0010715230
    1   10        -0.0016909892
    2    2        -0.6696115958
    2    7        -0.0043606676
    3    1         0.0426616452
    3    3        -0.1454985061
    3    6        -0.0763970107
    3    7         0.0000000002
    3   10        -0.1896947543
    4    4        -0.0522807467
    5    5        -0.0522807467
    6    1        -0.0010715230
    6    3        -0.0763970107
    6    6         0.0924729065
    6    7        -0.0000000009
    6   10         0.2173277035
    7    2        -0.0043606676
    7    3         0.0000000002
    7    6        -0.0000000009
    7    7         0.7265900998
    7   10        -0.0000000014
    8    8         0.6074443396
    9    9         0.6074443396
   10    1        -0.0016909892
   10    3        -0.1896947543
   10    6         0.2173277035
   10    7        -0.0000000014
   10   10         1.4661136452
 end_one_electron_integrals
 begin_two_electron_integrals
    1    1    1    1        0.3960481346
    1    1    1    3       -0.0252515175
    1    1    1    6        0.0848900181
    1    1    1   10       -0.0221395963
    1    2    1    2        0.2195302165
    1    2    1    7        0.0646480135
    1    3    1    1       -0.0252515175
    1    3    1    3        0.0472657956
    1    3    1    6       -0.0006115520
    1    3    1   10       -0.0143782152
    1    4    1    4        0.0435428459
    1    5    1    5        0.0435428459
    1    6    1    1        0.0848900181
    1    6    1    3       -0.0006115520
    1    6    1    6        0.0675238671
    1    6    1   10       -0.0165638511
    1    7    1    2        0.0646480135
    1    7    1    7        0.0633857554
    1    8    1    8        0.0562824060
    1    9    1    9        0.0562824060
    1   10    1    1       -0.0221395963
    1   10    1    3       -0.0143782152
    1   10    1    6       -0.0165638511
    1   10    1   10        0.0297703545
    1    1    2    2        0.4057806898
    1    1    2    7        0.0776804891
    1    1    2   10        0.0000000001
    1    2    2    1        0.2197633922
    1    2    2    3        0.0217279352
    1    2    2    6        0.1032034742
    1    2    2   10       -0.0298870281
    1    3    2    2       -0.0182524295
    1    3    2    7       -0.0182724876
    1    3    2   10       -0.0000000002
    1    4    2    8       -0.0387483585
    1    4    2    9        0.0301712616
    1    5    2    8       -0.0301712616
    1    5    2    9       -0.0387483585
    1    6    2    2        0.0946159350
    1    6    2    7        0.0647166406
    1    7    2    1        0.0648014278
    1    7    2    3       -0.0121752714
    1    7    2    6        0.0647028518
    1    7    2    7       -0.0000000002
    1    7    2   10       -0.0100887705
    1    8    2    4       -0.0338223177
    1    8    2    5       -0.0263356187
    1    9    2    4        0.0263356187
    1    9    2    5       -0.0338223177
    1   10    2    2       -0.0267451688
    1   10    2    3       -0.0000000001
    1   10    2    7       -0.0082611322
    1    1    3    1       -0.0252515175
    1    1    3    3        0.3359335321
    1    1    3    6        0.0121480986
    1    1    3    7        0.0000000001
    1    1    3   10       -0.0559253238
    1    2    3    2        0.0217287182
    1    2    3    3       -0.0000000002
    1    2    3    6       -0.0000000001
    1    2    3    7       -0.0496857375
    1    2    3   10       -0.0000000005
    1    3    3    1        0.0473087745
    1    3    3    3       -0.0484228715
    1    3    3    6       -0.0139440174
    1    3    3   10        0.0384672021
    1    4    3    4       -0.0079558535
    1    5    3    5       -0.0079558535
    1    6    3    1       -0.0005417311
    1    6    3    3        0.0313090734
    1    6    3    6       -0.0084723216
    1    6    3   10       -0.0242725493
    1    7    3    2       -0.0122248066
    1    7    3    7       -0.0180538194
    1    8    3    8       -0.0102942316
    1    9    3    9       -0.0102942316
    1   10    3    1       -0.0145288686
    1   10    3    2       -0.0000000001
    1   10    3    3        0.0124944114
    1   10    3    6       -0.0042781308
    1   10    3   10       -0.0105843474
    1    1    4    4        0.3316910727
    1    2    4    8       -0.1174439891
    1    2    4    9        0.0914473143
    1    3    4    4       -0.0329120065
    1    4    4    1        0.0436204618
    1    4    4    3       -0.0079594560
    1    4    4    6       -0.0167971600
    1    4    4   10       -0.0067262478
    1    6    4    4        0.0317324458
    1    7    4    8       -0.0259102359
    1    7    4    9        0.0201749064
    1    8    4    2       -0.0338390942
    1    8    4    7        0.0092792397
    1    9    4    2        0.0263486816
    1    9    4    7       -0.0072252446
    1   10    4    4       -0.0086559798
    1    1    5    5        0.3316910727
    1    2    5    8       -0.0914473143
    1    2    5    9       -0.1174439891
    1    3    5    5       -0.0329120065
    1    5    5    1        0.0436204618
    1    5    5    3       -0.0079594560
    1    5    5    6       -0.0167971600
    1    5    5   10       -0.0067262478
    1    6    5    5        0.0317324458
    1    7    5    8       -0.0201749064
    1    7    5    9       -0.0259102359
    1    8    5    2       -0.0263486816
    1    8    5    7        0.0072252446
    1    9    5    2       -0.0338390942
    1    9    5    7        0.0092792397
    1   10    5    5       -0.0086559798
    1    1    6    1        0.0848900181
    1    1    6    3        0.0121480986
    1    1    6    6        0.3763118411
    1    1    6    7       -0.0000000002
    1    1    6   10       -0.0069070966
    1    2    6    2        0.1032036108
    1    2    6    3       -0.0000000001
    1    2    6    6        0.0000000002
    1    2    6    7        0.1832993978
    1    2    6   10        0.0000000002
    1    3    6    1       -0.0005417311
    1    3    6    3       -0.0139455054
    1    3    6    6       -0.0398555264
    1    3    6   10       -0.0261494217
    1    4    6    4       -0.0168018391
    1    5    6    5       -0.0168018391
    1    6    6    1        0.0676368611
    1    6    6    3       -0.0084710735
    1    6    6    6        0.0814241630
    1    6    6   10       -0.0189035997
    1    7    6    2        0.0647101488
    1    7    6    7        0.0778524234
    1    7    6   10        0.0000000001
    1    8    6    8        0.0173845349
    1    9    6    9        0.0173845349
    1   10    6    1       -0.0166485156
    1   10    6    3       -0.0042797943
    1   10    6    6       -0.0203569626
    1   10    6    7        0.0000000001
    1   10    6   10        0.0213210290
    1    1    7    2        0.0776804891
    1    1    7    3        0.0000000001
    1    1    7    6       -0.0000000002
    1    1    7    7        0.4138094205
    1    2    7    1        0.0648014278
    1    2    7    3       -0.0497098387
    1    2    7    6        0.1832910681
    1    2    7    7       -0.0000000008
    1    2    7   10        0.0071079281
    1    3    7    2       -0.0183461087
    1    3    7    7       -0.0447951335
    1    3    7   10        0.0000000001
    1    4    7    8        0.0020910651
    1    4    7    9       -0.0016281999
    1    5    7    8        0.0016281999
    1    5    7    9        0.0020910651
    1    6    7    2        0.0647155867
    1    6    7    7        0.1061621901
    1    6    7   10        0.0000000001
    1    7    7    1        0.0635610558
    1    7    7    2       -0.0000000002
    1    7    7    3       -0.0180380822
    1    7    7    6        0.0778622035
    1    7    7    7       -0.0000000004
    1    7    7   10        0.0031432677
    1    8    7    4        0.0092789643
    1    8    7    5        0.0072250302
    1    9    7    4       -0.0072250302
    1    9    7    5        0.0092789643
    1   10    7    2       -0.0082289432
    1   10    7    6        0.0000000001
    1   10    7    7       -0.0170586022
    1    1    8    8        0.4125099540
    1    2    8    4       -0.1174435443
    1    2    8    5       -0.0914469679
    1    3    8    8       -0.0454938503
    1    4    8    2       -0.0387646858
    1    4    8    7        0.0020983529
    1    5    8    2       -0.0301839748
    1    5    8    7        0.0016338745
    1    6    8    8        0.0830427921
    1    7    8    4       -0.0259032271
    1    7    8    5       -0.0201694490
    1    8    8    1        0.0569311544
    1    8    8    3       -0.0102915345
    1    8    8    6        0.0173790129
    1    8    8   10       -0.0099250392
    1   10    8    8       -0.0171966231
    1    1    9    9        0.4125099540
    1    2    9    4        0.0914469679
    1    2    9    5       -0.1174435443
    1    3    9    9       -0.0454938503
    1    4    9    2        0.0301839748
    1    4    9    7       -0.0016338745
    1    5    9    2       -0.0387646858
    1    5    9    7        0.0020983529
    1    6    9    9        0.0830427921
    1    7    9    4        0.0201694490
    1    7    9    5       -0.0259032271
    1    9    9    1        0.0569311544
    1    9    9    3       -0.0102915345
    1    9    9    6        0.0173790129
    1    9    9   10       -0.0099250392
    1   10    9    9       -0.0171966231
    1    1   10    1       -0.0221395963
    1    1   10    2        0.0000000001
    1    1   10    3       -0.0559253238
    1    1   10    6       -0.0069070966
    1    1   10   10        0.3854813588
    1    2   10    2       -0.0298927287
    1    2   10    3       -0.0000000005
    1    2   10    6        0.0000000002
    1    2   10    7        0.0070959541
    1    2   10   10        0.0000000002
    1    3   10    1       -0.0145288686
    1    3   10    2       -0.0000000002
    1    3   10    3        0.0384666153
    1    3   10    6       -0.0261494940
    1    3   10    7        0.0000000001
    1    3   10   10       -0.0536253233
    1    4   10    4       -0.0067265923
    1    5   10    5       -0.0067265923
    1    6   10    1       -0.0166485156
    1    6   10    3       -0.0242742850
    1    6   10    6       -0.0189023229
    1    6   10    7        0.0000000001
    1    6   10   10        0.0727540143
    1    7   10    2       -0.0100685756
    1    7   10    6        0.0000000001
    1    7   10    7        0.0031515385
    1    7   10   10        0.0000000002
    1    8   10    8       -0.0099258108
    1    9   10    9       -0.0099258108
    1   10   10    1        0.0299608983
    1   10   10    3       -0.0105860457
    1   10   10    6        0.0213204487
    1   10   10   10        0.0140496303
    2    1    1    2        0.2197633922
    2    1    1    7        0.0648014278
    2    2    1    1        0.4057806898
    2    2    1    3       -0.0182524295
    2    2    1    6        0.0946159350
    2    2    1   10       -0.0267451688
    2    3    1    2        0.0217279352
    2    3    1    7       -0.0121752714
    2    3    1   10       -0.0000000001
    2    4    1    8       -0.0338223177
    2    4    1    9        0.0263356187
    2    5    1    8       -0.0263356187
    2    5    1    9       -0.0338223177
    2    6    1    2        0.1032034742
    2    6    1    7        0.0647028518
    2    7    1    1        0.0776804891
    2    7    1    3       -0.0182724876
    2    7    1    6        0.0647166406
    2    7    1    7       -0.0000000002
    2    7    1   10       -0.0082611322
    2    8    1    4       -0.0387483585
    2    8    1    5       -0.0301712616
    2    9    1    4        0.0301712616
    2    9    1    5       -0.0387483585
    2   10    1    1        0.0000000001
    2   10    1    2       -0.0298870281
    2   10    1    3       -0.0000000002
    2   10    1    7       -0.0100887705
    2    1    2    1        0.2195302165
    2    1    2    3        0.0217287182
    2    1    2    6        0.1032036108
    2    1    2   10       -0.0298927287
    2    2    2    2        0.4176610661
    2    2    2    7        0.0837808939
    2    2    2   10        0.0000000001
    2    3    2    1        0.0217287182
    2    3    2    3        0.0312357125
    2    3    2    6        0.0004981242
    2    3    2   10       -0.0123837542
    2    4    2    4        0.0358833132
    2    5    2    5        0.0358833132
    2    6    2    1        0.1032036108
    2    6    2    3        0.0004981242
    2    6    2    6        0.0773822830
    2    6    2   10       -0.0211440086
    2    7    2    2        0.0837808939
    2    7    2    7        0.0723110863
    2    8    2    8        0.0643170747
    2    9    2    9        0.0643170747
    2   10    2    1       -0.0298927287
    2   10    2    2        0.0000000001
    2   10    2    3       -0.0123837542
    2   10    2    6       -0.0211440086
    2   10    2   10        0.0310570799
    2    1    3    2        0.0217279352
    2    1    3    3       -0.0000000002
    2    1    3    6       -0.0000000001
    2    1    3    7       -0.0497098387
    2    1    3   10       -0.0000000005
    2    2    3    1       -0.0182524295
    2    2    3    3        0.3330696793
    2    2    3    6        0.0082533326
    2    2    3    7        0.0000000001
    2    2    3   10       -0.0542034725
    2    3    3    2        0.0312357128
    2    3    3    7       -0.0040569455
    2    4    3    8        0.0054230773
    2    4    3    9       -0.0042226585
    2    5    3    8        0.0042226585
    2    5    3    9        0.0054230773
    2    6    3    2        0.0004981245
    2    6    3    7       -0.0236892346
    2    6    3   10       -0.0000000002
    2    7    3    1       -0.0183461087
    2    7    3    3        0.0379967613
    2    7    3    6       -0.0050852435
    2    7    3   10       -0.0337890335
    2    8    3    4        0.0067448023
    2    8    3    5        0.0052518146
    2    9    3    4       -0.0052518146
    2    9    3    5        0.0067448023
    2   10    3    1       -0.0000000002
    2   10    3    2       -0.0123837545
    2   10    3    3        0.0000000001
    2   10    3    7       -0.0038562779
    2   10    3   10       -0.0000000002
    2    1    4    8       -0.1174435443
    2    1    4    9        0.0914469679
    2    2    4    4        0.3328677748
    2    3    4    8       -0.0026097171
    2    3    4    9        0.0020320462
    2    4    4    2        0.0358833136
    2    4    4    7       -0.0160276229
    2    6    4    8       -0.0455129617
    2    6    4    9        0.0354384941
    2    7    4    4        0.0296693310
    2    8    4    1       -0.0387646858
    2    8    4    3        0.0067448027
    2    8    4    6        0.0067828761
    2    8    4   10        0.0064103432
    2    9    4    1        0.0301839748
    2    9    4    3       -0.0052518149
    2    9    4    6       -0.0052814606
    2    9    4   10       -0.0049913893
    2   10    4    4        0.0000000001
    2   10    4    8        0.0111416559
    2   10    4    9       -0.0086754079
    2    1    5    8       -0.0914469679
    2    1    5    9       -0.1174435443
    2    2    5    5        0.3328677748
    2    3    5    8       -0.0020320462
    2    3    5    9       -0.0026097171
    2    5    5    2        0.0358833136
    2    5    5    7       -0.0160276229
    2    6    5    8       -0.0354384941
    2    6    5    9       -0.0455129617
    2    7    5    5        0.0296693310
    2    8    5    1       -0.0301839748
    2    8    5    3        0.0052518149
    2    8    5    6        0.0052814606
    2    8    5   10        0.0049913893
    2    9    5    1       -0.0387646858
    2    9    5    3        0.0067448027
    2    9    5    6        0.0067828761
    2    9    5   10        0.0064103432
    2   10    5    5        0.0000000001
    2   10    5    8        0.0086754079
    2   10    5    9        0.0111416559
    2    1    6    2        0.1032034742
    2    1    6    3       -0.0000000001
    2    1    6    6        0.0000000002
    2    1    6    7        0.1832910681
    2    1    6   10        0.0000000002
    2    2    6    1        0.0946159350
    2    2    6    3        0.0082533326
    2    2    6    6        0.3820552373
    2    2    6    7       -0.0000000002
    2    2    6   10       -0.0131945976
    2    3    6    2        0.0004981245
    2    3    6    7        0.0015960597
    2    4    6    8       -0.0064451543
    2    4    6    9        0.0050184948
    2    5    6    8       -0.0050184948
    2    5    6    9       -0.0064451543
    2    6    6    2        0.0773822828
    2    6    6    6        0.0000000002
    2    6    6    7        0.1008435416
    2    6    6   10        0.0000000001
    2    7    6    1        0.0647155867
    2    7    6    3       -0.0050852443
    2    7    6    6        0.0865381949
    2    7    6    7       -0.0000000001
    2    7    6   10       -0.0083232365
    2    8    6    4        0.0067828758
    2    8    6    5        0.0052814604
    2    9    6    4       -0.0052814604
    2    9    6    5        0.0067828758
    2   10    6    2       -0.0211440086
    2   10    6    6        0.0000000002
    2   10    6    7       -0.0223346353
    2   10    6   10        0.0000000001
    2    1    7    1        0.0646480135
    2    1    7    3       -0.0496857375
    2    1    7    6        0.1832993978
    2    1    7    7       -0.0000000008
    2    1    7   10        0.0070959541
    2    2    7    2        0.0837808939
    2    2    7    3        0.0000000001
    2    2    7    6       -0.0000000002
    2    2    7    7        0.4231562155
    2    2    7   10        0.0000000001
    2    3    7    1       -0.0122248066
    2    3    7    3       -0.0040569431
    2    3    7    6        0.0015960613
    2    3    7   10       -0.0194080141
    2    4    7    4       -0.0160276212
    2    5    7    5       -0.0160276212
    2    6    7    1        0.0647101488
    2    6    7    3       -0.0236892338
    2    6    7    6        0.1008435417
    2    6    7    7       -0.0000000003
    2    6    7   10       -0.0022847240
    2    7    7    1       -0.0000000002
    2    7    7    2        0.0723110994
    2    7    7    6       -0.0000000001
    2    7    7    7        0.1118714752
    2    8    7    8        0.0068492592
    2    9    7    9        0.0068492592
    2   10    7    1       -0.0100685756
    2   10    7    3       -0.0038562793
    2   10    7    6       -0.0223346349
    2   10    7    7        0.0000000003
    2   10    7   10        0.0211121739
    2    1    8    4       -0.1174439891
    2    1    8    5       -0.0914473143
    2    2    8    8        0.4197887163
    2    3    8    4       -0.0026097170
    2    3    8    5       -0.0020320462
    2    4    8    1       -0.0338390942
    2    4    8    3        0.0054230778
    2    4    8    6       -0.0064451540
    2    4    8   10        0.0062958944
    2    5    8    1       -0.0263486816
    2    5    8    3        0.0042226588
    2    5    8    6       -0.0050184945
    2    5    8   10        0.0049022741
    2    6    8    4       -0.0455129616
    2    6    8    5       -0.0354384940
    2    7    8    8        0.0793714325
    2    8    8    2        0.0643170757
    2    8    8    7        0.0068492598
    2   10    8    4        0.0111416560
    2   10    8    5        0.0086754080
    2   10    8    8        0.0000000002
    2    1    9    4        0.0914473143
    2    1    9    5       -0.1174439891
    2    2    9    9        0.4197887163
    2    3    9    4        0.0020320462
    2    3    9    5       -0.0026097170
    2    4    9    1        0.0263486816
    2    4    9    3       -0.0042226588
    2    4    9    6        0.0050184945
    2    4    9   10       -0.0049022741
    2    5    9    1       -0.0338390942
    2    5    9    3        0.0054230778
    2    5    9    6       -0.0064451540
    2    5    9   10        0.0062958944
    2    6    9    4        0.0354384940
    2    6    9    5       -0.0455129616
[...]
    9    5    6    2       -0.0455129617
    9    5    6    7       -0.0967245885
    9    5    6   10       -0.0000000001
    9    6    6    9        0.0149795029
    9    7    6    4        0.0078180518
    9    7    6    5       -0.0100405703
    9    9    6    1        0.0830427921
    9    9    6    3        0.0132053551
    9    9    6    6        0.3882639252
    9    9    6    7       -0.0000000002
    9    9    6   10        0.0069086085
    9   10    6    9       -0.0025908797
    9    1    7    4       -0.0072252446
    9    1    7    5        0.0092792397
    9    2    7    9        0.0068492598
    9    3    7    4       -0.0000139232
    9    3    7    5        0.0000178813
    9    4    7    1        0.0201749064
    9    4    7    3       -0.0200305365
    9    4    7    6        0.0753142330
    9    4    7    7       -0.0000000003
    9    4    7   10        0.0114673154
    9    5    7    1       -0.0259102359
    9    5    7    3        0.0257248245
    9    5    7    6       -0.0967245898
    9    5    7    7        0.0000000004
    9    5    7   10       -0.0147272479
    9    6    7    4        0.0048232407
    9    6    7    5       -0.0061943933
    9    7    7    9        0.0178396753
    9    9    7    2        0.0793714325
    9    9    7    3        0.0000000001
    9    9    7    6       -0.0000000002
    9    9    7    7        0.4319040863
    9   10    7    4        0.0031805760
    9   10    7    5       -0.0040847513
    9    4    8    4       -0.0573650905
    9    4    8    5       -0.0331459949
    9    5    8    4        0.0621517447
    9    5    8    5        0.0573650905
    9    8    8    9        0.0219970840
    9    9    8    8        0.4325186905
    9    1    9    1        0.0562824060
    9    1    9    3       -0.0102942316
    9    1    9    6        0.0173845349
    9    1    9   10       -0.0099258108
    9    2    9    2        0.0643170747
    9    2    9    7        0.0068492592
    9    3    9    1       -0.0102942316
    9    3    9    3        0.0116379913
    9    3    9    6       -0.0027033974
    9    3    9   10       -0.0073899088
    9    4    9    4        0.0561882215
    9    4    9    5       -0.0573650905
    9    5    9    4       -0.0573650905
    9    5    9    5        0.0851939713
    9    6    9    1        0.0173845349
    9    6    9    3       -0.0027033974
    9    6    9    6        0.0149795001
    9    6    9   10       -0.0025908799
    9    7    9    2        0.0068492592
    9    7    9    7        0.0178396668
    9    8    9    8        0.0219970866
    9    9    9    9        0.4765128608
    9   10    9    1       -0.0099258108
    9   10    9    3       -0.0073899088
    9   10    9    6       -0.0025908799
    9   10    9   10        0.0146935999
    9    1   10    9       -0.0099250392
    9    2   10    4       -0.0049913893
    9    2   10    5        0.0064103432
    9    3   10    9       -0.0073899085
    9    4   10    2       -0.0086754079
    9    4   10    3       -0.0000000002
    9    4   10    7        0.0114673143
    9    4   10   10        0.0000000001
    9    5   10    2        0.0111416559
    9    5   10    3        0.0000000003
    9    5   10    6       -0.0000000001
    9    5   10    7       -0.0147272465
    9    5   10   10       -0.0000000002
    9    6   10    9       -0.0025908797
    9    7   10    4        0.0019873431
    9    7   10    5       -0.0025523057
    9    9   10    1       -0.0171966231
    9    9   10    2        0.0000000002
    9    9   10    3       -0.0736234195
    9    9   10    6        0.0069086085
    9    9   10   10        0.4064828730
    9   10   10    9        0.0146936005
   10    1    1    1       -0.0221395963
   10    1    1    3       -0.0145288686
   10    1    1    6       -0.0166485156
   10    1    1   10        0.0299608983
   10    2    1    1        0.0000000001
   10    2    1    2       -0.0298927287
   10    2    1    3       -0.0000000002
   10    2    1    7       -0.0100685756
   10    3    1    1       -0.0559253238
   10    3    1    2       -0.0000000005
   10    3    1    3        0.0384666153
   10    3    1    6       -0.0242742850
   10    3    1   10       -0.0105860457
   10    4    1    4       -0.0067265923
   10    5    1    5       -0.0067265923
   10    6    1    1       -0.0069070966
   10    6    1    2        0.0000000002
   10    6    1    3       -0.0261494940
   10    6    1    6       -0.0189023229
   10    6    1    7        0.0000000001
   10    6    1   10        0.0213204487
   10    7    1    2        0.0070959541
   10    7    1    3        0.0000000001
   10    7    1    6        0.0000000001
   10    7    1    7        0.0031515385
   10    8    1    8       -0.0099258108
   10    9    1    9       -0.0099258108
   10   10    1    1        0.3854813588
   10   10    1    2        0.0000000002
   10   10    1    3       -0.0536253233
   10   10    1    6        0.0727540143
   10   10    1    7        0.0000000002
   10   10    1   10        0.0140496303
   10    1    2    2       -0.0267451688
   10    1    2    3       -0.0000000001
   10    1    2    7       -0.0082289432
   10    2    2    1       -0.0298870281
   10    2    2    2        0.0000000001
   10    2    2    3       -0.0123837545
   10    2    2    6       -0.0211440086
   10    2    2   10        0.0310570807
   10    3    2    1       -0.0000000005
   10    3    2    2       -0.0542034725
   10    3    2    6       -0.0000000002
   10    3    2    7       -0.0337890312
   10    3    2   10       -0.0000000002
   10    4    2    8        0.0064103441
   10    4    2    9       -0.0049913900
   10    5    2    8        0.0049913900
   10    5    2    9        0.0064103441
   10    6    2    1        0.0000000002
   10    6    2    2       -0.0131945976
   10    6    2    6        0.0000000001
   10    6    2    7       -0.0083232373
   10    6    2   10        0.0000000001
   10    7    2    1        0.0071079281
   10    7    2    2        0.0000000001
   10    7    2    3       -0.0194080105
   10    7    2    6       -0.0022847251
   10    7    2   10        0.0211121708
   10    8    2    4        0.0062958951
   10    8    2    5        0.0049022747
   10    9    2    4       -0.0049022747
   10    9    2    5        0.0062958951
   10   10    2    1        0.0000000002
   10   10    2    2        0.3884285115
   10   10    2    3       -0.0000000002
   10   10    2    6        0.0000000003
   10   10    2    7        0.0789479294
   10   10    2   10        0.0000000003
   10    1    3    1       -0.0143782152
   10    1    3    2       -0.0000000001
   10    1    3    3        0.0124944114
   10    1    3    6       -0.0042797943
   10    1    3   10       -0.0105860457
   10    2    3    1       -0.0000000002
   10    2    3    2       -0.0123837542
   10    2    3    3        0.0000000001
   10    2    3    7       -0.0038562793
   10    2    3   10       -0.0000000002
   10    3    3    1        0.0384672021
   10    3    3    3       -0.0550282092
   10    3    3    6       -0.0048503623
   10    3    3   10        0.0545059343
   10    4    3    4       -0.0009143758
   10    5    3    5       -0.0009143758
   10    6    3    1       -0.0261494217
   10    6    3    3        0.0216380412
   10    6    3    6        0.0043718246
   10    6    3   10       -0.0187925649
   10    7    3    1        0.0000000001
   10    7    3    2       -0.0194080141
   10    7    3    7       -0.0106459210
   10    8    3    8       -0.0073899088
   10    9    3    9       -0.0073899088
   10   10    3    1       -0.0536253233
   10   10    3    2       -0.0000000002
   10   10    3    3        0.3710598924
   10   10    3    6        0.0123345664
   10   10    3   10       -0.0848138683
   10    1    4    4       -0.0086559798
   10    2    4    4        0.0000000001
   10    2    4    8        0.0111416560
   10    2    4    9       -0.0086754080
   10    3    4    4       -0.0433901344
   10    3    4    8        0.0000000003
   10    3    4    9       -0.0000000002
   10    4    4    1       -0.0067262478
   10    4    4    3       -0.0009143760
   10    4    4    6        0.0034750557
   10    4    4   10        0.0074649913
   10    6    4    4        0.0126541775
   10    6    4    8       -0.0000000001
   10    7    4    8       -0.0147272479
   10    7    4    9        0.0114673154
   10    8    4    2        0.0062958944
   10    8    4    7       -0.0040847513
   10    9    4    2       -0.0049022741
   10    9    4    7        0.0031805760
   10   10    4    4        0.3302942331
   10   10    4    8       -0.0000000002
   10   10    4    9        0.0000000001
   10    1    5    5       -0.0086559798
   10    2    5    5        0.0000000001
   10    2    5    8        0.0086754080
   10    2    5    9        0.0111416560
   10    3    5    5       -0.0433901344
   10    3    5    8        0.0000000002
   10    3    5    9        0.0000000003
   10    5    5    1       -0.0067262478
   10    5    5    3       -0.0009143760
   10    5    5    6        0.0034750557
   10    5    5   10        0.0074649913
   10    6    5    5        0.0126541775
   10    6    5    9       -0.0000000001
   10    7    5    8       -0.0114673154
   10    7    5    9       -0.0147272479
   10    8    5    2        0.0049022741
   10    8    5    7       -0.0031805760
   10    9    5    2        0.0062958944
   10    9    5    7       -0.0040847513
   10   10    5    5        0.3302942331
   10   10    5    8       -0.0000000001
   10   10    5    9       -0.0000000002
   10    1    6    1       -0.0165638511
   10    1    6    3       -0.0042781308
   10    1    6    6       -0.0203569626
   10    1    6    7        0.0000000001
   10    1    6   10        0.0213204487
   10    2    6    2       -0.0211440086
   10    2    6    6        0.0000000002
   10    2    6    7       -0.0223346349
   10    2    6   10        0.0000000001
   10    3    6    1       -0.0242725493
   10    3    6    2       -0.0000000002
   10    3    6    3       -0.0048503623
   10    3    6    6       -0.0583460893
   10    3    6    7       -0.0000000003
   10    3    6   10       -0.0187925649
   10    4    6    4        0.0034750558
   10    5    6    5        0.0034750558
   10    6    6    1       -0.0189035997
   10    6    6    2        0.0000000001
   10    6    6    3        0.0043718247
   10    6    6    6       -0.0008772560
   10    6    6    7        0.0000000002
   10    6    6   10        0.0289757560
   10    7    6    1        0.0000000001
   10    7    6    2       -0.0022847240
   10    7    6    7        0.0126284840
   10    8    6    8       -0.0025908799
   10    9    6    9       -0.0025908799
   10   10    6    1        0.0727540143
   10   10    6    2        0.0000000003
   10   10    6    3        0.0123345664
   10   10    6    6        0.3712976892
   10   10    6    7        0.0000000001
   10   10    6   10        0.0207947449
   10    1    7    2       -0.0082611322
   10    1    7    6        0.0000000001
   10    1    7    7       -0.0170586022
   10    2    7    1       -0.0100887705
   10    2    7    3       -0.0038562779
   10    2    7    6       -0.0223346353
   10    2    7    7        0.0000000003
   10    2    7   10        0.0211121708
   10    3    7    2       -0.0337890335
   10    3    7    6       -0.0000000003
   10    3    7    7       -0.0742192257
   10    4    7    8       -0.0025523080
   10    4    7    9        0.0019873449
   10    5    7    8       -0.0019873449
   10    5    7    9       -0.0025523080
   10    6    7    1        0.0000000001
   10    6    7    2       -0.0083232365
   10    6    7    6        0.0000000002
   10    6    7    7        0.0017474441
   10    7    7    1        0.0031432677
   10    7    7    3       -0.0106459330
   10    7    7    6        0.0126284856
   10    7    7   10        0.0336920621
   10    8    7    4       -0.0040847523
   10    8    7    5       -0.0031805768
   10    9    7    4        0.0031805768
   10    9    7    5       -0.0040847523
   10   10    7    1        0.0000000002
   10   10    7    2        0.0789479294
   10   10    7    6        0.0000000001
   10   10    7    7        0.4119191777
   10   10    7   10        0.0000000003
   10    1    8    8       -0.0171966231
   10    2    8    4        0.0111416559
   10    2    8    5        0.0086754079
   10    2    8    8        0.0000000002
   10    3    8    4        0.0000000003
   10    3    8    5        0.0000000002
   10    3    8    8       -0.0736234195
   10    4    8    2        0.0064103432
   10    4    8    7       -0.0025523057
   10    5    8    2        0.0049913893
   10    5    8    7       -0.0019873431
   10    6    8    4       -0.0000000001
   10    6    8    8        0.0069086085
   10    7    8    4       -0.0147272465
   10    7    8    5       -0.0114673143
   10    8    8    1       -0.0099250392
   10    8    8    3       -0.0073899085
   10    8    8    6       -0.0025908797
   10    8    8   10        0.0146936005
   10   10    8    4       -0.0000000002
   10   10    8    5       -0.0000000001
   10   10    8    8        0.4064828730
   10    1    9    9       -0.0171966231
   10    2    9    4       -0.0086754079
   10    2    9    5        0.0111416559
   10    2    9    9        0.0000000002
   10    3    9    4       -0.0000000002
   10    3    9    5        0.0000000003
   10    3    9    9       -0.0736234195
   10    4    9    2       -0.0049913893
   10    4    9    7        0.0019873431
   10    5    9    2        0.0064103432
   10    5    9    7       -0.0025523057
   10    6    9    5       -0.0000000001
   10    6    9    9        0.0069086085
   10    7    9    4        0.0114673143
   10    7    9    5       -0.0147272465
   10    9    9    1       -0.0099250392
   10    9    9    3       -0.0073899085
   10    9    9    6       -0.0025908797
   10    9    9   10        0.0146936005
   10   10    9    4        0.0000000001
   10   10    9    5       -0.0000000002
   10   10    9    9        0.4064828730
   10    1   10    1        0.0297703545
   10    1   10    3       -0.0105843474
   10    1   10    6        0.0213210290
   10    1   10   10        0.0140496303
   10    2   10    2        0.0310570799
   10    2   10    3       -0.0000000002
   10    2   10    6        0.0000000001
   10    2   10    7        0.0211121739
   10    2   10   10        0.0000000003
   10    3   10    1       -0.0105843474
   10    3   10    2       -0.0000000002
   10    3   10    3        0.0545059342
   10    3   10    6       -0.0187925649
   10    3   10   10       -0.0848138683
   10    4   10    4        0.0074649914
   10    5   10    5        0.0074649914
   10    6   10    1        0.0213210290
   10    6   10    2        0.0000000001
   10    6   10    3       -0.0187925649
   10    6   10    6        0.0289757559
   10    6   10   10        0.0207947449
   10    7   10    2        0.0211121739
   10    7   10    7        0.0336920459
   10    7   10   10        0.0000000003
   10    8   10    8        0.0146935999
   10    9   10    9        0.0146935999
   10   10   10    1        0.0140496303
   10   10   10    2        0.0000000003
   10   10   10    3       -0.0848138683
   10   10   10    6        0.0207947449
   10   10   10    7        0.0000000003
   10   10   10   10        0.4356707175
 end_two_electron_integrals

 Parallel integral file used      13 records with       0 large values


 Task  times  cpu:      136.5s     wall:      139.7s


                                NWChem Input Module
                                -------------------


 Summary of allocated global arrays
-----------------------------------
  No active global arrays


MA_summarize_allocated_blocks: starting scan ...
MA_summarize_allocated_blocks: scan completed: 0 heap blocks, 0 stack blocks
MA usage statistics:

	allocation statistics:
					      heap	     stack
					      ----	     -----
	current number of blocks	         0	         0
	maximum number of blocks	        18	        42
	current total bytes		         0	         0
	maximum total bytes		  51983048	9994007128
	maximum total K-bytes		     51984	   9994008
	maximum total M-bytes		        52	      9995


                                     CITATION
                                     --------
                Please cite the following reference when publishing
                           results obtained with NWChem:

          E. Apra, E. J. Bylaska, W. A. de Jong, N. Govind, K. Kowalski,
       T. P. Straatsma, M. Valiev, H. J. J. van Dam, Y. Alexeev, J. Anchell,
       V. Anisimov, F. W. Aquino, R. Atta-Fynn, J. Autschbach, N. P. Bauman,
     J. C. Becca, D. E. Bernholdt, K. Bhaskaran-Nair, S. Bogatko, P. Borowski,
         J. Boschen, J. Brabec, A. Bruner, E. Cauet, Y. Chen, G. N. Chuev,
      C. J. Cramer, J. Daily, M. J. O. Deegan, T. H. Dunning Jr., M. Dupuis,
   K. G. Dyall, G. I. Fann, S. A. Fischer, A. Fonari, H. Fruchtl, L. Gagliardi,
      J. Garza, N. Gawande, S. Ghosh, K. Glaesemann, A. W. Gotz, J. Hammond,
       V. Helms, E. D. Hermes, K. Hirao, S. Hirata, M. Jacquelin, L. Jensen,
   B. G. Johnson, H. Jonsson, R. A. Kendall, M. Klemm, R. Kobayashi, V. Konkov,
      S. Krishnamoorthy, M. Krishnan, Z. Lin, R. D. Lins, R. J. Littlefield,
      A. J. Logsdail, K. Lopata, W. Ma, A. V. Marenich, J. Martin del Campo,
   D. Mejia-Rodriguez, J. E. Moore, J. M. Mullin, T. Nakajima, D. R. Nascimento,
    J. A. Nichols, P. J. Nichols, J. Nieplocha, A. Otero-de-la-Roza, B. Palmer,
    A. Panyala, T. Pirojsirikul, B. Peng, R. Peverati, J. Pittner, L. Pollack,
   R. M. Richard, P. Sadayappan, G. C. Schatz, W. A. Shelton, D. W. Silverstein,
   D. M. A. Smith, T. A. Soares, D. Song, M. Swart, H. L. Taylor, G. S. Thomas,
            V. Tipparaju, D. G. Truhlar, K. Tsemekhman, T. Van Voorhis,
      A. Vazquez-Mayagoitia, P. Verma, O. Villa, A. Vishnu, K. D. Vogiatzis,
        D. Wang, J. H. Weare, M. J. Williamson, T. L. Windus, K. Wolinski,
        A. T. Wong, Q. Wu, C. Yang, Q. Yu, M. Zacharias, Z. Zhang, Y. Zhao,
                                and R. J. Harrison
                        "NWChem: Past, present, and future
                         J. Chem. Phys. 152, 184102 (2020)
                               doi:10.1063/5.0004997

                                      AUTHORS
                                      -------
  E. Apra, E. J. Bylaska, N. Govind, K. Kowalski, M. Valiev, D. Mejia-Rodriguez,
       A. Kunitsa, N. P. Bauman, A. Panyala, W. A. de Jong, T. P. Straatsma,
        H. J. J. van Dam, D. Wang, T. L. Windus, J. Hammond, J. Autschbach,
    K. Bhaskaran-Nair, J. Brabec, K. Lopata, S. A. Fischer, S. Krishnamoorthy,
     M. Jacquelin, W. Ma, M. Klemm, O. Villa, Y. Chen, V. Anisimov, F. Aquino,
    S. Hirata, M. T. Hackler, Eric Hermes, L. Jensen, J. E. Moore, J. C. Becca,
      V. Konjkov, T. Risthaus, M. Malagoli, A. Marenich, A. Otero-de-la-Roza,
        J. Mullin, P. Nichols, R. Peverati, J. Pittner, Y. Zhao, P.-D. Fan,
        A. Fonari, M. J. Williamson, R. J. Harrison, J. R. Rehr, M. Dupuis,
     D. Silverstein, D. M. A. Smith, J. Nieplocha, V. Tipparaju, M. Krishnan,
     B. E. Van Kuiken, A. Vazquez-Mayagoitia, M. Swart, Q. Wu, T. Van Voorhis,
     A. A. Auer, M. Nooijen, L. D. Crosby, E. Brown, G. Cisneros, G. I. Fann,
   H. Fruchtl, J. Garza, K. Hirao, R. A. Kendall, J. A. Nichols, K. Tsemekhman,
    K. Wolinski, J. Anchell, D. E. Bernholdt, P. Borowski, T. Clark, D. Clerc,
   H. Dachsel, M. J. O. Deegan, K. Dyall, D. Elwood, E. Glendening, M. Gutowski,
   A. C. Hess, J. Jaffe, B. G. Johnson, J. Ju, R. Kobayashi, R. Kutteh, Z. Lin,
   R. Littlefield, X. Long, B. Meng, T. Nakajima, S. Niu, L. Pollack, M. Rosing,
   K. Glaesemann, G. Sandrone, M. Stave, H. Taylor, G. Thomas, J. H. van Lenthe,
                               A. T. Wong, Z. Zhang.

 Total times  cpu:      138.4s     wall:      141.8s
