 argument  1 = input.nw
  NWChem w/ OpenMP: maximum threads =    1



============================== echo of input deck ==============================
 echo
 start H2
 title "H2"

 memory total 24 gb

 geometry units bohr
 symmetry c1
        H  0.00000000  0.00000000  0.00000000
        H  0.00000000  7.00  0.00000000
 end

 basis
   * library cc-pVQZ
 end

 mcscf
   active  10
   actelec 2
   multiplicity 1
   maxiter 40
   vectors input H2.mos
   vectors output H2.mos
 end

 task mcscf

 scf
   vectors input H2.mos
   vectors output H2-7.00.mos
   noscf
 end

 tce
   2eorb
   2emet 13
   ccsd
   maxiter 300
   lshift 0.8
 end

# set tce:print_integrals T
# set tce:qorb 10
# set tce:qela 1
# set tce:qelb 1

 set tce:qducc T
 set tce:nactv 9
 set tce:nonhf T
 set tce:ducc_model 6

 set tce:printtol 0.02

 task tce
================================================================================


                                         
                                         


             Northwest Computational Chemistry Package (NWChem) 7.0.1
             --------------------------------------------------------


                    Environmental Molecular Sciences Laboratory
                       Pacific Northwest National Laboratory
                                Richland, WA 99352

                              Copyright (c) 1994-2020
                       Pacific Northwest National Laboratory
                            Battelle Memorial Institute

             NWChem is an open-source computational chemistry package
                        distributed under the terms of the
                      Educational Community License (ECL) 2.0
             A copy of the license is included with this distribution
                              in the LICENSE.TXT file

                                  ACKNOWLEDGMENT
                                  --------------

            This software and its documentation were developed at the
            EMSL at Pacific Northwest National Laboratory, a multiprogram
            national laboratory, operated for the U.S. Department of Energy
            by Battelle under Contract Number DE-AC05-76RL01830. Support
            for this work was provided by the Department of Energy Office
            of Biological and Environmental Research, Office of Basic
            Energy Sciences, and the Office of Advanced Scientific Computing.


           Job information
           ---------------

    hostname        = WE46210
    program         = /home/baum612/code/nwchem/bin/LINUX64/nwchem
    date            = Sat Nov 11 04:21:09 2023

    compiled        = Mon_Nov_06_10:06:57_2023
    source          = /home/baum612/code/nwchem
    nwchem branch   = 7.0.0
    nwchem revision = nwchem_on_git-4191-g39d87d64de
    ga revision     = 5.8.1
    use scalapack   = F
    input           = input.nw
    prefix          = H2.
    data base       = ./H2.db
    status          = startup
    nproc           =        1
    time left       =     -1s



           Memory information
           ------------------

    heap     =  805306362 doubles =   6144.0 Mbytes
    stack    =  805306367 doubles =   6144.0 Mbytes
    global   = 1610612736 doubles =  12288.0 Mbytes (distinct from heap & stack)
    total    = 3221225465 doubles =  24576.0 Mbytes
    verify   = yes
    hardfail = no 


           Directory information
           ---------------------

  0 permanent = .
  0 scratch   = .




                                NWChem Input Module
                                -------------------


                                        H2
                                        --
 Turning off AUTOSYM since
 SYMMETRY directive was detected!


          ------
          auto-z
          ------
     1 autoz failed with cvr_scaling = 1.2 changing to 1.3
     2 autoz failed with cvr_scaling = 1.3 changing to 1.4
     3 autoz failed with cvr_scaling = 1.4 changing to 1.5
     4 autoz failed with cvr_scaling = 1.5 changing to 1.6
     5 autoz failed with cvr_scaling = 1.6 changing to 1.7

 AUTOZ failed to generate good internal coordinates.
 Cartesian coordinates will be used in optimizations.



                             Geometry "geometry" -> ""
                             -------------------------

 Output coordinates in a.u. (scale by  1.000000000 to convert to a.u.)

  No.       Tag          Charge          X              Y              Z
 ---- ---------------- ---------- -------------- -------------- --------------
    1 H                    1.0000     0.00000000    -3.50000000     0.00000000
    2 H                    1.0000     0.00000000     3.50000000     0.00000000

      Atomic Mass 
      ----------- 

      H                  1.007825


 Effective nuclear repulsion energy (a.u.)       0.1428571429

            Nuclear Dipole moment (a.u.) 
            ----------------------------
        X                 Y               Z
 ---------------- ---------------- ----------------
     0.0000000000     0.0000000000     0.0000000000


            XYZ format geometry
            -------------------
     2
 geometry
 H                     0.00000000    -1.85212037     0.00000000
 H                     0.00000000     1.85212037     0.00000000



 Summary of "ao basis" -> "" (cartesian)
 ------------------------------------------------------------------------------
       Tag                 Description            Shells   Functions and Types
 ---------------- ------------------------------  ------  ---------------------
 *                          cc-pVQZ                   on all atoms 


                      Basis "ao basis" -> "ao basis" (cartesian)
                      -----
  H (Hydrogen)
  ------------
            Exponent  Coefficients 
       -------------- ---------------------------------------------------------
  1 S  8.26400000E+01  0.002006
  1 S  1.24100000E+01  0.015343
  1 S  2.82400000E+00  0.075579

  2 S  7.97700000E-01  1.000000

  3 S  2.58100000E-01  1.000000

  4 S  8.98900000E-02  1.000000

  5 P  2.29200000E+00  1.000000

  6 P  8.38000000E-01  1.000000

  7 P  2.92000000E-01  1.000000

  8 D  2.06200000E+00  1.000000

  9 D  6.62000000E-01  1.000000

 10 F  1.39700000E+00  1.000000



 Summary of "ao basis" -> "ao basis" (cartesian)
 ------------------------------------------------------------------------------
       Tag                 Description            Shells   Functions and Types
 ---------------- ------------------------------  ------  ---------------------
 H                          cc-pVQZ                 10       35   4s3p2d1f



                            NWChem Direct MCSCF Module
                            --------------------------


                                        H2


     -----------------------------------
       Basis functions:             70
       Inactive shells:              0
       Active shells:               10
       Active electrons:             2
       Symmetry:                    a       
       Multiplicity:                 1
       Orbital rotations:          600
     -----------------------------------

     -----------------------------------
       E2 extrapolation:             F
       Conjugacy:                    T
       Micro CI relax:               T
       Canonical orbitals:           T
       Maximum iterations:          40
       Converge threshold:    1.00E-04
       Conjugacy resets:            20
       Initial levelshift:        0.10
     -----------------------------------

 Loading old vectors from job with title :

H2


   input molecular orbitals = ./H2.mos
  output molecular orbtials = ./H2.mos

       No. of determinants:           100


  Starting Orbital Energies
    -0.261932    -0.237991    -0.000024    -0.000006    -0.000006    -0.000000
    -0.000000    -0.000000    -0.000000    -0.000000     0.419518     0.614714
     0.832772     1.135544     1.135544     1.758642     1.834253     1.834253
     1.906273     2.049702     2.049702     2.054013     2.054013     2.074361
     2.090416     2.090416     2.090423     2.090423     2.898985     2.940750
     4.373412     4.373412     4.386160     4.443304     4.443304     4.482877
     5.943923     6.056057     6.056057     6.061040     6.069856     6.069856
     6.070653     6.070653     6.070653     6.070653     6.070664     6.070664
     6.070664     6.070664     8.127244     8.134298     8.135035     8.135035
     8.142178     8.142178     8.142629     8.142629     8.142631     8.142631
     9.649192     9.651654     9.695698     9.713536     9.713536     9.718645
     9.718645     9.759818    22.372824    22.500310

  Orbital Symmetry Irreps
a    a    a    a    a    a    a    a    a    a    a    a    a    a    a   
a    a    a    a    a    a    a    a    a    a    a    a    a    a    a   
a    a    a    a    a    a    a    a    a    a    a    a    a    a    a   
a    a    a    a    a    a    a    a    a    a    a    a    a    a    a   
a    a    a    a    a    a    a    a    a    a   

 Integral file          = ./H2.aoints.0
 Record size in doubles =  65536        No. of integs per rec  =  43688
 Max. records in memory =     99        Max. records in file   = 280144
 No. of bits per label  =      8        No. of bits per value  =     64


 #quartets = 1.518D+04 #integrals = 3.425D+05 #direct =  0.0% #cached =100.0%




          %%%%% MacroIteration   1 %%%%%


          Number of sigma calls:       14
                       o<<<<< (aa):             0.00
                       o<<<<< (bb):             0.00
                       o<<<<< (ab):             0.00
                       o<<<<< (total)           0.00
                       o<<<<< (aa) ff           0.00
                       o<<<<< (aa) gop          0.00
                       o<<<<< (aa) dot          0.00
                       o<<<<< (ab) str          0.00
                       o<<<<< (ab) gath         0.00
                       o<<<<< (ab) dotab        0.00
                       o<<<<< (ab) scat         0.00
                       o<<<<< (ab) sync         0.00
                       o<<<<< Density           0.00
                       o<<<<< Density one       0.00
                       o<<<<< Density two       0.00
                       o<<<<< Density ab        0.00
                       o<<<<< Spin adapt        0.00
                       o<<<<< Symm adapt        0.00

                       o<<<<< (ab) max sync:      0.00

           >>>| Valence CI:             -1.142894647908
           >>>| MCSCF energy:           -1.000037505051
           >>>| Gradient norm:          0.181032600D-03
     --- Warning:  480 Hessian diagonals < 0.05 ---

                              ----- Line search ------

        step       energy         lsg     num-lsg   num-lsh   lsrat    time
      ------- ---------------- --------- --------- --------- ------- --------
       0.0000      -1.00003751 -8.46D-09  0.00D+00  0.00D+00 0.0D+00      0.1

          Number of sigma calls:        8
                       o<<<<< (aa):             0.00
                       o<<<<< (bb):             0.00
                       o<<<<< (ab):             0.00
                       o<<<<< (total)           0.00
                       o<<<<< (aa) ff           0.00
                       o<<<<< (aa) gop          0.00
                       o<<<<< (aa) dot          0.00
                       o<<<<< (ab) str          0.00
                       o<<<<< (ab) gath         0.00
                       o<<<<< (ab) dotab        0.00
                       o<<<<< (ab) scat         0.00
                       o<<<<< (ab) sync         0.00
                       o<<<<< Density           0.00
                       o<<<<< Density one       0.00
                       o<<<<< Density two       0.00
                       o<<<<< Density ab        0.00
                       o<<<<< Spin adapt        0.00
                       o<<<<< Symm adapt        0.00

                       o<<<<< (ab) max sync:      0.00
       1.0000      -1.00003751 -2.27D-09 -2.27D-09  6.20D-09 2.7D-01      0.2

          Number of sigma calls:        8
                       o<<<<< (aa):             0.00
                       o<<<<< (bb):             0.00
                       o<<<<< (ab):             0.01
                       o<<<<< (total)           0.01
                       o<<<<< (aa) ff           0.00
                       o<<<<< (aa) gop          0.00
                       o<<<<< (aa) dot          0.00
                       o<<<<< (ab) str          0.00
                       o<<<<< (ab) gath         0.00
                       o<<<<< (ab) dotab        0.00
                       o<<<<< (ab) scat         0.00
                       o<<<<< (ab) sync         0.00
                       o<<<<< Density           0.00
                       o<<<<< Density one       0.00
                       o<<<<< Density two       0.00
                       o<<<<< Density ab        0.00
                       o<<<<< Spin adapt        0.00
                       o<<<<< Symm adapt        0.00

                       o<<<<< (ab) max sync:      0.00
       1.3658      -1.00003751  3.06D-12  3.07D-12  6.20D-09 3.6D-04      0.3
     --- Orbitals canonicalized ---



          %%%%% MacroIteration   2 %%%%%


          Number of sigma calls:       14
                       o<<<<< (aa):             0.00
                       o<<<<< (bb):             0.00
                       o<<<<< (ab):             0.01
                       o<<<<< (total)           0.02
                       o<<<<< (aa) ff           0.00
                       o<<<<< (aa) gop          0.00
                       o<<<<< (aa) dot          0.00
                       o<<<<< (ab) str          0.00
                       o<<<<< (ab) gath         0.00
                       o<<<<< (ab) dotab        0.00
                       o<<<<< (ab) scat         0.00
                       o<<<<< (ab) sync         0.00
                       o<<<<< Density           0.00
                       o<<<<< Density one       0.00
                       o<<<<< Density two       0.00
                       o<<<<< Density ab        0.00
                       o<<<<< Spin adapt        0.00
                       o<<<<< Symm adapt        0.00

                       o<<<<< (ab) max sync:      0.00

           >>>| Valence CI:             -1.142894653690
           >>>| MCSCF energy:           -1.000037510833
           >>>| Gradient norm:          0.183827314D-04




     ==============================
            MCSCF Converged
     ==============================



          Canonical Eigenvalues

              1      
    1   -0.2615
    2   -0.2385
    3   -0.0000
    4   -0.0000
    5   -0.0000
    6   -0.0000
    7   -0.0000
    8   -0.0000
    9   -0.0000
   10   -0.0000
   11    0.4197
   12    0.6131
   13    0.8317
   14    1.1351
   15    1.1351
   16    1.7576
   17    1.8347
   18    1.8347
   19    1.9084
   20    2.0497
   21    2.0497
   22    2.0539
   23    2.0539
   24    2.0723
   25    2.0904
   26    2.0904
   27    2.0904
   28    2.0904
   29    2.8994
   30    2.9393
   31    4.3730
   32    4.3730
   33    4.3884
   34    4.4437
   35    4.4437
   36    4.4789
   37    5.9439
   38    6.0561
   39    6.0561
   40    6.0611
   41    6.0699
   42    6.0699
   43    6.0707
   44    6.0707
   45    6.0707
   46    6.0707
   47    6.0707
   48    6.0707
   49    6.0707
   50    6.0707
   51    8.1272
   52    8.1342
   53    8.1351
   54    8.1351
   55    8.1422
   56    8.1422
   57    8.1427
   58    8.1427
   59    8.1427
   60    8.1427
   61    9.6490
   62    9.6509
   63    9.6972
   64    9.7133
   65    9.7133
   66    9.7189
   67    9.7189
   68    9.7583
   69   22.3795
   70   22.4922


          Converged CI vector

   Index           Coefficient          Config. Occupation
         1          0.72601827          1  1
        12         -0.68765312          2  2

          Number of sigma calls:        1
                       o<<<<< (aa):             0.00
                       o<<<<< (bb):             0.00
                       o<<<<< (ab):             0.00
                       o<<<<< (total)           0.00
                       o<<<<< (aa) ff           0.00
                       o<<<<< (aa) gop          0.00
                       o<<<<< (aa) dot          0.00
                       o<<<<< (ab) str          0.00
                       o<<<<< (ab) gath         0.00
                       o<<<<< (ab) dotab        0.00
                       o<<<<< (ab) scat         0.00
                       o<<<<< (ab) sync         0.00
                       o<<<<< Density           0.00
                       o<<<<< Density one       0.00
                       o<<<<< Density two       0.00
                       o<<<<< Density ab        0.00
                       o<<<<< Spin adapt        0.00
                       o<<<<< Symm adapt        0.00

                       o<<<<< (ab) max sync:      0.00



          Natural orbital occupation numbers

              1      
    1    1.0542
    2    0.9457
    3    0.0000
    4    0.0000
    5    0.0000
    6    0.0000
    7    0.0000
    8    0.0000
    9    0.0000
   10    0.0000


          Number of sigma calls:       14
                       o<<<<< (aa):             0.00
                       o<<<<< (bb):             0.00
                       o<<<<< (ab):             0.00
                       o<<<<< (total)           0.01
                       o<<<<< (aa) ff           0.00
                       o<<<<< (aa) gop          0.00
                       o<<<<< (aa) dot          0.00
                       o<<<<< (ab) str          0.00
                       o<<<<< (ab) gath         0.00
                       o<<<<< (ab) dotab        0.00
                       o<<<<< (ab) scat         0.00
                       o<<<<< (ab) sync         0.00
                       o<<<<< Density           0.00
                       o<<<<< Density one       0.00
                       o<<<<< Density two       0.00
                       o<<<<< Density ab        0.00
                       o<<<<< Spin adapt        0.00
                       o<<<<< Symm adapt        0.00

                       o<<<<< (ab) max sync:      0.00


       Final MCSCF results 
       ------------------- 

       Total MCSCF energy =     -1.000037510833
            Gradient norm =      1.8D-05

    CPU time for solution =      0.7s
   Wall time for solution =      1.3s



                        Analysis of MCSCF natural orbitals
                        ----------------------------------

 Vector    1  Occ=1.054205D+00  E=-2.614637D-01  Symmetry=a
              MO Center=  7.2D-15,  3.0D-12, -4.6D-15, r^2= 4.2D+00
   Bfn.  Coefficient  Atom+Function         Bfn.  Coefficient  Atom+Function  
  ----- ------------  ---------------      ----- ------------  ---------------
     3      0.344110  1 H  s                 38      0.344110  2 H  s          
     4      0.209930  1 H  s                 39      0.209930  2 H  s          
     2      0.178035  1 H  s                 37      0.178035  2 H  s          

 Vector    2  Occ=9.457336D-01  E=-2.384607D-01  Symmetry=a
              MO Center=  2.9D-14, -2.6D-12, -2.0D-14, r^2= 4.3D+00
   Bfn.  Coefficient  Atom+Function         Bfn.  Coefficient  Atom+Function  
  ----- ------------  ---------------      ----- ------------  ---------------
     3      0.356380  1 H  s                 38     -0.356380  2 H  s          
     4      0.209570  1 H  s                 39     -0.209570  2 H  s          
     2      0.182139  1 H  s                 37     -0.182139  2 H  s          

 Vector    3  Occ=4.069522D-05  E=-2.210703D-05  Symmetry=a
              MO Center=  2.4D-13,  3.6D-09, -1.5D-13, r^2= 4.4D+00
   Bfn.  Coefficient  Atom+Function         Bfn.  Coefficient  Atom+Function  
  ----- ------------  ---------------      ----- ------------  ---------------
     9      1.886067  1 H  py                44     -1.886067  2 H  py         
    12     -1.018414  1 H  py                47      1.018414  2 H  py         
    32     -0.797917  1 H  fyyy              67      0.797918  2 H  fyyy       
    27     -0.782835  1 H  fxxy              34     -0.782835  1 H  fyzz       
    62      0.782835  2 H  fxxy              69      0.782835  2 H  fyzz       

 Vector    4  Occ=1.010599D-05  E=-5.780417D-06  Symmetry=a
              MO Center=  4.0D-15, -2.5D-11, -1.8D-14, r^2= 4.4D+00
   Bfn.  Coefficient  Atom+Function         Bfn.  Coefficient  Atom+Function  
  ----- ------------  ---------------      ----- ------------  ---------------
    10      1.530355  1 H  pz                45      1.530355  2 H  pz         
    13     -0.916308  1 H  pz                48     -0.916308  2 H  pz         
    33     -0.670328  1 H  fyyz              68     -0.670328  2 H  fyyz       
    28     -0.645217  1 H  fxxz              35     -0.645217  1 H  fzzz       
    63     -0.645217  2 H  fxxz              70     -0.645217  2 H  fzzz       

 Vector    5  Occ=1.010599D-05  E=-5.780417D-06  Symmetry=a
              MO Center=  3.6D-14, -2.4D-11,  1.3D-14, r^2= 4.4D+00
   Bfn.  Coefficient  Atom+Function         Bfn.  Coefficient  Atom+Function  
  ----- ------------  ---------------      ----- ------------  ---------------
     8      1.530355  1 H  px                43      1.530355  2 H  px         
    11     -0.916308  1 H  px                46     -0.916308  2 H  px         
    29     -0.670328  1 H  fxyy              64     -0.670328  2 H  fxyy       
    26     -0.645217  1 H  fxxx              31     -0.645217  1 H  fxzz       
    61     -0.645217  2 H  fxxx              66     -0.645217  2 H  fxzz       

 Vector    6  Occ=9.126729D-08  E=-6.435711D-08  Symmetry=a
              MO Center= -2.8D-13, -2.9D-10,  1.6D-13, r^2= 4.1D+00
   Bfn.  Coefficient  Atom+Function         Bfn.  Coefficient  Atom+Function  
  ----- ------------  ---------------      ----- ------------  ---------------
     9      1.250732  1 H  py                44     -1.250732  2 H  py         
     2      0.593746  1 H  s                 37      0.593746  2 H  s          
     4     -0.524521  1 H  s                 39     -0.524521  2 H  s          
    27     -0.518059  1 H  fxxy              34     -0.518059  1 H  fyzz       
    62      0.518059  2 H  fxxy              69      0.518059  2 H  fyzz       

 Vector    7  Occ=4.829347D-08  E=-4.464067D-08  Symmetry=a
              MO Center= -1.4D-12,  2.0D-09,  8.4D-13, r^2= 3.3D+00
   Bfn.  Coefficient  Atom+Function         Bfn.  Coefficient  Atom+Function  
  ----- ------------  ---------------      ----- ------------  ---------------
     9      1.428111  1 H  py                44      1.428111  2 H  py         
     3     -0.921122  1 H  s                 38      0.921122  2 H  s          
     2      0.842893  1 H  s                 37     -0.842893  2 H  s          
    27     -0.521961  1 H  fxxy              34     -0.521961  1 H  fyzz       
    62     -0.521961  2 H  fxxy              69     -0.521961  2 H  fyzz       

 Vector    8  Occ=3.207688D-08  E=-2.918869D-08  Symmetry=a
              MO Center= -3.2D-14,  8.7D-12, -5.3D-13, r^2= 3.2D+00
   Bfn.  Coefficient  Atom+Function         Bfn.  Coefficient  Atom+Function  
  ----- ------------  ---------------      ----- ------------  ---------------
    10      1.425321  1 H  pz                45     -1.425321  2 H  pz         
    28     -0.466114  1 H  fxxz              35     -0.466114  1 H  fzzz       
    63      0.466114  2 H  fxxz              70      0.466114  2 H  fzzz       
    24      0.383873  1 H  dyz               59      0.383873  2 H  dyz        
    33     -0.342769  1 H  fyyz              68      0.342769  2 H  fyyz       

 Vector    9  Occ=3.207688D-08  E=-2.918869D-08  Symmetry=a
              MO Center=  9.7D-13,  8.1D-12, -6.1D-14, r^2= 3.2D+00
   Bfn.  Coefficient  Atom+Function         Bfn.  Coefficient  Atom+Function  
  ----- ------------  ---------------      ----- ------------  ---------------
     8      1.425321  1 H  px                43     -1.425321  2 H  px         
    26     -0.466114  1 H  fxxx              31     -0.466114  1 H  fxzz       
    61      0.466114  2 H  fxxx              66      0.466114  2 H  fxzz       
    21      0.383873  1 H  dxy               56      0.383873  2 H  dxy        
    29     -0.342769  1 H  fxyy              64      0.342769  2 H  fxyy       

 Vector   10  Occ=1.972708D-08  E=-2.310011D-08  Symmetry=a
              MO Center= -6.5D-15,  3.7D-09,  2.9D-15, r^2= 4.4D+00
   Bfn.  Coefficient  Atom+Function         Bfn.  Coefficient  Atom+Function  
  ----- ------------  ---------------      ----- ------------  ---------------
     9      3.006894  1 H  py                44     -3.006894  2 H  py         
    27     -1.325323  1 H  fxxy              34     -1.325323  1 H  fyzz       
    62      1.325323  2 H  fxxy              69      1.325323  2 H  fyzz       
    32     -1.026040  1 H  fyyy              67      1.026040  2 H  fyyy       
     6     -0.743395  1 H  py                41      0.743395  2 H  py         

 Vector   11  Occ=0.000000D+00  E= 4.197152D-01  Symmetry=a
              MO Center=  2.5D-12,  9.2D-10, -1.5D-12, r^2= 8.9D+00
   Bfn.  Coefficient  Atom+Function         Bfn.  Coefficient  Atom+Function  
  ----- ------------  ---------------      ----- ------------  ---------------
     3      2.613147  1 H  s                 38     -2.613147  2 H  s          
     4     -1.557679  1 H  s                 39      1.557679  2 H  s          
     9     -1.293690  1 H  py                44     -1.293690  2 H  py         
     2     -0.636070  1 H  s                 37      0.636070  2 H  s          
    12      0.596145  1 H  py                47      0.596145  2 H  py         

 Vector   12  Occ=0.000000D+00  E= 6.131089D-01  Symmetry=a
              MO Center= -8.4D-13,  4.6D-09,  5.2D-13, r^2= 6.4D+00
   Bfn.  Coefficient  Atom+Function         Bfn.  Coefficient  Atom+Function  
  ----- ------------  ---------------      ----- ------------  ---------------
     3      2.014659  1 H  s                 38     -2.014659  2 H  s          
     4     -1.151870  1 H  s                 39      1.151870  2 H  s          
     9      1.129586  1 H  py                44      1.129586  2 H  py         
    12     -0.846642  1 H  py                47     -0.846642  2 H  py         
     2     -0.546503  1 H  s                 37      0.546503  2 H  s          

 Vector   13  Occ=0.000000D+00  E= 8.317321D-01  Symmetry=a
              MO Center=  6.1D-14, -1.9D-08, -3.6D-14, r^2= 7.3D+00
   Bfn.  Coefficient  Atom+Function         Bfn.  Coefficient  Atom+Function  
  ----- ------------  ---------------      ----- ------------  ---------------
     3      3.850767  1 H  s                 38      3.850767  2 H  s          
     4     -1.575843  1 H  s                 39     -1.575843  2 H  s          
     2     -1.243052  1 H  s                 37     -1.243052  2 H  s          
    23     -0.638660  1 H  dyy               58     -0.638660  2 H  dyy        
    20     -0.588375  1 H  dxx               25     -0.588375  1 H  dzz        

 Vector   14  Occ=0.000000D+00  E= 1.135103D+00  Symmetry=a
              MO Center=  1.3D-13, -2.6D-11, -1.2D-14, r^2= 5.8D+00
   Bfn.  Coefficient  Atom+Function         Bfn.  Coefficient  Atom+Function  
  ----- ------------  ---------------      ----- ------------  ---------------
     8      4.943495  1 H  px                43     -4.943495  2 H  px         
    26     -1.921503  1 H  fxxx              31     -1.921503  1 H  fxzz       
    61      1.921503  2 H  fxxx              66      1.921503  2 H  fxzz       
    29     -1.904054  1 H  fxyy              64      1.904054  2 H  fxyy       
    11     -1.482609  1 H  px                46      1.482609  2 H  px         

 Vector   15  Occ=0.000000D+00  E= 1.135103D+00  Symmetry=a
              MO Center= -3.4D-15, -2.4D-11, -3.5D-14, r^2= 5.8D+00
   Bfn.  Coefficient  Atom+Function         Bfn.  Coefficient  Atom+Function  
  ----- ------------  ---------------      ----- ------------  ---------------
    10      4.943495  1 H  pz                45     -4.943495  2 H  pz         
    28     -1.921503  1 H  fxxz              35     -1.921503  1 H  fzzz       
    63      1.921503  2 H  fxxz              70      1.921503  2 H  fzzz       
    33     -1.904054  1 H  fyyz              68      1.904054  2 H  fyyz       
    13     -1.482609  1 H  pz                48      1.482609  2 H  pz         

 Vector   16  Occ=0.000000D+00  E= 1.757639D+00  Symmetry=a
              MO Center= -7.5D-13,  6.7D-09,  4.5D-13, r^2= 5.6D+00
   Bfn.  Coefficient  Atom+Function         Bfn.  Coefficient  Atom+Function  
  ----- ------------  ---------------      ----- ------------  ---------------
     9      4.766010  1 H  py                44      4.766010  2 H  py         
     3      2.156573  1 H  s                 38     -2.156573  2 H  s          
    27     -1.835977  1 H  fxxy              32     -1.827762  1 H  fyyy       
    34     -1.835977  1 H  fyzz              62     -1.835977  2 H  fxxy       
    67     -1.827762  2 H  fyyy              69     -1.835977  2 H  fyzz       

 Vector   17  Occ=0.000000D+00  E= 1.834688D+00  Symmetry=a
              MO Center= -7.2D-14,  5.4D-11,  1.9D-14, r^2= 4.7D+00
   Bfn.  Coefficient  Atom+Function         Bfn.  Coefficient  Atom+Function  
  ----- ------------  ---------------      ----- ------------  ---------------
     8      6.020875  1 H  px                43      6.020875  2 H  px         
    26     -2.350182  1 H  fxxx              29     -2.349205  1 H  fxyy       
    31     -2.350182  1 H  fxzz              61     -2.350182  2 H  fxxx       
    64     -2.349205  2 H  fxyy              66     -2.350182  2 H  fxzz       
     5     -1.591680  1 H  px                40     -1.591680  2 H  px         

 Vector   18  Occ=0.000000D+00  E= 1.834688D+00  Symmetry=a
              MO Center=  3.0D-15,  5.3D-11,  2.2D-14, r^2= 4.7D+00
   Bfn.  Coefficient  Atom+Function         Bfn.  Coefficient  Atom+Function  
  ----- ------------  ---------------      ----- ------------  ---------------
    10      6.020875  1 H  pz                45      6.020875  2 H  pz         
    28     -2.350182  1 H  fxxz              33     -2.349205  1 H  fyyz       
    35     -2.350182  1 H  fzzz              63     -2.350182  2 H  fxxz       
    68     -2.349205  2 H  fyyz              70     -2.350182  2 H  fzzz       
     7     -1.591680  1 H  pz                42     -1.591680  2 H  pz         

 Vector   19  Occ=0.000000D+00  E= 1.908366D+00  Symmetry=a
              MO Center= -8.7D-15, -3.5D-09,  6.0D-15, r^2= 5.5D+00
   Bfn.  Coefficient  Atom+Function         Bfn.  Coefficient  Atom+Function  
  ----- ------------  ---------------      ----- ------------  ---------------
     9      4.828312  1 H  py                44     -4.828312  2 H  py         
    32     -1.899928  1 H  fyyy              67      1.899928  2 H  fyyy       
    27     -1.888875  1 H  fxxy              34     -1.888875  1 H  fyzz       
    62      1.888875  2 H  fxxy              69      1.888875  2 H  fyzz       
     6     -1.280665  1 H  py                41      1.280665  2 H  py         

 Vector   20  Occ=0.000000D+00  E= 2.049750D+00  Symmetry=a
              MO Center= -1.4D-14, -2.3D-09,  1.4D-14, r^2= 4.8D+00
   Bfn.  Coefficient  Atom+Function         Bfn.  Coefficient  Atom+Function  
  ----- ------------  ---------------      ----- ------------  ---------------
    24      1.247662  1 H  dyz               59     -1.247662  2 H  dyz        
    10     -0.511891  1 H  pz                45     -0.511891  2 H  pz         
    21     -0.349029  1 H  dxy               56      0.349029  2 H  dxy        
    33      0.200982  1 H  fyyz              68      0.200982  2 H  fyyz       
    28      0.199499  1 H  fxxz              35      0.199499  1 H  fzzz       


 Wrote Lagrangian and 1- and 2-particle density matrices to ./H2.mcpdm


     Multipole analysis of the density
     ---------------------------------

     L   x y z        total        nuclear
     -   - - -        -----        -------
     0   0 0 0     -0.000000      2.000000

     1   1 0 0     -0.000000      0.000000
     1   0 1 0     -0.000000      0.000000
     1   0 0 1      0.000000      0.000000

     2   2 0 0     -2.000524      0.000000
     2   1 1 0      0.000000      0.000000
     2   1 0 1     -0.000000      0.000000
     2   0 2 0     -1.977641     24.500000
     2   0 1 1     -0.000000      0.000000
     2   0 0 2     -2.000524      0.000000


  Mulliken analysis of the total density
  --------------------------------------

    Atom       Charge   Shell Charges
 -----------   ------   -------------------------------------------------------
    1 H    1     1.00   0.05  0.22  0.48  0.25  0.00 -0.00  0.00  0.00  0.00  0.00
    2 H    1     1.00   0.05  0.22  0.48  0.25  0.00 -0.00  0.00  0.00  0.00  0.00

    Mulliken analysis of the active space density
    ---------------------------------------------

    Atom       Charge   Shell Charges
 -----------   ------   -------------------------------------------------------
    1 H    1     1.00   0.05  0.22  0.48  0.25  0.00 -0.00  0.00  0.00  0.00  0.00
    2 H    1     1.00   0.05  0.22  0.48  0.25  0.00 -0.00  0.00  0.00  0.00  0.00

 Parallel integral file used       8 records with       0 large values


 Task  times  cpu:        0.7s     wall:        1.3s


                                NWChem Input Module
                                -------------------


                                 NWChem SCF Module
                                 -----------------


                                        H2



  ao basis        = "ao basis"
  functions       =    70
  atoms           =     2
  closed shells   =     1
  open shells     =     0
  charge          =   0.00
  wavefunction    = RHF 
  input vectors   = ./H2.mos
  output vectors  = ./H2-7.00.mos
  use symmetry    = F
  symmetry adapt  = F


 Summary of "ao basis" -> "ao basis" (cartesian)
 ------------------------------------------------------------------------------
       Tag                 Description            Shells   Functions and Types
 ---------------- ------------------------------  ------  ---------------------
 H                          cc-pVQZ                 10       35   4s3p2d1f



 Forming initial guess at       1.4s


 Loading old vectors from job with title :

H2


 Starting SCF solution at       1.4s



 ----------------------------------------------
         Quadratically convergent ROHF

 Convergence threshold     :          1.000E-04
 Maximum no. of iterations :           30
 Final Fock-matrix accuracy:          1.000E-07
 ----------------------------------------------


 Integral file          = ./H2.aoints.0
 Record size in doubles =  65536        No. of integs per rec  =  43688
 Max. records in memory =     99        Max. records in file   = 280175
 No. of bits per label  =      8        No. of bits per value  =     64


 #quartets = 1.360D+04 #integrals = 3.028D+05 #direct =  0.0% #cached =100.0%



       Final RHF  results 
       ------------------ 

         Total SCF energy =     -0.771153352517
      One-electron energy =     -1.293709886747
      Two-electron energy =      0.379699391373
 Nuclear repulsion energy =      0.142857142857

        Time for solution =      0.0s


             Final eigenvalues
             -----------------

              1      
    1   -0.2615
    2   -0.2385
    3   -0.0000
    4   -0.0000
    5   -0.0000
    6   -0.0000
    7   -0.0000
    8   -0.0000
    9   -0.0000
   10   -0.0000
   11    0.4197

                       ROHF Final Molecular Orbital Analysis
                       -------------------------------------

 Vector    1  Occ=2.000000D+00  E=-2.614637D-01
              MO Center=  7.2D-15,  3.0D-12, -4.6D-15, r^2= 4.2D+00
   Bfn.  Coefficient  Atom+Function         Bfn.  Coefficient  Atom+Function  
  ----- ------------  ---------------      ----- ------------  ---------------
     3      0.344110  1 H  s                 38      0.344110  2 H  s          
     4      0.209930  1 H  s                 39      0.209930  2 H  s          
     2      0.178035  1 H  s                 37      0.178035  2 H  s          

 Vector    2  Occ=0.000000D+00  E=-2.384607D-01
              MO Center=  2.9D-14, -2.6D-12, -2.0D-14, r^2= 4.3D+00
   Bfn.  Coefficient  Atom+Function         Bfn.  Coefficient  Atom+Function  
  ----- ------------  ---------------      ----- ------------  ---------------
     3      0.356380  1 H  s                 38     -0.356380  2 H  s          
     4      0.209570  1 H  s                 39     -0.209570  2 H  s          
     2      0.182139  1 H  s                 37     -0.182139  2 H  s          

 Vector    3  Occ=0.000000D+00  E=-2.210703D-05
              MO Center=  2.4D-13,  3.6D-09, -1.5D-13, r^2= 4.4D+00
   Bfn.  Coefficient  Atom+Function         Bfn.  Coefficient  Atom+Function  
  ----- ------------  ---------------      ----- ------------  ---------------
     9      1.886067  1 H  py                44     -1.886067  2 H  py         
    12     -1.018414  1 H  py                47      1.018414  2 H  py         
    32     -0.797917  1 H  fyyy              67      0.797918  2 H  fyyy       
    27     -0.782835  1 H  fxxy              34     -0.782835  1 H  fyzz       
    62      0.782835  2 H  fxxy              69      0.782835  2 H  fyzz       

 Vector    4  Occ=0.000000D+00  E=-5.780417D-06
              MO Center=  4.0D-15, -2.5D-11, -1.8D-14, r^2= 4.4D+00
   Bfn.  Coefficient  Atom+Function         Bfn.  Coefficient  Atom+Function  
  ----- ------------  ---------------      ----- ------------  ---------------
    10      1.530355  1 H  pz                45      1.530355  2 H  pz         
    13     -0.916308  1 H  pz                48     -0.916308  2 H  pz         
    33     -0.670328  1 H  fyyz              68     -0.670328  2 H  fyyz       
    28     -0.645217  1 H  fxxz              35     -0.645217  1 H  fzzz       
    63     -0.645217  2 H  fxxz              70     -0.645217  2 H  fzzz       

 Vector    5  Occ=0.000000D+00  E=-5.780417D-06
              MO Center=  3.6D-14, -2.4D-11,  1.3D-14, r^2= 4.4D+00
   Bfn.  Coefficient  Atom+Function         Bfn.  Coefficient  Atom+Function  
  ----- ------------  ---------------      ----- ------------  ---------------
     8      1.530355  1 H  px                43      1.530355  2 H  px         
    11     -0.916308  1 H  px                46     -0.916308  2 H  px         
    29     -0.670328  1 H  fxyy              64     -0.670328  2 H  fxyy       
    26     -0.645217  1 H  fxxx              31     -0.645217  1 H  fxzz       
    61     -0.645217  2 H  fxxx              66     -0.645217  2 H  fxzz       

 Vector    6  Occ=0.000000D+00  E=-6.435711D-08
              MO Center= -2.8D-13, -2.9D-10,  1.6D-13, r^2= 4.1D+00
   Bfn.  Coefficient  Atom+Function         Bfn.  Coefficient  Atom+Function  
  ----- ------------  ---------------      ----- ------------  ---------------
     9      1.250732  1 H  py                44     -1.250732  2 H  py         
     2      0.593746  1 H  s                 37      0.593746  2 H  s          
     4     -0.524521  1 H  s                 39     -0.524521  2 H  s          
    27     -0.518059  1 H  fxxy              34     -0.518059  1 H  fyzz       
    62      0.518059  2 H  fxxy              69      0.518059  2 H  fyzz       

 Vector    7  Occ=0.000000D+00  E=-4.464067D-08
              MO Center= -1.4D-12,  2.0D-09,  8.4D-13, r^2= 3.3D+00
   Bfn.  Coefficient  Atom+Function         Bfn.  Coefficient  Atom+Function  
  ----- ------------  ---------------      ----- ------------  ---------------
     9      1.428111  1 H  py                44      1.428111  2 H  py         
     3     -0.921122  1 H  s                 38      0.921122  2 H  s          
     2      0.842893  1 H  s                 37     -0.842893  2 H  s          
    27     -0.521961  1 H  fxxy              34     -0.521961  1 H  fyzz       
    62     -0.521961  2 H  fxxy              69     -0.521961  2 H  fyzz       

 Vector    8  Occ=0.000000D+00  E=-2.918869D-08
              MO Center= -3.2D-14,  8.7D-12, -5.3D-13, r^2= 3.2D+00
   Bfn.  Coefficient  Atom+Function         Bfn.  Coefficient  Atom+Function  
  ----- ------------  ---------------      ----- ------------  ---------------
    10      1.425321  1 H  pz                45     -1.425321  2 H  pz         
    28     -0.466114  1 H  fxxz              35     -0.466114  1 H  fzzz       
    63      0.466114  2 H  fxxz              70      0.466114  2 H  fzzz       
    24      0.383873  1 H  dyz               59      0.383873  2 H  dyz        
    33     -0.342769  1 H  fyyz              68      0.342769  2 H  fyyz       

 Vector    9  Occ=0.000000D+00  E=-2.918869D-08
              MO Center=  9.7D-13,  8.2D-12, -6.1D-14, r^2= 3.2D+00
   Bfn.  Coefficient  Atom+Function         Bfn.  Coefficient  Atom+Function  
  ----- ------------  ---------------      ----- ------------  ---------------
     8      1.425321  1 H  px                43     -1.425321  2 H  px         
    26     -0.466114  1 H  fxxx              31     -0.466114  1 H  fxzz       
    61      0.466114  2 H  fxxx              66      0.466114  2 H  fxzz       
    21      0.383873  1 H  dxy               56      0.383873  2 H  dxy        
    29     -0.342769  1 H  fxyy              64      0.342769  2 H  fxyy       

 Vector   10  Occ=0.000000D+00  E=-2.310011D-08
              MO Center= -6.5D-15,  3.7D-09,  2.9D-15, r^2= 4.4D+00
   Bfn.  Coefficient  Atom+Function         Bfn.  Coefficient  Atom+Function  
  ----- ------------  ---------------      ----- ------------  ---------------
     9      3.006894  1 H  py                44     -3.006894  2 H  py         
    27     -1.325323  1 H  fxxy              34     -1.325323  1 H  fyzz       
    62      1.325323  2 H  fxxy              69      1.325323  2 H  fyzz       
    32     -1.026040  1 H  fyyy              67      1.026040  2 H  fyyy       
     6     -0.743395  1 H  py                41      0.743395  2 H  py         

 Vector   11  Occ=0.000000D+00  E= 4.197152D-01
              MO Center=  2.5D-12,  9.2D-10, -1.5D-12, r^2= 8.9D+00
   Bfn.  Coefficient  Atom+Function         Bfn.  Coefficient  Atom+Function  
  ----- ------------  ---------------      ----- ------------  ---------------
     3      2.613147  1 H  s                 38     -2.613147  2 H  s          
     4     -1.557679  1 H  s                 39      1.557679  2 H  s          
     9     -1.293690  1 H  py                44     -1.293690  2 H  py         
     2     -0.636070  1 H  s                 37      0.636070  2 H  s          
    12      0.596145  1 H  py                47      0.596145  2 H  py         

 Vector   12  Occ=0.000000D+00  E= 6.131089D-01
              MO Center= -8.4D-13,  4.6D-09,  5.2D-13, r^2= 6.4D+00
   Bfn.  Coefficient  Atom+Function         Bfn.  Coefficient  Atom+Function  
  ----- ------------  ---------------      ----- ------------  ---------------
     3      2.014659  1 H  s                 38     -2.014659  2 H  s          
     4     -1.151870  1 H  s                 39      1.151870  2 H  s          
     9      1.129586  1 H  py                44      1.129586  2 H  py         
    12     -0.846642  1 H  py                47     -0.846642  2 H  py         
     2     -0.546503  1 H  s                 37      0.546503  2 H  s          


 center of mass
 --------------
 x =   0.00000000 y =   0.00000000 z =   0.00000000

 moments of inertia (a.u.)
 ------------------
          24.691712500000           0.000000000000           0.000000000000
           0.000000000000           0.000000000000           0.000000000000
           0.000000000000           0.000000000000          24.691712500000

  Mulliken analysis of the total density
  --------------------------------------

    Atom       Charge   Shell Charges
 -----------   ------   -------------------------------------------------------
    1 H    1     1.00   0.04  0.21  0.48  0.26 -0.00  0.00 -0.00  0.00  0.00 -0.00
    2 H    1     1.00   0.04  0.21  0.48  0.26 -0.00  0.00 -0.00  0.00  0.00 -0.00

       Multipole analysis of the density wrt the origin
       ------------------------------------------------

     L   x y z        total         open         nuclear
     -   - - -        -----         ----         -------
     0   0 0 0     -0.000000      0.000000      2.000000

     1   1 0 0     -0.000000      0.000000      0.000000
     1   0 1 0     -0.000000      0.000000      0.000000
     1   0 0 1      0.000000      0.000000      0.000000

     2   2 0 0     -2.048176      0.000000      0.000000
     2   1 1 0     -0.000000      0.000000      0.000000
     2   1 0 1      0.000000      0.000000      0.000000
     2   0 2 0     -1.627727      0.000000     24.500000
     2   0 1 1      0.000000      0.000000      0.000000
     2   0 0 2     -2.048176      0.000000      0.000000


 Parallel integral file used       7 records with       0 large values

                   NWChem Extensible Many-Electron Theory Module
                   ---------------------------------------------

              ======================================================
                   This portion of the program was automatically
                  generated by a Tensor Contraction Engine (TCE).
                  The development of this portion of the program
                 and TCE was supported by US Department of Energy,
                Office of Science, Office of Basic Energy Science.
                      TCE is a product of Battelle and PNNL.
              Please cite: S.Hirata, J.Phys.Chem.A 107, 9887 (2003).
              ======================================================

                                        H2


            General Information
            -------------------
      Number of processors :     1
         Wavefunction type : Restricted Hartree-Fock
          No. of electrons :     2
           Alpha electrons :     1
            Beta electrons :     1
           No. of orbitals :   140
            Alpha orbitals :    70
             Beta orbitals :    70
        Alpha frozen cores :     0
         Beta frozen cores :     0
     Alpha frozen virtuals :     0
      Beta frozen virtuals :     0
         Spin multiplicity : singlet 
    Number of AO functions :    70
       Number of AO shells :    20
        Use of symmetry is : off
      Symmetry adaption is : off
         Schwarz screening : 0.10D-09

          Correlation Information
          -----------------------
          Calculation type : Coupled-cluster singles & doubles                           
   Perturbative correction : none                                                        
            Max iterations :      300
        Residual threshold : 0.10D-06
     T(0) DIIS level shift : 0.80D+00
     L(0) DIIS level shift : 0.00D+00
     T(1) DIIS level shift : 0.00D+00
     L(1) DIIS level shift : 0.00D+00
     T(R) DIIS level shift : 0.00D+00
     T(I) DIIS level shift : 0.00D+00
   CC-T/L Amplitude update :  5-th order DIIS
                I/O scheme : Global Array Library
        L-threshold :  0.10D-06
        EOM-threshold :  0.10D-06
 no EOMCCSD initial starts read in
 TCE RESTART OPTIONS
 READ_INT:   F
 WRITE_INT:  F
 READ_TA:    F
 WRITE_TA:   F
 READ_XA:    F
 WRITE_XA:   F
 READ_IN3:   F
 WRITE_IN3:  F
 SLICE:      F
 D4D5:       F
 quantumc:   F
 qrotation:  F
 pwtce:      F
 qducc:      T
 nacto:                         0
 nrotv:                         0
 nrot:                          0

            Memory Information
            ------------------
          Available GA space size is    1610607836 doubles
          Available MA space size is    1610610644 doubles

 Maximum block size        32 doubles

 tile_dim =     23

 Block   Spin    Irrep     Size     Offset   Alpha
 -------------------------------------------------
   1    alpha     a      1 doubles       0       1
   2    beta      a      1 doubles       1       1
   3    alpha     a     23 doubles       2       3
   4    alpha     a     23 doubles      25       4
   5    alpha     a     23 doubles      48       5
   6    beta      a     23 doubles      71       3
   7    beta      a     23 doubles      94       4
   8    beta      a     23 doubles     117       5

 Global array virtual files algorithm will be used

 Parallel file system coherency ......... OK

 Integral file          = ./H2.aoints.0
 Record size in doubles =  65536        No. of integs per rec  =  43688
 Max. records in memory =     99        Max. records in file   = 280175
 No. of bits per label  =      8        No. of bits per value  =     64


 #quartets = 1.526D+04 #integrals = 3.520D+05 #direct =  0.0% #cached =100.0%


 Fock matrix recomputed
 1-e file size   =             4900
 1-e file name   = ./H2.f1
 Cpu & wall time / sec            0.0            0.0
 4-electron integrals stored in orbital form

 v2    file size   =          6102085
 4-index algorithm nr.  13 is used
 imaxsize =       30
 imaxsize ichop =        0
 Cpu & wall time / sec            1.8            1.8
 T1-number-of-tasks                    3

 t1 file size   =               69
 t1 file name   = ./H2.t1
 t1 file handle =       -998
 T2-number-of-boxes                   15

 t2 file size   =             7935
 t2 file name   = ./H2.t2
 t2 file handle =       -996
CCSD iterations
 ---------------------------------------------------------
 Iter          Residuum       Correlation     Cpu    Wall 
 ---------------------------------------------------------
NEW TASK SCHEDULING
CCSD_T1_NTS --- OK
CCSD_T2_NTS --- OK
    1   4.6120949243724  -0.6964756216352     0.1     0.1
    2   4.2293852311319  -0.8369133752383     0.1     0.1
    3   2.2270847568739  -0.0908701456792     0.1     0.1
    4   2.5822357667974  -0.5266289617916     0.1     0.2
    5   2.3549356382090  -0.0767143112696     0.0     0.1
 MICROCYCLE DIIS UPDATE:                    5                    5
    6   0.9035763178101  -0.3517786687579     0.1     0.1
    7   0.8025287756903  -0.3604743652160     0.1     0.1
    8   0.7279124524231  -0.2732431070673     0.1     0.1
    9   0.8625668348666  -0.3090819080696     0.1     0.1
   10   0.9770989605697  -0.2261133368581     0.1     0.1
 MICROCYCLE DIIS UPDATE:                   10                    5
   11   0.1174497972899  -0.2648330453886     0.1     0.1
   12   0.0881784607710  -0.2577824737171     0.1     0.1
   13   0.0740193341755  -0.2487764727450     0.1     0.1
   14   0.0734627142069  -0.2469673582100     0.1     0.1
   15   0.0767301468422  -0.2390670636235     0.1     0.1
 MICROCYCLE DIIS UPDATE:                   15                    5
   16   0.0114659476318  -0.2314267736346     0.1     0.1
   17   0.0099432000472  -0.2310841906905     0.0     0.1
   18   0.0106099716553  -0.2307012042880     0.1     0.1
   19   0.0126988935664  -0.2302406934503     0.1     0.1
   20   0.0158932686854  -0.2301295360808     0.1     0.1
 MICROCYCLE DIIS UPDATE:                   20                    5
   21   0.0011079336328  -0.2291549188265     0.1     0.1
   22   0.0007210358230  -0.2291360400995     0.1     0.1
   23   0.0006193359391  -0.2290415439626     0.2     0.2
   24   0.0007370217275  -0.2290504776062     0.1     0.1
   25   0.0009930845701  -0.2289640791721     0.1     0.1
 MICROCYCLE DIIS UPDATE:                   25                    5
   26   0.0001853124911  -0.2289357108111     0.1     0.1
   27   0.0001486800808  -0.2289302969716     0.1     0.1
   28   0.0001427248167  -0.2289235304730     0.1     0.1
   29   0.0001608730434  -0.2289156024824     0.1     0.1
   30   0.0001949003107  -0.2289130524925     0.1     0.1
 MICROCYCLE DIIS UPDATE:                   30                    5
   31   0.0000158164772  -0.2288939693221     0.1     0.1
   32   0.0000125182105  -0.2288938103525     0.1     0.1
   33   0.0000116746429  -0.2288922020851     0.1     0.1
   34   0.0000152666596  -0.2288926029078     0.1     0.1
   35   0.0000206422817  -0.2288910503902     0.1     0.1
 MICROCYCLE DIIS UPDATE:                   35                    5
   36   0.0000025580724  -0.2288910107263     0.1     0.1
   37   0.0000019875002  -0.2288909244986     0.1     0.1
   38   0.0000016830529  -0.2288908075485     0.1     0.1
   39   0.0000016535716  -0.2288906890858     0.1     0.1
   40   0.0000017932537  -0.2288906429490     0.1     0.1
 MICROCYCLE DIIS UPDATE:                   40                    5
   41   0.0000003100919  -0.2288903499282     0.1     0.1
   42   0.0000001666158  -0.2288903376731     0.1     0.1
   43   0.0000001091853  -0.2288903235494     0.2     0.2
   44   0.0000000797731  -0.2288903143404     0.2     0.2
 -----------------------------------------------------------------
 Iterations converged
 CCSD correlation energy / hartree =        -0.228890314340391
 CCSD total energy / hartree       =        -1.000043666857046

 Singles contributions

 Doubles contributions
     2a   (alpha)     2a   (beta ) ---     1a   (alpha)     1a   (beta )       -0.9476042389
 Ground state specification:
 exp(T)|Ref>~(1+T)|Ref>
 ------- a(p)+/a(q) strings ----------

 singles norm

 doubles norm

 Reference string
  0.72586721704019663      :(1a)+ (1b)+ |0>

 Singles strings

 Doubles strings
 -0.68783485170956549      :(2a)+ (2b)+ (1b)  (1a)  (1a)+ (1b)+ |0>
 -------------------------------------
 enrep_tce =   0.14285714285714282     
  EHF(total)         =        -0.77115335
  Shift (HFtot-HFA)  =         0.00000000
 ALL OCCUPIED ORBITALS ARE ACTIVE IN DUCC --> NO SHIFT
 Number of active orbitals                   10
 Number of active alpha electrons                    1
 Number of active beta electrons                    1
  nos                     2
  nvs                   138
 noas                     1
 nobs                     1
 nvas                    69
 nvbs                    69
 nactv                     9
 DUCC MODEL =                     6
 NONHF =  T
 F-T1 correlation    =    2.0601226315356038E-005
 V-T1-T1 correlation =    8.2109099854052109E-010
 V-T2 correlation    =  -0.22891091638778768     
 Total correlation   =  -0.22889031434038132     
 F-T1(Ext) correlation         =   -2.3875254524500265E-007
 V-T1(Ext)-T1(Ext) correlation =    1.6450719792026771E-011
 V-T2(Ext) correlation         =    4.7385655495722217E-005
 Total Ext correlation         =    4.7146919401197006E-005
1-BODY TIME =   31.369 SECONDS.
  HHHH TIME =   24.897 SECONDS.
  PPPP TIME =   36.861 SECONDS.
  HHHP TIME =    2.436 SECONDS.
  PPPH TIME =    2.908 SECONDS.
  HPHP TIME =    4.478 SECONDS.
  HHPP TIME =    2.395 SECONDS.
 ONE-BODY UNITARY CHECK
 TWO-BODY UNITARY CHECK
 TWO-BODY ANTISYMMETRY CHECK
 TRANSFORMED ~FOCK~ MATRIX
    1    1        -0.2670506764
    1    3         0.0180940721
    1    6         0.0842613882
    1    7         0.0000000002
    1   10        -0.0375880742
    2    2        -0.1119184975
    2    7         0.0800149907
    2   10         0.0000000004
    3    1         0.0180940721
    3    3         0.5148392818
    3    6        -0.1082818780
    3    7         0.0000000007
    3   10        -0.2017919122
    4    4         0.5737968896
    5    5         0.5737968896
    6    1         0.0842613882
    6    3        -0.1082818780
    6    6         0.8768498027
    6    7        -0.0000000030
    6   10         0.3901026610
    7    1         0.0000000002
    7    2         0.0800149907
    7    3         0.0000000007
    7    6        -0.0000000030
    7    7         1.4222281827
    7   10        -0.0000000022
    8    8         1.3988681428
    9    9         1.3988681428
   10    1        -0.0375880742
   10    2         0.0000000004
   10    3        -0.2017919122
   10    6         0.3901026610
   10    7        -0.0000000022
   10   10         2.0615576360
 begin_one_electron_integrals
    1    1        -0.6468549353
    1    3         0.0233973903
    1    6        -0.0004642495
    1   10        -0.0005288974
    2    2        -0.6386002716
    2    7        -0.0015423606
    3    1         0.0233973903
    3    3        -0.0553070626
    3    6        -0.0937092204
    3    7         0.0000000004
    3   10        -0.1220223782
    4    4         0.0011159706
    5    5         0.0011159706
    6    1        -0.0004642495
    6    3        -0.0937092204
    6    6         0.2427762565
    6    7        -0.0000000027
    6   10         0.3790166689
    7    2        -0.0015423606
    7    3         0.0000000004
    7    6        -0.0000000027
    7    7         0.7067433100
    7   10        -0.0000000025
    8    8         0.6753759428
    9    9         0.6753759428
   10    1        -0.0005288974
   10    3        -0.1220223782
   10    6         0.3790166689
   10    7        -0.0000000025
   10   10         1.3688020469
 end_one_electron_integrals
 begin_two_electron_integrals
    1    1    1    1        0.3798042589
    1    1    1    3       -0.0053033183
    1    1    1    6        0.0847256377
    1    1    1    7        0.0000000002
    1    1    1   10       -0.0370591767
    1    2    1    2        0.2411645568
    1    2    1    7        0.0748823926
    1    2    1   10        0.0000000003
    1    3    1    1       -0.0053033183
    1    3    1    3        0.0408605078
    1    3    1    6       -0.0044793835
    1    3    1   10       -0.0141915693
    1    4    1    4        0.0403665350
    1    5    1    5        0.0403665350
    1    6    1    1        0.0847256377
    1    6    1    3       -0.0044793835
    1    6    1    6        0.0626451434
    1    6    1   10       -0.0198388180
    1    7    1    1        0.0000000002
    1    7    1    2        0.0748823926
    1    7    1    7        0.0672508960
    1    7    1   10        0.0000000002
    1    8    1    8        0.0580923365
    1    9    1    9        0.0580923365
    1   10    1    1       -0.0370591767
    1   10    1    2        0.0000000003
    1   10    1    3       -0.0141915693
    1   10    1    6       -0.0198388180
    1   10    1    7        0.0000000002
    1   10    1   10        0.0360071372
    1    1    2    2        0.3838941518
    1    1    2    7        0.0782939189
    1    1    2   10        0.0000000004
    1    2    2    1        0.2411065295
    1    2    2    3        0.0191457674
    1    2    2    6        0.0891452751
    1    2    2    7        0.0000000002
    1    2    2   10       -0.0399687929
    1    3    2    2       -0.0033041367
    1    3    2    7       -0.0070239211
    1    3    2   10       -0.0000000002
    1    4    2    8       -0.0431823512
    1    4    2    9        0.0174950492
    1    5    2    8       -0.0174950492
    1    5    2    9       -0.0431823512
    1    6    2    2        0.0875373550
    1    6    2    7        0.0650525920
    1    6    2   10        0.0000000003
    1    7    2    1        0.0750304866
    1    7    2    2        0.0000000002
    1    7    2    3       -0.0057448932
    1    7    2    6        0.0648164938
    1    7    2   10       -0.0206135270
    1    8    2    4       -0.0408900190
    1    8    2    5       -0.0165663257
    1    9    2    4        0.0165663257
    1    9    2    5       -0.0408900190
    1   10    2    1        0.0000000003
    1   10    2    2       -0.0389098491
    1   10    2    3       -0.0000000001
    1   10    2    6        0.0000000003
    1   10    2    7       -0.0202295339
    1    1    3    1       -0.0053033183
    1    1    3    3        0.3053468462
    1    1    3    6       -0.0095045791
    1    1    3    7        0.0000000002
    1    1    3   10       -0.0469812052
    1    2    3    2        0.0191491606
    1    2    3    3       -0.0000000004
    1    2    3    6       -0.0000000001
    1    2    3    7       -0.0216042404
    1    2    3   10       -0.0000000006
    1    3    3    1        0.0405473481
    1    3    3    3       -0.0226788243
    1    3    3    6       -0.0059237041
    1    3    3    7       -0.0000000001
    1    3    3   10        0.0327503797
    1    4    3    4       -0.0061368963
    1    5    3    5       -0.0061368963
    1    6    3    1       -0.0044365006
    1    6    3    3        0.0345990523
    1    6    3    6       -0.0120438285
    1    6    3    7        0.0000000001
    1    6    3   10       -0.0281594480
    1    7    3    2       -0.0057688426
    1    7    3    7       -0.0131285422
    1    8    3    8       -0.0102414059
    1    9    3    9       -0.0102414059
    1   10    3    1       -0.0141928764
    1   10    3    2       -0.0000000001
    1   10    3    3        0.0042286780
    1   10    3    6       -0.0059485592
    1   10    3   10       -0.0042274186
    1    1    4    4        0.3064561386
    1    2    4    8       -0.1521561324
    1    2    4    9        0.0616450692
    1    3    4    4       -0.0169756833
    1    4    4    1        0.0402313582
    1    4    4    3       -0.0061379731
    1    4    4    6       -0.0153098779
    1    4    4   10       -0.0044259988
    1    6    4    4        0.0323137817
    1    7    4    8       -0.0355295669
    1    7    4    9        0.0143945734
    1    8    4    2       -0.0409258469
    1    8    4    7        0.0109931963
    1    9    4    2        0.0165808412
    1    9    4    7       -0.0044538221
    1   10    4    4       -0.0142182077
    1   10    4    8       -0.0000000002
    1    1    5    5        0.3064561386
    1    2    5    8       -0.0616450692
    1    2    5    9       -0.1521561324
    1    3    5    5       -0.0169756833
    1    5    5    1        0.0402313582
    1    5    5    3       -0.0061379731
    1    5    5    6       -0.0153098779
    1    5    5   10       -0.0044259988
    1    6    5    5        0.0323137817
    1    7    5    8       -0.0143945734
    1    7    5    9       -0.0355295669
    1    8    5    2       -0.0165808412
    1    8    5    7        0.0044538221
    1    9    5    2       -0.0409258469
    1    9    5    7        0.0109931963
    1   10    5    5       -0.0142182077
    1   10    5    9       -0.0000000002
    1    1    6    1        0.0847256377
    1    1    6    3       -0.0095045791
    1    1    6    6        0.3483585102
    1    1    6    7       -0.0000000002
    1    1    6   10       -0.0044004444
    1    2    6    2        0.0891428183
    1    2    6    3       -0.0000000001
    1    2    6    7        0.2079719779
    1    2    6   10        0.0000000011
    1    3    6    1       -0.0044365006
    1    3    6    3       -0.0059238750
    1    3    6    6       -0.0271192040
    1    3    6    7        0.0000000001
    1    3    6   10       -0.0283631881
    1    4    6    4       -0.0153115321
    1    5    6    5       -0.0153115321
    1    6    6    1        0.0626434742
    1    6    6    3       -0.0120470068
    1    6    6    6        0.0801544966
    1    6    6   10       -0.0078059890
    1    7    6    2        0.0648231289
    1    7    6    7        0.0860924148
    1    7    6   10        0.0000000004
    1    8    6    8        0.0162187282
    1    9    6    9        0.0162187282
    1   10    6    1       -0.0198868809
    1   10    6    2        0.0000000003
    1   10    6    3       -0.0059478074
    1   10    6    6       -0.0240132751
    1   10    6    7        0.0000000003
    1   10    6   10        0.0277730565
    1    1    7    1        0.0000000002
    1    1    7    2        0.0782939189
    1    1    7    3        0.0000000002
    1    1    7    6       -0.0000000002
    1    1    7    7        0.3913317033
    1    1    7   10        0.0000000003
    1    2    7    1        0.0750304866
    1    2    7    2        0.0000000002
    1    2    7    3       -0.0216199506
    1    2    7    6        0.2079743666
    1    2    7    7       -0.0000000003
    1    2    7   10       -0.0216311586
    1    3    7    2       -0.0070635455
    1    3    7    3       -0.0000000001
    1    3    7    6        0.0000000001
    1    3    7    7       -0.0298491328
    1    4    7    8        0.0003013105
    1    4    7    9       -0.0001220740
    1    5    7    8        0.0001220740
    1    5    7    9        0.0003013105
    1    6    7    2        0.0650616029
    1    6    7    3        0.0000000001
    1    6    7    7        0.1060053662
    1    6    7   10        0.0000000002
    1    7    7    1        0.0671785339
    1    7    7    3       -0.0131192178
    1    7    7    6        0.0860994949
    1    7    7   10       -0.0133567419
    1    8    7    4        0.0110040184
    1    8    7    5        0.0044582066
    1    9    7    4       -0.0044582066
    1    9    7    5        0.0110040184
    1   10    7    1        0.0000000002
    1   10    7    2       -0.0202087795
    1   10    7    6        0.0000000003
    1   10    7    7       -0.0331895525
    1   10    7   10       -0.0000000001
    1    1    8    8        0.3912589325
    1    2    8    4       -0.1521593744
    1    2    8    5       -0.0616463826
    1    3    8    8       -0.0272487506
    1    4    8    2       -0.0432213937
    1    4    8    7        0.0003091893
    1    5    8    2       -0.0175108670
    1    5    8    7        0.0001252660
    1    6    8    8        0.0849298461
    1    7    8    4       -0.0355108769
    1    7    8    5       -0.0143870012
    1    7    8    8        0.0000000001
    1    8    8    1        0.0590256651
    1    8    8    3       -0.0102378406
    1    8    8    6        0.0162016903
    1    8    8   10       -0.0124697032
    1   10    8    4       -0.0000000002
    1   10    8    8       -0.0301860923
    1    1    9    9        0.3912589325
    1    2    9    4        0.0616463826
    1    2    9    5       -0.1521593744
    1    3    9    9       -0.0272487506
    1    4    9    2        0.0175108670
    1    4    9    7       -0.0001252660
    1    5    9    2       -0.0432213937
    1    5    9    7        0.0003091893
    1    6    9    9        0.0849298461
    1    7    9    4        0.0143870012
    1    7    9    5       -0.0355108769
    1    7    9    9        0.0000000001
    1    9    9    1        0.0590256651
    1    9    9    3       -0.0102378406
    1    9    9    6        0.0162016903
    1    9    9   10       -0.0124697032
    1   10    9    5       -0.0000000002
    1   10    9    9       -0.0301860923
    1    1   10    1       -0.0370591767
    1    1   10    2        0.0000000004
    1    1   10    3       -0.0469812052
    1    1   10    6       -0.0044004444
    1    1   10    7        0.0000000003
    1    1   10   10        0.3643555877
    1    2   10    1        0.0000000003
    1    2   10    2       -0.0399773980
    1    2   10    3       -0.0000000006
    1    2   10    6        0.0000000011
    1    2   10    7       -0.0216387577
    1    2   10   10        0.0000000001
    1    3   10    1       -0.0141928764
    1    3   10    2       -0.0000000002
    1    3   10    3        0.0327486599
    1    3   10    6       -0.0283636866
    1    3   10   10       -0.0260568596
    1    4   10    4       -0.0044261980
    1    5   10    5       -0.0044261980
    1    6   10    1       -0.0198868809
    1    6   10    2        0.0000000003
    1    6   10    3       -0.0281591947
    1    6   10    6       -0.0078057707
    1    6   10    7        0.0000000002
    1    6   10   10        0.0829283577
    1    7   10    1        0.0000000002
    1    7   10    2       -0.0206003704
    1    7   10    6        0.0000000004
    1    7   10    7       -0.0133480226
    1    7   10   10        0.0000000001
    1    8   10    8       -0.0124758591
    1    9   10    9       -0.0124758591
    1   10   10    1        0.0359555862
    1   10   10    3       -0.0042285223
    1   10   10    6        0.0277729290
    1   10   10    7       -0.0000000001
    1   10   10   10       -0.0040841039
    2    1    1    2        0.2411065295
    2    1    1    7        0.0750304866
    2    1    1   10        0.0000000003
    2    2    1    1        0.3838941518
    2    2    1    3       -0.0033041367
    2    2    1    6        0.0875373550
    2    2    1    7        0.0000000002
    2    2    1   10       -0.0389098491
    2    3    1    2        0.0191457674
    2    3    1    7       -0.0057448932
    2    3    1   10       -0.0000000001
    2    4    1    8       -0.0408900190
    2    4    1    9        0.0165663257
    2    5    1    8       -0.0165663257
    2    5    1    9       -0.0408900190
    2    6    1    2        0.0891452751
    2    6    1    7        0.0648164938
    2    6    1   10        0.0000000003
    2    7    1    1        0.0782939189
    2    7    1    2        0.0000000002
    2    7    1    3       -0.0070239211
    2    7    1    6        0.0650525920
    2    7    1   10       -0.0202295339
    2    8    1    4       -0.0431823512
    2    8    1    5       -0.0174950492
    2    9    1    4        0.0174950492
    2    9    1    5       -0.0431823512
    2   10    1    1        0.0000000004
    2   10    1    2       -0.0399687929
    2   10    1    3       -0.0000000002
    2   10    1    6        0.0000000003
    2   10    1    7       -0.0206135270
    2    1    2    1        0.2411645568
    2    1    2    3        0.0191491606
    2    1    2    6        0.0891428183
    2    1    2    7        0.0000000002
    2    1    2   10       -0.0399773980
    2    2    2    2        0.3883923049
    2    2    2    7        0.0808639897
    2    2    2   10        0.0000000004
    2    3    2    1        0.0191491606
    2    3    2    3        0.0339084744
    2    3    2    6       -0.0040527765
    2    3    2   10       -0.0138994272
    2    4    2    4        0.0376215702
    2    5    2    5        0.0376215702
    2    6    2    1        0.0891428183
    2    6    2    3       -0.0040527765
    2    6    2    6        0.0652675538
    2    6    2   10       -0.0212056411
    2    7    2    1        0.0000000002
    2    7    2    2        0.0808639897
    2    7    2    7        0.0699820627
    2    7    2   10        0.0000000002
    2    8    2    8        0.0622853573
    2    9    2    9        0.0622853573
    2   10    2    1       -0.0399773980
    2   10    2    2        0.0000000004
    2   10    2    3       -0.0138994272
    2   10    2    6       -0.0212056411
    2   10    2    7        0.0000000002
    2   10    2   10        0.0369621875
    2    1    3    2        0.0191457674
    2    1    3    3       -0.0000000004
    2    1    3    6       -0.0000000001
    2    1    3    7       -0.0216199506
    2    1    3   10       -0.0000000006
    2    2    3    1       -0.0033041367
    2    2    3    3        0.3055544377
    2    2    3    6       -0.0107729090
    2    2    3    7        0.0000000002
    2    2    3   10       -0.0467824800
    2    3    3    2        0.0339084754
    2    3    3    7       -0.0068355719
    2    3    3   10       -0.0000000001
    2    4    3    8        0.0069280658
    2    4    3    9       -0.0028068609
    2    5    3    8        0.0028068609
    2    5    3    9        0.0069280658
    2    6    3    2       -0.0040527767
    2    6    3    7       -0.0126586905
    2    6    3   10       -0.0000000002
    2    7    3    1       -0.0070635455
    2    7    3    3        0.0276587995
    2    7    3    6       -0.0119072586
    2    7    3    7        0.0000000002
    2    7    3   10       -0.0274282109
    2    8    3    4        0.0073167617
    2    8    3    5        0.0029643385
    2    9    3    4       -0.0029643385
    2    9    3    5        0.0073167617
    2   10    3    1       -0.0000000002
    2   10    3    2       -0.0138994276
    2   10    3    3        0.0000000002
    2   10    3    7       -0.0019923013
    2   10    3   10       -0.0000000003
    2    1    4    8       -0.1521593744
    2    1    4    9        0.0616463826
    2    2    4    4        0.3078901806
    2    3    4    8        0.0001328375
    2    3    4    9       -0.0000538183
    2    4    4    2        0.0376215706
    2    4    4    7       -0.0170384416
    2    6    4    8       -0.0464336281
    2    6    4    9        0.0188122829
    2    7    4    4        0.0253278812
    2    8    4    1       -0.0432213937
    2    8    4    3        0.0073167625
    2    8    4    6        0.0078834397
    2    8    4   10        0.0063054920
    2    9    4    1        0.0175108670
    2    9    4    3       -0.0029643388
    2    9    4    6       -0.0031939244
    2    9    4   10       -0.0025546292
    2   10    4    4        0.0000000002
    2   10    4    8        0.0178854938
    2   10    4    9       -0.0072461917
    2    1    5    8       -0.0616463826
    2    1    5    9       -0.1521593744
    2    2    5    5        0.3078901806
    2    3    5    8        0.0000538183
    2    3    5    9        0.0001328375
    2    5    5    2        0.0376215706
    2    5    5    7       -0.0170384416
    2    6    5    8       -0.0188122829
    2    6    5    9       -0.0464336281
    2    7    5    5        0.0253278812
    2    8    5    1       -0.0175108670
    2    8    5    3        0.0029643388
    2    8    5    6        0.0031939244
    2    8    5   10        0.0025546292
    2    9    5    1       -0.0432213937
    2    9    5    3        0.0073167625
    2    9    5    6        0.0078834397
    2    9    5   10        0.0063054920
    2   10    5    5        0.0000000002
    2   10    5    8        0.0072461917
    2   10    5    9        0.0178854938
    2    1    6    2        0.0891452751
    2    1    6    3       -0.0000000001
    2    1    6    7        0.2079743666
    2    1    6   10        0.0000000011
    2    2    6    1        0.0875373550
    2    2    6    3       -0.0107729090
    2    2    6    6        0.3507677911
    2    2    6    7       -0.0000000002
    2    2    6   10       -0.0061450731
    2    3    6    2       -0.0040527767
    2    3    6    7       -0.0028356172
    2    4    6    8       -0.0059140979
    2    4    6    9        0.0023960584
    2    5    6    8       -0.0023960584
    2    5    6    9       -0.0059140979
    2    6    6    2        0.0652675543
    2    6    6    7        0.0932981630
    2    6    6   10        0.0000000005
    2    7    6    1        0.0650616029
    2    7    6    3       -0.0119072589
    2    7    6    6        0.0800812955
    2    7    6   10       -0.0087750031
    2    8    6    4        0.0078834390
    2    8    6    5        0.0031939241
    2    9    6    4       -0.0031939241
    2    9    6    5        0.0078834390
    2   10    6    1        0.0000000003
    2   10    6    2       -0.0212056410
    2   10    6    6        0.0000000005
    2   10    6    7       -0.0298712500
    2    1    7    1        0.0748823926
    2    1    7    2        0.0000000002
    2    1    7    3       -0.0216042404
    2    1    7    6        0.2079719779
    2    1    7    7       -0.0000000003
    2    1    7   10       -0.0216387577
    2    2    7    1        0.0000000002
    2    2    7    2        0.0808639897
    2    2    7    3        0.0000000002
    2    2    7    6       -0.0000000002
    2    2    7    7        0.3950366366
    2    2    7   10        0.0000000003
    2    3    7    1       -0.0057688426
    2    3    7    3       -0.0068355695
    2    3    7    6       -0.0028356172
    2    3    7    7        0.0000000002
    2    3    7   10       -0.0192486107
    2    4    7    4       -0.0170384407
    2    5    7    5       -0.0170384407
    2    6    7    1        0.0648231289
    2    6    7    3       -0.0126586907
    2    6    7    6        0.0932981636
    2    6    7   10       -0.0126298084
    2    7    7    2        0.0699820656
    2    7    7    3        0.0000000002
    2    7    7    7        0.1068480725
    2    7    7   10        0.0000000001
    2    8    7    8        0.0094807914
    2    9    7    9        0.0094807914
    2   10    7    1       -0.0206003704
    2   10    7    2        0.0000000002
    2   10    7    3       -0.0019923025
    2   10    7    6       -0.0298712493
    2   10    7    7        0.0000000004
    2   10    7   10        0.0262694219
    2    1    8    4       -0.1521561324
    2    1    8    5       -0.0616450692
    2    2    8    8        0.3949027975
    2    3    8    4        0.0001328381
    2    3    8    5        0.0000538185
    2    4    8    1       -0.0409258469
    2    4    8    3        0.0069280671
    2    4    8    6       -0.0059140974
    2    4    8   10        0.0083314329
    2    5    8    1       -0.0165808412
    2    5    8    3        0.0028068614
    2    5    8    6       -0.0023960582
    2    5    8   10        0.0033754259
    2    6    8    4       -0.0464336283
    2    6    8    5       -0.0188122830
    2    7    8    8        0.0772851419
    2    8    8    2        0.0622853631
    2    8    8    7        0.0094807891
    2    8    8   10        0.0000000001
    2   10    8    4        0.0178854940
    2   10    8    5        0.0072461918
    2   10    8    8        0.0000000005
    2    1    9    4        0.0616450692
    2    1    9    5       -0.1521561324
    2    2    9    9        0.3949027975
    2    3    9    4       -0.0000538185
    2    3    9    5        0.0001328381
    2    4    9    1        0.0165808412
    2    4    9    3       -0.0028068614
    2    4    9    6        0.0023960582
    2    4    9   10       -0.0033754259
    2    5    9    1       -0.0409258469
    2    5    9    3        0.0069280671
    2    5    9    6       -0.0059140974
    2    5    9   10        0.0083314329
    2    6    9    4        0.0188122830
    2    6    9    5       -0.0464336283
    2    7    9    9        0.0772851419
    2    9    9    2        0.0622853631
    2    9    9    7        0.0094807891
    2    9    9   10        0.0000000001
    2   10    9    4       -0.0072461918
    2   10    9    5        0.0178854940
    2   10    9    9        0.0000000005
    2    1   10    1        0.0000000003
    2    1   10    2       -0.0399687929
    2    1   10    3       -0.0000000006
    2    1   10    6        0.0000000011
    2    1   10    7       -0.0216311586
    2    1   10   10        0.0000000001
    2    2   10    1       -0.0389098491
    2    2   10    2        0.0000000004
    2    2   10    3       -0.0467824800
    2    2   10    6       -0.0061450731
    2    2   10    7        0.0000000003
    2    2   10   10        0.3670768515
    2    3   10    1       -0.0000000001
    2    3   10    2       -0.0138994276
    2    3   10    3       -0.0000000001
    2    3   10    7       -0.0192486083
    2    3   10   10       -0.0000000003
    2    4   10    8        0.0083314352
    2    4   10    9       -0.0033754269
    2    5   10    8        0.0033754269
    2    5   10    9        0.0083314352
    2    6   10    1        0.0000000003
    2    6   10    2       -0.0212056410
    2    6   10    3       -0.0000000002
    2    6   10    6        0.0000000005
    2    6   10    7       -0.0126298093
    2    6   10   10        0.0000000002
    2    7   10    1       -0.0202087795
    2    7   10    2        0.0000000002
    2    7   10    3       -0.0274282097
    2    7   10    6       -0.0087750032
    2    7   10    7        0.0000000001
    2    7   10   10        0.0766463586
    2    8   10    4        0.0063054946
    2    8   10    5        0.0025546302
    2    8   10    8        0.0000000001
    2    9   10    4       -0.0025546302
    2    9   10    5        0.0063054946
    2    9   10    9        0.0000000001
[...]
    9    5    8    4        0.0994744059
    9    5    8    5        0.0448018602
    9    8    8    9        0.0220411748
    9    9    8    8        0.4088812432
    9    1    9    1        0.0580923365
    9    1    9    3       -0.0102414059
    9    1    9    6        0.0162187282
    9    1    9   10       -0.0124758591
    9    2    9    2        0.0622853573
    9    2    9    7        0.0094807914
    9    2    9   10        0.0000000001
    9    3    9    1       -0.0102414059
    9    3    9    3        0.0114925431
    9    3    9    6       -0.0041978795
    9    3    9   10       -0.0069466321
    9    4    9    4        0.0292594681
    9    4    9    5       -0.0448018602
    9    5    9    4       -0.0448018602
    9    5    9    5        0.1216909787
    9    6    9    1        0.0162187282
    9    6    9    3       -0.0041978795
    9    6    9    6        0.0148468298
    9    6    9   10       -0.0011416508
    9    7    9    2        0.0094807914
    9    7    9    7        0.0172930312
    9    8    9    8        0.0220411910
    9    9    9    9        0.4529636089
    9   10    9    1       -0.0124758591
    9   10    9    2        0.0000000001
    9   10    9    3       -0.0069466321
    9   10    9    6       -0.0011416508
    9   10    9   10        0.0157253980
    9    1   10    9       -0.0124697032
    9    2   10    4       -0.0025546292
    9    2   10    5        0.0063054920
    9    2   10    9        0.0000000001
    9    3   10    9       -0.0069466310
    9    4   10    2       -0.0072461917
    9    4   10    3       -0.0000000002
    9    4   10    6        0.0000000003
    9    4   10    7       -0.0004826096
    9    5   10    1       -0.0000000002
    9    5   10    2        0.0178854938
    9    5   10    3        0.0000000004
    9    5   10    6       -0.0000000007
    9    5   10    7        0.0011912066
    9    5   10   10       -0.0000000002
    9    6   10    9       -0.0011416507
    9    7   10    4        0.0002003523
    9    7   10    5       -0.0004945218
    9    9   10    1       -0.0301860923
    9    9   10    2        0.0000000005
    9    9   10    3       -0.0648607188
    9    9   10    6        0.0141483902
    9    9   10    7        0.0000000002
    9    9   10   10        0.3799807428
    9   10   10    9        0.0157253999
   10    1    1    1       -0.0370591767
   10    1    1    2        0.0000000003
   10    1    1    3       -0.0141928764
   10    1    1    6       -0.0198868809
   10    1    1    7        0.0000000002
   10    1    1   10        0.0359555862
   10    2    1    1        0.0000000004
   10    2    1    2       -0.0399773980
   10    2    1    3       -0.0000000002
   10    2    1    6        0.0000000003
   10    2    1    7       -0.0206003704
   10    3    1    1       -0.0469812052
   10    3    1    2       -0.0000000006
   10    3    1    3        0.0327486599
   10    3    1    6       -0.0281591947
   10    3    1   10       -0.0042285223
   10    4    1    4       -0.0044261980
   10    5    1    5       -0.0044261980
   10    6    1    1       -0.0044004444
   10    6    1    2        0.0000000011
   10    6    1    3       -0.0283636866
   10    6    1    6       -0.0078057707
   10    6    1    7        0.0000000004
   10    6    1   10        0.0277729290
   10    7    1    1        0.0000000003
   10    7    1    2       -0.0216387577
   10    7    1    6        0.0000000002
   10    7    1    7       -0.0133480226
   10    7    1   10       -0.0000000001
   10    8    1    8       -0.0124758591
   10    9    1    9       -0.0124758591
   10   10    1    1        0.3643555877
   10   10    1    2        0.0000000001
   10   10    1    3       -0.0260568596
   10   10    1    6        0.0829283577
   10   10    1    7        0.0000000001
   10   10    1   10       -0.0040841039
   10    1    2    1        0.0000000003
   10    1    2    2       -0.0389098491
   10    1    2    3       -0.0000000001
   10    1    2    6        0.0000000003
   10    1    2    7       -0.0202087795
   10    2    2    1       -0.0399687929
   10    2    2    2        0.0000000004
   10    2    2    3       -0.0138994276
   10    2    2    6       -0.0212056410
   10    2    2    7        0.0000000002
   10    2    2   10        0.0369621888
   10    3    2    1       -0.0000000006
   10    3    2    2       -0.0467824800
   10    3    2    3       -0.0000000001
   10    3    2    6       -0.0000000002
   10    3    2    7       -0.0274282097
   10    3    2   10       -0.0000000003
   10    4    2    8        0.0063054946
   10    4    2    9       -0.0025546302
   10    5    2    8        0.0025546302
   10    5    2    9        0.0063054946
   10    6    2    1        0.0000000011
   10    6    2    2       -0.0061450731
   10    6    2    6        0.0000000005
   10    6    2    7       -0.0087750032
   10    7    2    1       -0.0216311586
   10    7    2    2        0.0000000003
   10    7    2    3       -0.0192486083
   10    7    2    6       -0.0126298093
   10    7    2    7        0.0000000001
   10    7    2   10        0.0262694201
   10    8    2    4        0.0083314352
   10    8    2    5        0.0033754269
   10    8    2    8        0.0000000001
   10    9    2    4       -0.0033754269
   10    9    2    5        0.0083314352
   10    9    2    9        0.0000000001
   10   10    2    1        0.0000000001
   10   10    2    2        0.3670768515
   10   10    2    3       -0.0000000003
   10   10    2    6        0.0000000002
   10   10    2    7        0.0766463586
   10   10    2   10        0.0000000007
   10    1    3    1       -0.0141915693
   10    1    3    2       -0.0000000001
   10    1    3    3        0.0042286780
   10    1    3    6       -0.0059478074
   10    1    3   10       -0.0042285223
   10    2    3    1       -0.0000000002
   10    2    3    2       -0.0138994272
   10    2    3    3        0.0000000002
   10    2    3    7       -0.0019923025
   10    2    3   10       -0.0000000003
   10    3    3    1        0.0327503797
   10    3    3    2       -0.0000000001
   10    3    3    3       -0.0384311946
   10    3    3    6        0.0029133814
   10    3    3    7       -0.0000000001
   10    3    3   10        0.0496401619
   10    4    3    4       -0.0009396674
   10    5    3    5       -0.0009396674
   10    6    3    1       -0.0283631881
   10    6    3    3        0.0223458332
   10    6    3    6       -0.0027992664
   10    6    3   10       -0.0253162596
   10    7    3    2       -0.0192486107
   10    7    3    7       -0.0021002510
   10    8    3    8       -0.0069466321
   10    9    3    9       -0.0069466321
   10   10    3    1       -0.0260568596
   10   10    3    2       -0.0000000003
   10   10    3    3        0.3267197453
   10   10    3    6       -0.0172148361
   10   10    3    7        0.0000000003
   10   10    3   10       -0.0687147639
   10    1    4    4       -0.0142182077
   10    1    4    8       -0.0000000002
   10    2    4    4        0.0000000002
   10    2    4    8        0.0178854940
   10    2    4    9       -0.0072461918
   10    3    4    4       -0.0341505239
   10    3    4    8        0.0000000004
   10    3    4    9       -0.0000000002
   10    4    4    1       -0.0044259988
   10    4    4    3       -0.0009396674
   10    4    4    6        0.0017930120
   10    4    4   10        0.0066094889
   10    6    4    4        0.0133608811
   10    6    4    8       -0.0000000007
   10    6    4    9        0.0000000003
   10    7    4    4        0.0000000001
   10    7    4    8        0.0011912055
   10    7    4    9       -0.0004826092
   10    8    4    2        0.0083314329
   10    8    4    7       -0.0028603475
   10    9    4    2       -0.0033754259
   10    9    4    7        0.0011588512
   10   10    4    4        0.2987811594
   10   10    4    8       -0.0000000002
   10    1    5    5       -0.0142182077
   10    1    5    9       -0.0000000002
   10    2    5    5        0.0000000002
   10    2    5    8        0.0072461918
   10    2    5    9        0.0178854940
   10    3    5    5       -0.0341505239
   10    3    5    8        0.0000000002
   10    3    5    9        0.0000000004
   10    5    5    1       -0.0044259988
   10    5    5    3       -0.0009396674
   10    5    5    6        0.0017930120
   10    5    5   10        0.0066094889
   10    6    5    5        0.0133608811
   10    6    5    8       -0.0000000003
   10    6    5    9       -0.0000000007
   10    7    5    5        0.0000000001
   10    7    5    8        0.0004826092
   10    7    5    9        0.0011912055
   10    8    5    2        0.0033754259
   10    8    5    7       -0.0011588512
   10    9    5    2        0.0083314329
   10    9    5    7       -0.0028603475
   10   10    5    5        0.2987811594
   10   10    5    9       -0.0000000002
   10    1    6    1       -0.0198388180
   10    1    6    2        0.0000000003
   10    1    6    3       -0.0059485592
   10    1    6    6       -0.0240132751
   10    1    6    7        0.0000000003
   10    1    6   10        0.0277729290
   10    2    6    1        0.0000000003
   10    2    6    2       -0.0212056411
   10    2    6    6        0.0000000005
   10    2    6    7       -0.0298712493
   10    3    6    1       -0.0281594480
   10    3    6    2       -0.0000000002
   10    3    6    3        0.0029133815
   10    3    6    6       -0.0552327805
   10    3    6    7       -0.0000000003
   10    3    6   10       -0.0253162596
   10    4    6    4        0.0017930121
   10    5    6    5        0.0017930121
   10    6    6    1       -0.0078059890
   10    6    6    2        0.0000000005
   10    6    6    3       -0.0027992664
   10    6    6    6        0.0100260825
   10    6    6    7        0.0000000009
   10    6    6   10        0.0375606454
   10    7    6    1        0.0000000002
   10    7    6    2       -0.0126298084
   10    7    6    6        0.0000000003
   10    7    6    7       -0.0116922588
   10    7    6   10       -0.0000000001
   10    8    6    8       -0.0011416508
   10    9    6    9       -0.0011416508
   10   10    6    1        0.0829283577
   10   10    6    2        0.0000000002
   10   10    6    3       -0.0172148361
   10   10    6    6        0.3482994409
   10   10    6   10        0.0254101969
   10    1    7    1        0.0000000002
   10    1    7    2       -0.0202295339
   10    1    7    6        0.0000000003
   10    1    7    7       -0.0331895525
   10    1    7   10       -0.0000000001
   10    2    7    1       -0.0206135270
   10    2    7    2        0.0000000002
   10    2    7    3       -0.0019923013
   10    2    7    6       -0.0298712500
   10    2    7    7        0.0000000004
   10    2    7   10        0.0262694201
   10    3    7    2       -0.0274282109
   10    3    7    3       -0.0000000001
   10    3    7    6       -0.0000000003
   10    3    7    7       -0.0658229895
   10    4    7    8       -0.0004945235
   10    4    7    9        0.0002003530
   10    5    7    8       -0.0002003530
   10    5    7    9       -0.0004945235
   10    6    7    1        0.0000000004
   10    6    7    2       -0.0087750031
   10    6    7    6        0.0000000009
   10    6    7    7        0.0070937911
   10    6    7   10       -0.0000000001
   10    7    7    1       -0.0133567419
   10    7    7    2        0.0000000001
   10    7    7    3       -0.0021002538
   10    7    7    6       -0.0116922577
   10    7    7    7        0.0000000002
   10    7    7   10        0.0309893032
   10    8    7    4       -0.0028603481
   10    8    7    5       -0.0011588514
   10    9    7    4        0.0011588514
   10    9    7    5       -0.0028603481
   10   10    7    1        0.0000000001
   10   10    7    2        0.0766463586
   10   10    7    3        0.0000000003
   10   10    7    7        0.3859955002
   10   10    7   10        0.0000000005
   10    1    8    4       -0.0000000002
   10    1    8    8       -0.0301860923
   10    2    8    4        0.0178854938
   10    2    8    5        0.0072461917
   10    2    8    8        0.0000000005
   10    3    8    4        0.0000000004
   10    3    8    5        0.0000000002
   10    3    8    8       -0.0648607188
   10    4    8    2        0.0063054920
   10    4    8    7       -0.0004945218
   10    5    8    2        0.0025546292
   10    5    8    7       -0.0002003523
   10    6    8    4       -0.0000000007
   10    6    8    5       -0.0000000003
   10    6    8    8        0.0141483902
   10    7    8    4        0.0011912066
   10    7    8    5        0.0004826096
   10    7    8    8        0.0000000002
   10    8    8    1       -0.0124697032
   10    8    8    2        0.0000000001
   10    8    8    3       -0.0069466310
   10    8    8    6       -0.0011416507
   10    8    8   10        0.0157253999
   10   10    8    4       -0.0000000002
   10   10    8    8        0.3799807428
   10    1    9    5       -0.0000000002
   10    1    9    9       -0.0301860923
   10    2    9    4       -0.0072461917
   10    2    9    5        0.0178854938
   10    2    9    9        0.0000000005
   10    3    9    4       -0.0000000002
   10    3    9    5        0.0000000004
   10    3    9    9       -0.0648607188
   10    4    9    2       -0.0025546292
   10    4    9    7        0.0002003523
   10    5    9    2        0.0063054920
   10    5    9    7       -0.0004945218
   10    6    9    4        0.0000000003
   10    6    9    5       -0.0000000007
   10    6    9    9        0.0141483902
   10    7    9    4       -0.0004826096
   10    7    9    5        0.0011912066
   10    7    9    9        0.0000000002
   10    9    9    1       -0.0124697032
   10    9    9    2        0.0000000001
   10    9    9    3       -0.0069466310
   10    9    9    6       -0.0011416507
   10    9    9   10        0.0157253999
   10   10    9    5       -0.0000000002
   10   10    9    9        0.3799807428
   10    1   10    1        0.0360071372
   10    1   10    3       -0.0042274186
   10    1   10    6        0.0277730565
   10    1   10    7       -0.0000000001
   10    1   10   10       -0.0040841039
   10    2   10    2        0.0369621875
   10    2   10    3       -0.0000000003
   10    2   10    7        0.0262694219
   10    2   10   10        0.0000000007
   10    3   10    1       -0.0042274186
   10    3   10    2       -0.0000000003
   10    3   10    3        0.0496401619
   10    3   10    6       -0.0253162596
   10    3   10   10       -0.0687147639
   10    4   10    4        0.0066094888
   10    5   10    5        0.0066094888
   10    6   10    1        0.0277730565
   10    6   10    3       -0.0253162596
   10    6   10    6        0.0375606454
   10    6   10    7       -0.0000000001
   10    6   10   10        0.0254101969
   10    7   10    1       -0.0000000001
   10    7   10    2        0.0262694219
   10    7   10    6       -0.0000000001
   10    7   10    7        0.0309892981
   10    7   10   10        0.0000000005
   10    8   10    8        0.0157253980
   10    9   10    9        0.0157253980
   10   10   10    1       -0.0040841039
   10   10   10    2        0.0000000007
   10   10   10    3       -0.0687147639
   10   10   10    6        0.0254101969
   10   10   10    7        0.0000000005
   10   10   10   10        0.4005647381
 end_two_electron_integrals

 Parallel integral file used       9 records with       0 large values


 Task  times  cpu:      140.1s     wall:      142.6s


                                NWChem Input Module
                                -------------------


 Summary of allocated global arrays
-----------------------------------
  No active global arrays


MA_summarize_allocated_blocks: starting scan ...
MA_summarize_allocated_blocks: scan completed: 0 heap blocks, 0 stack blocks
MA usage statistics:

	allocation statistics:
					      heap	     stack
					      ----	     -----
	current number of blocks	         0	         0
	maximum number of blocks	        18	        42
	current total bytes		         0	         0
	maximum total bytes		  51983048	9994007128
	maximum total K-bytes		     51984	   9994008
	maximum total M-bytes		        52	      9995


                                     CITATION
                                     --------
                Please cite the following reference when publishing
                           results obtained with NWChem:

          E. Apra, E. J. Bylaska, W. A. de Jong, N. Govind, K. Kowalski,
       T. P. Straatsma, M. Valiev, H. J. J. van Dam, Y. Alexeev, J. Anchell,
       V. Anisimov, F. W. Aquino, R. Atta-Fynn, J. Autschbach, N. P. Bauman,
     J. C. Becca, D. E. Bernholdt, K. Bhaskaran-Nair, S. Bogatko, P. Borowski,
         J. Boschen, J. Brabec, A. Bruner, E. Cauet, Y. Chen, G. N. Chuev,
      C. J. Cramer, J. Daily, M. J. O. Deegan, T. H. Dunning Jr., M. Dupuis,
   K. G. Dyall, G. I. Fann, S. A. Fischer, A. Fonari, H. Fruchtl, L. Gagliardi,
      J. Garza, N. Gawande, S. Ghosh, K. Glaesemann, A. W. Gotz, J. Hammond,
       V. Helms, E. D. Hermes, K. Hirao, S. Hirata, M. Jacquelin, L. Jensen,
   B. G. Johnson, H. Jonsson, R. A. Kendall, M. Klemm, R. Kobayashi, V. Konkov,
      S. Krishnamoorthy, M. Krishnan, Z. Lin, R. D. Lins, R. J. Littlefield,
      A. J. Logsdail, K. Lopata, W. Ma, A. V. Marenich, J. Martin del Campo,
   D. Mejia-Rodriguez, J. E. Moore, J. M. Mullin, T. Nakajima, D. R. Nascimento,
    J. A. Nichols, P. J. Nichols, J. Nieplocha, A. Otero-de-la-Roza, B. Palmer,
    A. Panyala, T. Pirojsirikul, B. Peng, R. Peverati, J. Pittner, L. Pollack,
   R. M. Richard, P. Sadayappan, G. C. Schatz, W. A. Shelton, D. W. Silverstein,
   D. M. A. Smith, T. A. Soares, D. Song, M. Swart, H. L. Taylor, G. S. Thomas,
            V. Tipparaju, D. G. Truhlar, K. Tsemekhman, T. Van Voorhis,
      A. Vazquez-Mayagoitia, P. Verma, O. Villa, A. Vishnu, K. D. Vogiatzis,
        D. Wang, J. H. Weare, M. J. Williamson, T. L. Windus, K. Wolinski,
        A. T. Wong, Q. Wu, C. Yang, Q. Yu, M. Zacharias, Z. Zhang, Y. Zhao,
                                and R. J. Harrison
                        "NWChem: Past, present, and future
                         J. Chem. Phys. 152, 184102 (2020)
                               doi:10.1063/5.0004997

                                      AUTHORS
                                      -------
  E. Apra, E. J. Bylaska, N. Govind, K. Kowalski, M. Valiev, D. Mejia-Rodriguez,
       A. Kunitsa, N. P. Bauman, A. Panyala, W. A. de Jong, T. P. Straatsma,
        H. J. J. van Dam, D. Wang, T. L. Windus, J. Hammond, J. Autschbach,
    K. Bhaskaran-Nair, J. Brabec, K. Lopata, S. A. Fischer, S. Krishnamoorthy,
     M. Jacquelin, W. Ma, M. Klemm, O. Villa, Y. Chen, V. Anisimov, F. Aquino,
    S. Hirata, M. T. Hackler, Eric Hermes, L. Jensen, J. E. Moore, J. C. Becca,
      V. Konjkov, T. Risthaus, M. Malagoli, A. Marenich, A. Otero-de-la-Roza,
        J. Mullin, P. Nichols, R. Peverati, J. Pittner, Y. Zhao, P.-D. Fan,
        A. Fonari, M. J. Williamson, R. J. Harrison, J. R. Rehr, M. Dupuis,
     D. Silverstein, D. M. A. Smith, J. Nieplocha, V. Tipparaju, M. Krishnan,
     B. E. Van Kuiken, A. Vazquez-Mayagoitia, M. Swart, Q. Wu, T. Van Voorhis,
     A. A. Auer, M. Nooijen, L. D. Crosby, E. Brown, G. Cisneros, G. I. Fann,
   H. Fruchtl, J. Garza, K. Hirao, R. A. Kendall, J. A. Nichols, K. Tsemekhman,
    K. Wolinski, J. Anchell, D. E. Bernholdt, P. Borowski, T. Clark, D. Clerc,
   H. Dachsel, M. J. O. Deegan, K. Dyall, D. Elwood, E. Glendening, M. Gutowski,
   A. C. Hess, J. Jaffe, B. G. Johnson, J. Ju, R. Kobayashi, R. Kutteh, Z. Lin,
   R. Littlefield, X. Long, B. Meng, T. Nakajima, S. Niu, L. Pollack, M. Rosing,
   K. Glaesemann, G. Sandrone, M. Stave, H. Taylor, G. Thomas, J. H. van Lenthe,
                               A. T. Wong, Z. Zhang.

 Total times  cpu:      140.9s     wall:      144.0s
