 argument  1 = input.nw
  NWChem w/ OpenMP: maximum threads =    1



============================== echo of input deck ==============================
 echo
 start H2
 title "H2"

 memory total 24 gb

 geometry units bohr
 symmetry c1
        H  0.00000000  0.00000000  0.00000000
        H  0.00000000  7.20  0.00000000
 end

 basis
   * library cc-pVQZ
 end

 mcscf
   active  10
   actelec 2
   multiplicity 1
   maxiter 40
   vectors input H2.mos
   vectors output H2.mos
 end

 task mcscf

 scf
   vectors input H2.mos
   vectors output H2-7.20.mos
   noscf
 end

 tce
   2eorb
   2emet 13
   ccsd
   maxiter 300
   lshift 0.8
 end

# set tce:print_integrals T
# set tce:qorb 10
# set tce:qela 1
# set tce:qelb 1

 set tce:qducc T
 set tce:nactv 9
 set tce:nonhf T
 set tce:ducc_model 6

 set tce:printtol 0.02

 task tce
================================================================================


                                         
                                         


             Northwest Computational Chemistry Package (NWChem) 7.0.1
             --------------------------------------------------------


                    Environmental Molecular Sciences Laboratory
                       Pacific Northwest National Laboratory
                                Richland, WA 99352

                              Copyright (c) 1994-2020
                       Pacific Northwest National Laboratory
                            Battelle Memorial Institute

             NWChem is an open-source computational chemistry package
                        distributed under the terms of the
                      Educational Community License (ECL) 2.0
             A copy of the license is included with this distribution
                              in the LICENSE.TXT file

                                  ACKNOWLEDGMENT
                                  --------------

            This software and its documentation were developed at the
            EMSL at Pacific Northwest National Laboratory, a multiprogram
            national laboratory, operated for the U.S. Department of Energy
            by Battelle under Contract Number DE-AC05-76RL01830. Support
            for this work was provided by the Department of Energy Office
            of Biological and Environmental Research, Office of Basic
            Energy Sciences, and the Office of Advanced Scientific Computing.


           Job information
           ---------------

    hostname        = WE46210
    program         = /home/baum612/code/nwchem/bin/LINUX64/nwchem
    date            = Sat Nov 11 04:31:15 2023

    compiled        = Mon_Nov_06_10:06:57_2023
    source          = /home/baum612/code/nwchem
    nwchem branch   = 7.0.0
    nwchem revision = nwchem_on_git-4191-g39d87d64de
    ga revision     = 5.8.1
    use scalapack   = F
    input           = input.nw
    prefix          = H2.
    data base       = ./H2.db
    status          = startup
    nproc           =        1
    time left       =     -1s



           Memory information
           ------------------

    heap     =  805306362 doubles =   6144.0 Mbytes
    stack    =  805306367 doubles =   6144.0 Mbytes
    global   = 1610612736 doubles =  12288.0 Mbytes (distinct from heap & stack)
    total    = 3221225465 doubles =  24576.0 Mbytes
    verify   = yes
    hardfail = no 


           Directory information
           ---------------------

  0 permanent = .
  0 scratch   = .




                                NWChem Input Module
                                -------------------


                                        H2
                                        --
 Turning off AUTOSYM since
 SYMMETRY directive was detected!


          ------
          auto-z
          ------
     1 autoz failed with cvr_scaling = 1.2 changing to 1.3
     2 autoz failed with cvr_scaling = 1.3 changing to 1.4
     3 autoz failed with cvr_scaling = 1.4 changing to 1.5
     4 autoz failed with cvr_scaling = 1.5 changing to 1.6
     5 autoz failed with cvr_scaling = 1.6 changing to 1.7

 AUTOZ failed to generate good internal coordinates.
 Cartesian coordinates will be used in optimizations.



                             Geometry "geometry" -> ""
                             -------------------------

 Output coordinates in a.u. (scale by  1.000000000 to convert to a.u.)

  No.       Tag          Charge          X              Y              Z
 ---- ---------------- ---------- -------------- -------------- --------------
    1 H                    1.0000     0.00000000    -3.60000000     0.00000000
    2 H                    1.0000     0.00000000     3.60000000     0.00000000

      Atomic Mass 
      ----------- 

      H                  1.007825


 Effective nuclear repulsion energy (a.u.)       0.1388888889

            Nuclear Dipole moment (a.u.) 
            ----------------------------
        X                 Y               Z
 ---------------- ---------------- ----------------
     0.0000000000     0.0000000000     0.0000000000


            XYZ format geometry
            -------------------
     2
 geometry
 H                     0.00000000    -1.90503810     0.00000000
 H                     0.00000000     1.90503810     0.00000000



 Summary of "ao basis" -> "" (cartesian)
 ------------------------------------------------------------------------------
       Tag                 Description            Shells   Functions and Types
 ---------------- ------------------------------  ------  ---------------------
 *                          cc-pVQZ                   on all atoms 


                      Basis "ao basis" -> "ao basis" (cartesian)
                      -----
  H (Hydrogen)
  ------------
            Exponent  Coefficients 
       -------------- ---------------------------------------------------------
  1 S  8.26400000E+01  0.002006
  1 S  1.24100000E+01  0.015343
  1 S  2.82400000E+00  0.075579

  2 S  7.97700000E-01  1.000000

  3 S  2.58100000E-01  1.000000

  4 S  8.98900000E-02  1.000000

  5 P  2.29200000E+00  1.000000

  6 P  8.38000000E-01  1.000000

  7 P  2.92000000E-01  1.000000

  8 D  2.06200000E+00  1.000000

  9 D  6.62000000E-01  1.000000

 10 F  1.39700000E+00  1.000000



 Summary of "ao basis" -> "ao basis" (cartesian)
 ------------------------------------------------------------------------------
       Tag                 Description            Shells   Functions and Types
 ---------------- ------------------------------  ------  ---------------------
 H                          cc-pVQZ                 10       35   4s3p2d1f



                            NWChem Direct MCSCF Module
                            --------------------------


                                        H2


     -----------------------------------
       Basis functions:             70
       Inactive shells:              0
       Active shells:               10
       Active electrons:             2
       Symmetry:                    a       
       Multiplicity:                 1
       Orbital rotations:          600
     -----------------------------------

     -----------------------------------
       E2 extrapolation:             F
       Conjugacy:                    T
       Micro CI relax:               T
       Canonical orbitals:           T
       Maximum iterations:          40
       Converge threshold:    1.00E-04
       Conjugacy resets:            20
       Initial levelshift:        0.10
     -----------------------------------

 Loading old vectors from job with title :

H2


   input molecular orbitals = ./H2.mos
  output molecular orbtials = ./H2.mos

       No. of determinants:           100


  Starting Orbital Energies
    -0.260167    -0.239762    -0.000018    -0.000005    -0.000005    -0.000000
    -0.000000    -0.000000    -0.000000    -0.000000     0.420764     0.608444
     0.827949     1.133999     1.133999     1.754359     1.835857     1.835857
     1.914132     2.049901     2.049901     2.053512     2.053512     2.066987
     2.090451     2.090451     2.090455     2.090455     2.899711     2.935629
     4.371852     4.371852     4.395174     4.444811     4.444811     4.467661
     5.943870     6.056123     6.056123     6.061102     6.069911     6.069911
     6.070709     6.070709     6.070709     6.070709     6.070718     6.070718
     6.070718     6.070718     8.127083     8.133861     8.135105     8.135105
     8.142262     8.142262     8.142706     8.142706     8.142707     8.142707
     9.648148     9.648887     9.701780     9.712856     9.712856     9.719469
     9.719469     9.753966    22.393700    22.472030

  Orbital Symmetry Irreps
a    a    a    a    a    a    a    a    a    a    a    a    a    a    a   
a    a    a    a    a    a    a    a    a    a    a    a    a    a    a   
a    a    a    a    a    a    a    a    a    a    a    a    a    a    a   
a    a    a    a    a    a    a    a    a    a    a    a    a    a    a   
a    a    a    a    a    a    a    a    a    a   

 Integral file          = ./H2.aoints.0
 Record size in doubles =  65536        No. of integs per rec  =  43688
 Max. records in memory =     99        Max. records in file   = 280144
 No. of bits per label  =      8        No. of bits per value  =     64


 #quartets = 1.478D+04 #integrals = 3.326D+05 #direct =  0.0% #cached =100.0%




          %%%%% MacroIteration   1 %%%%%


          Number of sigma calls:       14
                       o<<<<< (aa):             0.00
                       o<<<<< (bb):             0.00
                       o<<<<< (ab):             0.00
                       o<<<<< (total)           0.00
                       o<<<<< (aa) ff           0.00
                       o<<<<< (aa) gop          0.00
                       o<<<<< (aa) dot          0.00
                       o<<<<< (ab) str          0.00
                       o<<<<< (ab) gath         0.00
                       o<<<<< (ab) dotab        0.00
                       o<<<<< (ab) scat         0.00
                       o<<<<< (ab) sync         0.00
                       o<<<<< Density           0.00
                       o<<<<< Density one       0.00
                       o<<<<< Density two       0.00
                       o<<<<< Density ab        0.00
                       o<<<<< Spin adapt        0.00
                       o<<<<< Symm adapt        0.00

                       o<<<<< (ab) max sync:      0.00

           >>>| Valence CI:             -1.138887447742
           >>>| MCSCF energy:           -0.999998558853
           >>>| Gradient norm:          0.127106138D-03
     --- Warning:  480 Hessian diagonals < 0.05 ---

                              ----- Line search ------

        step       energy         lsg     num-lsg   num-lsh   lsrat    time
      ------- ---------------- --------- --------- --------- ------- --------
       0.0000      -0.99999856 -5.50D-09  0.00D+00  0.00D+00 0.0D+00      0.6

          Number of sigma calls:        8
                       o<<<<< (aa):             0.00
                       o<<<<< (bb):             0.00
                       o<<<<< (ab):             0.00
                       o<<<<< (total)           0.00
                       o<<<<< (aa) ff           0.00
                       o<<<<< (aa) gop          0.00
                       o<<<<< (aa) dot          0.00
                       o<<<<< (ab) str          0.00
                       o<<<<< (ab) gath         0.00
                       o<<<<< (ab) dotab        0.00
                       o<<<<< (ab) scat         0.00
                       o<<<<< (ab) sync         0.00
                       o<<<<< Density           0.00
                       o<<<<< Density one       0.00
                       o<<<<< Density two       0.00
                       o<<<<< Density ab        0.00
                       o<<<<< Spin adapt        0.00
                       o<<<<< Symm adapt        0.00

                       o<<<<< (ab) max sync:      0.00
       1.0000      -0.99999856 -1.95D-09 -1.95D-09  3.56D-09 3.5D-01      0.6

          Number of sigma calls:        8
                       o<<<<< (aa):             0.00
                       o<<<<< (bb):             0.00
                       o<<<<< (ab):             0.00
                       o<<<<< (total)           0.00
                       o<<<<< (aa) ff           0.00
                       o<<<<< (aa) gop          0.00
                       o<<<<< (aa) dot          0.00
                       o<<<<< (ab) str          0.00
                       o<<<<< (ab) gath         0.00
                       o<<<<< (ab) dotab        0.00
                       o<<<<< (ab) scat         0.00
                       o<<<<< (ab) sync         0.00
                       o<<<<< Density           0.00
                       o<<<<< Density one       0.00
                       o<<<<< Density two       0.00
                       o<<<<< Density ab        0.00
                       o<<<<< Spin adapt        0.00
                       o<<<<< Symm adapt        0.00

                       o<<<<< (ab) max sync:      0.00
       1.5469      -0.99999856  2.68D-12  2.66D-12  3.56D-09 4.9D-04      0.6
     --- Orbitals canonicalized ---



          %%%%% MacroIteration   2 %%%%%


          Number of sigma calls:       14
                       o<<<<< (aa):             0.00
                       o<<<<< (bb):             0.00
                       o<<<<< (ab):             0.02
                       o<<<<< (total)           0.02
                       o<<<<< (aa) ff           0.00
                       o<<<<< (aa) gop          0.00
                       o<<<<< (aa) dot          0.00
                       o<<<<< (ab) str          0.00
                       o<<<<< (ab) gath         0.00
                       o<<<<< (ab) dotab        0.00
                       o<<<<< (ab) scat         0.00
                       o<<<<< (ab) sync         0.00
                       o<<<<< Density           0.00
                       o<<<<< Density one       0.00
                       o<<<<< Density two       0.00
                       o<<<<< Density ab        0.00
                       o<<<<< Spin adapt        0.00
                       o<<<<< Symm adapt        0.00

                       o<<<<< (ab) max sync:      0.00

           >>>| Valence CI:             -1.138887452000
           >>>| MCSCF energy:           -0.999998563111
           >>>| Gradient norm:          0.332627202D-04




     ==============================
            MCSCF Converged
     ==============================



          Canonical Eigenvalues

              1      
    1   -0.2598
    2   -0.2402
    3   -0.0000
    4   -0.0000
    5   -0.0000
    6   -0.0000
    7   -0.0000
    8   -0.0000
    9   -0.0000
   10   -0.0000
   11    0.4213
   12    0.6069
   13    0.8265
   14    1.1337
   15    1.1337
   16    1.7532
   17    1.8362
   18    1.8362
   19    1.9159
   20    2.0500
   21    2.0500
   22    2.0534
   23    2.0534
   24    2.0655
   25    2.0905
   26    2.0905
   27    2.0905
   28    2.0905
   29    2.8995
   30    2.9346
   31    4.3715
   32    4.3715
   33    4.3974
   34    4.4451
   35    4.4451
   36    4.4641
   37    5.9439
   38    6.0561
   39    6.0561
   40    6.0611
   41    6.0699
   42    6.0699
   43    6.0707
   44    6.0707
   45    6.0707
   46    6.0707
   47    6.0707
   48    6.0707
   49    6.0707
   50    6.0707
   51    8.1270
   52    8.1338
   53    8.1351
   54    8.1351
   55    8.1423
   56    8.1423
   57    8.1427
   58    8.1427
   59    8.1427
   60    8.1427
   61    9.6477
   62    9.6484
   63    9.7032
   64    9.7127
   65    9.7127
   66    9.7196
   67    9.7196
   68    9.7526
   69   22.3965
   70   22.4668


          Converged CI vector

   Index           Coefficient          Config. Occupation
         1          0.72323345          1  1
        12         -0.69058636          2  2

          Number of sigma calls:        1
                       o<<<<< (aa):             0.00
                       o<<<<< (bb):             0.00
                       o<<<<< (ab):             0.00
                       o<<<<< (total)           0.00
                       o<<<<< (aa) ff           0.00
                       o<<<<< (aa) gop          0.00
                       o<<<<< (aa) dot          0.00
                       o<<<<< (ab) str          0.00
                       o<<<<< (ab) gath         0.00
                       o<<<<< (ab) dotab        0.00
                       o<<<<< (ab) scat         0.00
                       o<<<<< (ab) sync         0.00
                       o<<<<< Density           0.00
                       o<<<<< Density one       0.00
                       o<<<<< Density two       0.00
                       o<<<<< Density ab        0.00
                       o<<<<< Spin adapt        0.00
                       o<<<<< Symm adapt        0.00

                       o<<<<< (ab) max sync:      0.00



          Natural orbital occupation numbers

              1      
    1    1.0461
    2    0.9538
    3    0.0000
    4    0.0000
    5    0.0000
    6    0.0000
    7    0.0000
    8    0.0000
    9    0.0000
   10    0.0000


          Number of sigma calls:       14
                       o<<<<< (aa):             0.00
                       o<<<<< (bb):             0.00
                       o<<<<< (ab):             0.00
                       o<<<<< (total)           0.00
                       o<<<<< (aa) ff           0.00
                       o<<<<< (aa) gop          0.00
                       o<<<<< (aa) dot          0.00
                       o<<<<< (ab) str          0.00
                       o<<<<< (ab) gath         0.00
                       o<<<<< (ab) dotab        0.00
                       o<<<<< (ab) scat         0.00
                       o<<<<< (ab) sync         0.00
                       o<<<<< Density           0.00
                       o<<<<< Density one       0.00
                       o<<<<< Density two       0.00
                       o<<<<< Density ab        0.00
                       o<<<<< Spin adapt        0.00
                       o<<<<< Symm adapt        0.00

                       o<<<<< (ab) max sync:      0.00


       Final MCSCF results 
       ------------------- 

       Total MCSCF energy =     -0.999998563111
            Gradient norm =      3.3D-05

    CPU time for solution =      0.6s
   Wall time for solution =      1.3s



                        Analysis of MCSCF natural orbitals
                        ----------------------------------

 Vector    1  Occ=1.046133D+00  E=-2.597674D-01  Symmetry=a
              MO Center=  7.4D-15,  1.7D-12, -4.8D-15, r^2= 4.4D+00
   Bfn.  Coefficient  Atom+Function         Bfn.  Coefficient  Atom+Function  
  ----- ------------  ---------------      ----- ------------  ---------------
     3      0.344978  1 H  s                 38      0.344978  2 H  s          
     4      0.209952  1 H  s                 39      0.209952  2 H  s          
     2      0.178324  1 H  s                 37      0.178324  2 H  s          

 Vector    2  Occ=9.538190D-01  E=-2.401628D-01  Symmetry=a
              MO Center=  3.1D-14, -2.4D-12, -2.1D-14, r^2= 4.5D+00
   Bfn.  Coefficient  Atom+Function         Bfn.  Coefficient  Atom+Function  
  ----- ------------  ---------------      ----- ------------  ---------------
     3      0.355501  1 H  s                 38     -0.355501  2 H  s          
     4      0.209545  1 H  s                 39     -0.209545  2 H  s          
     2      0.181848  1 H  s                 37     -0.181848  2 H  s          

 Vector    3  Occ=3.177774D-05  E=-1.736444D-05  Symmetry=a
              MO Center=  2.8D-13,  3.7D-09, -1.7D-13, r^2= 4.6D+00
   Bfn.  Coefficient  Atom+Function         Bfn.  Coefficient  Atom+Function  
  ----- ------------  ---------------      ----- ------------  ---------------
     9      1.899921  1 H  py                44     -1.899921  2 H  py         
    12     -1.023394  1 H  py                47      1.023394  2 H  py         
    32     -0.802500  1 H  fyyy              67      0.802500  2 H  fyyy       
    27     -0.788437  1 H  fxxy              34     -0.788437  1 H  fyzz       
    62      0.788437  2 H  fxxy              69      0.788437  2 H  fyzz       

 Vector    4  Occ=7.809306D-06  E=-4.469241D-06  Symmetry=a
              MO Center=  2.4D-13, -1.8D-11, -2.7D-14, r^2= 4.6D+00
   Bfn.  Coefficient  Atom+Function         Bfn.  Coefficient  Atom+Function  
  ----- ------------  ---------------      ----- ------------  ---------------
     8      1.604063  1 H  px                43      1.604063  2 H  px         
    11     -0.960142  1 H  px                46     -0.960142  2 H  px         
    29     -0.702507  1 H  fxyy              64     -0.702507  2 H  fxyy       
    26     -0.676298  1 H  fxxx              31     -0.676298  1 H  fxzz       
    61     -0.676298  2 H  fxxx              66     -0.676298  2 H  fxzz       

 Vector    5  Occ=7.809306D-06  E=-4.469241D-06  Symmetry=a
              MO Center=  8.1D-15, -2.0D-11,  9.8D-14, r^2= 4.6D+00
   Bfn.  Coefficient  Atom+Function         Bfn.  Coefficient  Atom+Function  
  ----- ------------  ---------------      ----- ------------  ---------------
    10      1.604063  1 H  pz                45      1.604063  2 H  pz         
    13     -0.960142  1 H  pz                48     -0.960142  2 H  pz         
    33     -0.702507  1 H  fyyz              68     -0.702507  2 H  fyyz       
    28     -0.676298  1 H  fxxz              35     -0.676298  1 H  fzzz       
    63     -0.676298  2 H  fxxz              70     -0.676298  2 H  fzzz       

 Vector    6  Occ=5.462728D-08  E=-4.191741D-08  Symmetry=a
              MO Center= -4.9D-13,  4.1D-10,  1.2D-13, r^2= 4.2D+00
   Bfn.  Coefficient  Atom+Function         Bfn.  Coefficient  Atom+Function  
  ----- ------------  ---------------      ----- ------------  ---------------
     9      1.289553  1 H  py                44     -1.289553  2 H  py         
     2      0.592348  1 H  s                 37      0.592348  2 H  s          
    27     -0.534981  1 H  fxxy              34     -0.534981  1 H  fyzz       
    62      0.534981  2 H  fxxy              69      0.534981  2 H  fyzz       
     4     -0.524771  1 H  s                 39     -0.524771  2 H  s          

 Vector    7  Occ=4.607694D-08  E=-4.191741D-08  Symmetry=a
              MO Center= -3.3D-14,  2.6D-12, -5.4D-13, r^2= 3.4D+00
   Bfn.  Coefficient  Atom+Function         Bfn.  Coefficient  Atom+Function  
  ----- ------------  ---------------      ----- ------------  ---------------
    10      1.424366  1 H  pz                45     -1.424366  2 H  pz         
    28     -0.465749  1 H  fxxz              35     -0.465749  1 H  fzzz       
    63      0.465749  2 H  fxxz              70      0.465749  2 H  fzzz       
    24      0.383805  1 H  dyz               59      0.383805  2 H  dyz        
    33     -0.342476  1 H  fyyz              68      0.342476  2 H  fyyz       

 Vector    8  Occ=4.607694D-08  E=-3.900336D-08  Symmetry=a
              MO Center=  9.9D-13,  2.1D-12, -6.4D-14, r^2= 3.4D+00
   Bfn.  Coefficient  Atom+Function         Bfn.  Coefficient  Atom+Function  
  ----- ------------  ---------------      ----- ------------  ---------------
     8      1.424366  1 H  px                43     -1.424366  2 H  px         
    26     -0.465749  1 H  fxxx              31     -0.465749  1 H  fxzz       
    61      0.465749  2 H  fxxx              66      0.465749  2 H  fxzz       
    21      0.383805  1 H  dxy               56      0.383805  2 H  dxy        
    29     -0.342476  1 H  fxyy              64      0.342476  2 H  fxyy       

 Vector    9  Occ=3.140722D-08  E=-2.894248D-08  Symmetry=a
              MO Center= -1.4D-12,  1.1D-09,  8.6D-13, r^2= 3.5D+00
   Bfn.  Coefficient  Atom+Function         Bfn.  Coefficient  Atom+Function  
  ----- ------------  ---------------      ----- ------------  ---------------
     9      1.425234  1 H  py                44      1.425234  2 H  py         
     3     -0.918112  1 H  s                 38      0.918112  2 H  s          
     2      0.841694  1 H  s                 37     -0.841694  2 H  s          
    27     -0.520916  1 H  fxxy              34     -0.520916  1 H  fyzz       
    62     -0.520916  2 H  fxxy              69     -0.520916  2 H  fyzz       

 Vector   10  Occ=1.244374D-08  E=-1.444892D-08  Symmetry=a
              MO Center= -4.7D-14,  4.0D-09, -5.8D-15, r^2= 4.6D+00
   Bfn.  Coefficient  Atom+Function         Bfn.  Coefficient  Atom+Function  
  ----- ------------  ---------------      ----- ------------  ---------------
     9      2.994770  1 H  py                44     -2.994770  2 H  py         
    27     -1.320342  1 H  fxxy              34     -1.320342  1 H  fyzz       
    62      1.320342  2 H  fxxy              69      1.320342  2 H  fyzz       
    32     -1.021846  1 H  fyyy              67      1.021846  2 H  fyyy       
     6     -0.740487  1 H  py                41      0.740487  2 H  py         

 Vector   11  Occ=0.000000D+00  E= 4.212593D-01  Symmetry=a
              MO Center=  2.5D-12,  7.1D-10, -1.5D-12, r^2= 9.0D+00
   Bfn.  Coefficient  Atom+Function         Bfn.  Coefficient  Atom+Function  
  ----- ------------  ---------------      ----- ------------  ---------------
     3      2.574098  1 H  s                 38     -2.574098  2 H  s          
     4     -1.523621  1 H  s                 39      1.523621  2 H  s          
     9     -1.372026  1 H  py                44     -1.372026  2 H  py         
    12      0.630618  1 H  py                47      0.630618  2 H  py         
     2     -0.624011  1 H  s                 37      0.624011  2 H  s          

 Vector   12  Occ=0.000000D+00  E= 6.069344D-01  Symmetry=a
              MO Center= -7.5D-13,  5.4D-09,  4.6D-13, r^2= 6.7D+00
   Bfn.  Coefficient  Atom+Function         Bfn.  Coefficient  Atom+Function  
  ----- ------------  ---------------      ----- ------------  ---------------
     3      2.073804  1 H  s                 38     -2.073804  2 H  s          
     4     -1.170793  1 H  s                 39      1.170793  2 H  s          
     9      1.091114  1 H  py                44      1.091114  2 H  py         
    12     -0.822531  1 H  py                47     -0.822531  2 H  py         
     2     -0.565382  1 H  s                 37      0.565382  2 H  s          

 Vector   13  Occ=0.000000D+00  E= 8.265033D-01  Symmetry=a
              MO Center=  6.3D-14, -2.0D-08, -3.7D-14, r^2= 7.4D+00
   Bfn.  Coefficient  Atom+Function         Bfn.  Coefficient  Atom+Function  
  ----- ------------  ---------------      ----- ------------  ---------------
     3      3.828487  1 H  s                 38      3.828487  2 H  s          
     4     -1.573958  1 H  s                 39     -1.573958  2 H  s          
     2     -1.237897  1 H  s                 37     -1.237897  2 H  s          
    23     -0.636849  1 H  dyy               58     -0.636849  2 H  dyy        
    20     -0.582838  1 H  dxx               25     -0.582838  1 H  dzz        

 Vector   14  Occ=0.000000D+00  E= 1.133700D+00  Symmetry=a
              MO Center=  4.0D-14, -2.6D-11, -4.1D-15, r^2= 6.0D+00
   Bfn.  Coefficient  Atom+Function         Bfn.  Coefficient  Atom+Function  
  ----- ------------  ---------------      ----- ------------  ---------------
     8      4.945462  1 H  px                43     -4.945462  2 H  px         
    26     -1.922544  1 H  fxxx              31     -1.922544  1 H  fxzz       
    61      1.922544  2 H  fxxx              66      1.922544  2 H  fxzz       
    29     -1.905151  1 H  fxyy              64      1.905151  2 H  fxyy       
    11     -1.482049  1 H  px                46      1.482049  2 H  px         

 Vector   15  Occ=0.000000D+00  E= 1.133700D+00  Symmetry=a
              MO Center=  8.2D-16, -2.5D-11,  8.8D-15, r^2= 6.0D+00
   Bfn.  Coefficient  Atom+Function         Bfn.  Coefficient  Atom+Function  
  ----- ------------  ---------------      ----- ------------  ---------------
    10      4.945462  1 H  pz                45     -4.945462  2 H  pz         
    28     -1.922544  1 H  fxxz              35     -1.922544  1 H  fzzz       
    63      1.922544  2 H  fxxz              70      1.922544  2 H  fzzz       
    33     -1.905151  1 H  fyyz              68      1.905151  2 H  fyyz       
    13     -1.482049  1 H  pz                48      1.482049  2 H  pz         

 Vector   16  Occ=0.000000D+00  E= 1.753194D+00  Symmetry=a
              MO Center= -7.0D-13,  6.7D-09,  4.2D-13, r^2= 5.8D+00
   Bfn.  Coefficient  Atom+Function         Bfn.  Coefficient  Atom+Function  
  ----- ------------  ---------------      ----- ------------  ---------------
     9      4.807745  1 H  py                44      4.807745  2 H  py         
     3      2.131151  1 H  s                 38     -2.131151  2 H  s          
    27     -1.853667  1 H  fxxy              32     -1.845789  1 H  fyyy       
    34     -1.853667  1 H  fyzz              62     -1.853667  2 H  fxxy       
    67     -1.845789  2 H  fyyy              69     -1.853667  2 H  fyzz       

 Vector   17  Occ=0.000000D+00  E= 1.836203D+00  Symmetry=a
              MO Center= -7.2D-14,  5.5D-11,  1.5D-14, r^2= 4.9D+00
   Bfn.  Coefficient  Atom+Function         Bfn.  Coefficient  Atom+Function  
  ----- ------------  ---------------      ----- ------------  ---------------
     8      6.125896  1 H  px                43      6.125896  2 H  px         
    26     -2.390846  1 H  fxxx              29     -2.389816  1 H  fxyy       
    31     -2.390846  1 H  fxzz              61     -2.390846  2 H  fxxx       
    64     -2.389816  2 H  fxyy              66     -2.390846  2 H  fxzz       
     5     -1.619322  1 H  px                40     -1.619322  2 H  px         

 Vector   18  Occ=0.000000D+00  E= 1.836203D+00  Symmetry=a
              MO Center=  2.7D-15,  5.5D-11,  3.0D-14, r^2= 4.9D+00
   Bfn.  Coefficient  Atom+Function         Bfn.  Coefficient  Atom+Function  
  ----- ------------  ---------------      ----- ------------  ---------------
    10      6.125896  1 H  pz                45      6.125896  2 H  pz         
    28     -2.390846  1 H  fxxz              33     -2.389816  1 H  fyyz       
    35     -2.390846  1 H  fzzz              63     -2.390846  2 H  fxxz       
    68     -2.389816  2 H  fyyz              70     -2.390846  2 H  fzzz       
     7     -1.619322  1 H  pz                42     -1.619322  2 H  pz         

 Vector   19  Occ=0.000000D+00  E= 1.915878D+00  Symmetry=a
              MO Center= -1.1D-14, -3.7D-09,  7.9D-15, r^2= 5.7D+00
   Bfn.  Coefficient  Atom+Function         Bfn.  Coefficient  Atom+Function  
  ----- ------------  ---------------      ----- ------------  ---------------
     9      4.832886  1 H  py                44     -4.832886  2 H  py         
    32     -1.899524  1 H  fyyy              67      1.899524  2 H  fyyy       
    27     -1.888853  1 H  fxxy              34     -1.888853  1 H  fyzz       
    62      1.888853  2 H  fxxy              69      1.888853  2 H  fyzz       
     6     -1.281057  1 H  py                41      1.281057  2 H  py         

 Vector   20  Occ=0.000000D+00  E= 2.049953D+00  Symmetry=a
              MO Center= -9.8D-15, -2.7D-09,  1.8D-14, r^2= 5.0D+00
   Bfn.  Coefficient  Atom+Function         Bfn.  Coefficient  Atom+Function  
  ----- ------------  ---------------      ----- ------------  ---------------
    24      1.270368  1 H  dyz               59     -1.270368  2 H  dyz        
    10     -0.533643  1 H  pz                45     -0.533643  2 H  pz         
    21      0.252957  1 H  dxy               56     -0.252957  2 H  dxy        
    33      0.209338  1 H  fyyz              68      0.209338  2 H  fyyz       
    28      0.207829  1 H  fxxz              35      0.207829  1 H  fzzz       


 Wrote Lagrangian and 1- and 2-particle density matrices to ./H2.mcpdm


     Multipole analysis of the density
     ---------------------------------

     L   x y z        total        nuclear
     -   - - -        -----        -------
     0   0 0 0     -0.000000      2.000000

     1   1 0 0     -0.000000      0.000000
     1   0 1 0      0.000000      0.000000
     1   0 0 1      0.000000      0.000000

     2   2 0 0     -1.999888      0.000000
     2   1 1 0      0.000000      0.000000
     2   1 0 1     -0.000000      0.000000
     2   0 2 0     -1.982028     25.920000
     2   0 1 1     -0.000000      0.000000
     2   0 0 2     -1.999888      0.000000


  Mulliken analysis of the total density
  --------------------------------------

    Atom       Charge   Shell Charges
 -----------   ------   -------------------------------------------------------
    1 H    1     1.00   0.05  0.22  0.48  0.25  0.00 -0.00  0.00  0.00  0.00  0.00
    2 H    1     1.00   0.05  0.22  0.48  0.25  0.00 -0.00  0.00  0.00  0.00  0.00

    Mulliken analysis of the active space density
    ---------------------------------------------

    Atom       Charge   Shell Charges
 -----------   ------   -------------------------------------------------------
    1 H    1     1.00   0.05  0.22  0.48  0.25  0.00 -0.00  0.00  0.00  0.00  0.00
    2 H    1     1.00   0.05  0.22  0.48  0.25  0.00 -0.00  0.00  0.00  0.00  0.00

 Parallel integral file used       8 records with       0 large values


 Task  times  cpu:        0.6s     wall:        1.4s


                                NWChem Input Module
                                -------------------


                                 NWChem SCF Module
                                 -----------------


                                        H2



  ao basis        = "ao basis"
  functions       =    70
  atoms           =     2
  closed shells   =     1
  open shells     =     0
  charge          =   0.00
  wavefunction    = RHF 
  input vectors   = ./H2.mos
  output vectors  = ./H2-7.20.mos
  use symmetry    = F
  symmetry adapt  = F


 Summary of "ao basis" -> "ao basis" (cartesian)
 ------------------------------------------------------------------------------
       Tag                 Description            Shells   Functions and Types
 ---------------- ------------------------------  ------  ---------------------
 H                          cc-pVQZ                 10       35   4s3p2d1f



 Forming initial guess at       1.4s


 Loading old vectors from job with title :

H2


 Starting SCF solution at       1.4s



 ----------------------------------------------
         Quadratically convergent ROHF

 Convergence threshold     :          1.000E-04
 Maximum no. of iterations :           30
 Final Fock-matrix accuracy:          1.000E-07
 ----------------------------------------------


 Integral file          = ./H2.aoints.0
 Record size in doubles =  65536        No. of integs per rec  =  43688
 Max. records in memory =     99        Max. records in file   = 280173
 No. of bits per label  =      8        No. of bits per value  =     64


 #quartets = 1.330D+04 #integrals = 2.930D+05 #direct =  0.0% #cached =100.0%



       Final RHF  results 
       ------------------ 

         Total SCF energy =     -0.767447855723
      One-electron energy =     -1.284526913667
      Two-electron energy =      0.378190169054
 Nuclear repulsion energy =      0.138888888889

        Time for solution =      0.0s


             Final eigenvalues
             -----------------

              1      
    1   -0.2598
    2   -0.2402
    3   -0.0000
    4   -0.0000
    5   -0.0000
    6   -0.0000
    7   -0.0000
    8   -0.0000
    9   -0.0000
   10   -0.0000
   11    0.4213

                       ROHF Final Molecular Orbital Analysis
                       -------------------------------------

 Vector    1  Occ=2.000000D+00  E=-2.597674D-01
              MO Center=  7.4D-15,  1.7D-12, -4.8D-15, r^2= 4.4D+00
   Bfn.  Coefficient  Atom+Function         Bfn.  Coefficient  Atom+Function  
  ----- ------------  ---------------      ----- ------------  ---------------
     3      0.344978  1 H  s                 38      0.344978  2 H  s          
     4      0.209952  1 H  s                 39      0.209952  2 H  s          
     2      0.178324  1 H  s                 37      0.178324  2 H  s          

 Vector    2  Occ=0.000000D+00  E=-2.401628D-01
              MO Center=  3.1D-14, -2.4D-12, -2.1D-14, r^2= 4.5D+00
   Bfn.  Coefficient  Atom+Function         Bfn.  Coefficient  Atom+Function  
  ----- ------------  ---------------      ----- ------------  ---------------
     3      0.355501  1 H  s                 38     -0.355501  2 H  s          
     4      0.209545  1 H  s                 39     -0.209545  2 H  s          
     2      0.181848  1 H  s                 37     -0.181848  2 H  s          

 Vector    3  Occ=0.000000D+00  E=-1.736444D-05
              MO Center=  2.8D-13,  3.7D-09, -1.7D-13, r^2= 4.6D+00
   Bfn.  Coefficient  Atom+Function         Bfn.  Coefficient  Atom+Function  
  ----- ------------  ---------------      ----- ------------  ---------------
     9      1.899921  1 H  py                44     -1.899921  2 H  py         
    12     -1.023394  1 H  py                47      1.023394  2 H  py         
    32     -0.802500  1 H  fyyy              67      0.802500  2 H  fyyy       
    27     -0.788437  1 H  fxxy              34     -0.788437  1 H  fyzz       
    62      0.788437  2 H  fxxy              69      0.788437  2 H  fyzz       

 Vector    4  Occ=0.000000D+00  E=-4.469241D-06
              MO Center=  2.4D-13, -1.8D-11, -2.7D-14, r^2= 4.6D+00
   Bfn.  Coefficient  Atom+Function         Bfn.  Coefficient  Atom+Function  
  ----- ------------  ---------------      ----- ------------  ---------------
     8      1.604063  1 H  px                43      1.604063  2 H  px         
    11     -0.960142  1 H  px                46     -0.960142  2 H  px         
    29     -0.702507  1 H  fxyy              64     -0.702507  2 H  fxyy       
    26     -0.676298  1 H  fxxx              31     -0.676298  1 H  fxzz       
    61     -0.676298  2 H  fxxx              66     -0.676298  2 H  fxzz       

 Vector    5  Occ=0.000000D+00  E=-4.469241D-06
              MO Center=  8.1D-15, -2.0D-11,  9.8D-14, r^2= 4.6D+00
   Bfn.  Coefficient  Atom+Function         Bfn.  Coefficient  Atom+Function  
  ----- ------------  ---------------      ----- ------------  ---------------
    10      1.604063  1 H  pz                45      1.604063  2 H  pz         
    13     -0.960142  1 H  pz                48     -0.960142  2 H  pz         
    33     -0.702507  1 H  fyyz              68     -0.702507  2 H  fyyz       
    28     -0.676298  1 H  fxxz              35     -0.676298  1 H  fzzz       
    63     -0.676298  2 H  fxxz              70     -0.676298  2 H  fzzz       

 Vector    6  Occ=0.000000D+00  E=-4.191741D-08
              MO Center= -4.9D-13,  4.1D-10,  1.2D-13, r^2= 4.2D+00
   Bfn.  Coefficient  Atom+Function         Bfn.  Coefficient  Atom+Function  
  ----- ------------  ---------------      ----- ------------  ---------------
     9      1.289553  1 H  py                44     -1.289553  2 H  py         
     2      0.592348  1 H  s                 37      0.592348  2 H  s          
    27     -0.534981  1 H  fxxy              34     -0.534981  1 H  fyzz       
    62      0.534981  2 H  fxxy              69      0.534981  2 H  fyzz       
     4     -0.524771  1 H  s                 39     -0.524771  2 H  s          

 Vector    7  Occ=0.000000D+00  E=-4.191741D-08
              MO Center= -3.3D-14,  2.6D-12, -5.4D-13, r^2= 3.4D+00
   Bfn.  Coefficient  Atom+Function         Bfn.  Coefficient  Atom+Function  
  ----- ------------  ---------------      ----- ------------  ---------------
    10      1.424366  1 H  pz                45     -1.424366  2 H  pz         
    28     -0.465749  1 H  fxxz              35     -0.465749  1 H  fzzz       
    63      0.465749  2 H  fxxz              70      0.465749  2 H  fzzz       
    24      0.383805  1 H  dyz               59      0.383805  2 H  dyz        
    33     -0.342476  1 H  fyyz              68      0.342476  2 H  fyyz       

 Vector    8  Occ=0.000000D+00  E=-3.900336D-08
              MO Center=  9.9D-13,  2.1D-12, -6.4D-14, r^2= 3.4D+00
   Bfn.  Coefficient  Atom+Function         Bfn.  Coefficient  Atom+Function  
  ----- ------------  ---------------      ----- ------------  ---------------
     8      1.424366  1 H  px                43     -1.424366  2 H  px         
    26     -0.465749  1 H  fxxx              31     -0.465749  1 H  fxzz       
    61      0.465749  2 H  fxxx              66      0.465749  2 H  fxzz       
    21      0.383805  1 H  dxy               56      0.383805  2 H  dxy        
    29     -0.342476  1 H  fxyy              64      0.342476  2 H  fxyy       

 Vector    9  Occ=0.000000D+00  E=-2.894248D-08
              MO Center= -1.4D-12,  1.1D-09,  8.6D-13, r^2= 3.5D+00
   Bfn.  Coefficient  Atom+Function         Bfn.  Coefficient  Atom+Function  
  ----- ------------  ---------------      ----- ------------  ---------------
     9      1.425234  1 H  py                44      1.425234  2 H  py         
     3     -0.918112  1 H  s                 38      0.918112  2 H  s          
     2      0.841694  1 H  s                 37     -0.841694  2 H  s          
    27     -0.520916  1 H  fxxy              34     -0.520916  1 H  fyzz       
    62     -0.520916  2 H  fxxy              69     -0.520916  2 H  fyzz       

 Vector   10  Occ=0.000000D+00  E=-1.444892D-08
              MO Center= -4.7D-14,  4.0D-09, -5.8D-15, r^2= 4.6D+00
   Bfn.  Coefficient  Atom+Function         Bfn.  Coefficient  Atom+Function  
  ----- ------------  ---------------      ----- ------------  ---------------
     9      2.994770  1 H  py                44     -2.994770  2 H  py         
    27     -1.320342  1 H  fxxy              34     -1.320342  1 H  fyzz       
    62      1.320342  2 H  fxxy              69      1.320342  2 H  fyzz       
    32     -1.021846  1 H  fyyy              67      1.021846  2 H  fyyy       
     6     -0.740487  1 H  py                41      0.740487  2 H  py         

 Vector   11  Occ=0.000000D+00  E= 4.212593D-01
              MO Center=  2.5D-12,  7.1D-10, -1.5D-12, r^2= 9.0D+00
   Bfn.  Coefficient  Atom+Function         Bfn.  Coefficient  Atom+Function  
  ----- ------------  ---------------      ----- ------------  ---------------
     3      2.574098  1 H  s                 38     -2.574098  2 H  s          
     4     -1.523621  1 H  s                 39      1.523621  2 H  s          
     9     -1.372026  1 H  py                44     -1.372026  2 H  py         
    12      0.630618  1 H  py                47      0.630618  2 H  py         
     2     -0.624011  1 H  s                 37      0.624011  2 H  s          

 Vector   12  Occ=0.000000D+00  E= 6.069344D-01
              MO Center= -7.5D-13,  5.4D-09,  4.6D-13, r^2= 6.7D+00
   Bfn.  Coefficient  Atom+Function         Bfn.  Coefficient  Atom+Function  
  ----- ------------  ---------------      ----- ------------  ---------------
     3      2.073804  1 H  s                 38     -2.073804  2 H  s          
     4     -1.170793  1 H  s                 39      1.170793  2 H  s          
     9      1.091114  1 H  py                44      1.091114  2 H  py         
    12     -0.822531  1 H  py                47     -0.822531  2 H  py         
     2     -0.565382  1 H  s                 37      0.565382  2 H  s          


 center of mass
 --------------
 x =   0.00000000 y =   0.00000000 z =   0.00000000

 moments of inertia (a.u.)
 ------------------
          26.122824000000           0.000000000000           0.000000000000
           0.000000000000           0.000000000000           0.000000000000
           0.000000000000           0.000000000000          26.122824000000

  Mulliken analysis of the total density
  --------------------------------------

    Atom       Charge   Shell Charges
 -----------   ------   -------------------------------------------------------
    1 H    1     1.00   0.04  0.21  0.48  0.26 -0.00  0.00 -0.00  0.00  0.00 -0.00
    2 H    1     1.00   0.04  0.21  0.48  0.26 -0.00  0.00 -0.00  0.00  0.00 -0.00

       Multipole analysis of the density wrt the origin
       ------------------------------------------------

     L   x y z        total         open         nuclear
     -   - - -        -----         ----         -------
     0   0 0 0     -0.000000      0.000000      2.000000

     1   1 0 0     -0.000000      0.000000      0.000000
     1   0 1 0     -0.000000      0.000000      0.000000
     1   0 0 1      0.000000      0.000000      0.000000

     2   2 0 0     -2.041825      0.000000      0.000000
     2   1 1 0     -0.000000      0.000000      0.000000
     2   1 0 1      0.000000      0.000000      0.000000
     2   0 2 0     -1.661559      0.000000     25.920000
     2   0 1 1      0.000000      0.000000      0.000000
     2   0 0 2     -2.041825      0.000000      0.000000


 Parallel integral file used       7 records with       0 large values

                   NWChem Extensible Many-Electron Theory Module
                   ---------------------------------------------

              ======================================================
                   This portion of the program was automatically
                  generated by a Tensor Contraction Engine (TCE).
                  The development of this portion of the program
                 and TCE was supported by US Department of Energy,
                Office of Science, Office of Basic Energy Science.
                      TCE is a product of Battelle and PNNL.
              Please cite: S.Hirata, J.Phys.Chem.A 107, 9887 (2003).
              ======================================================

                                        H2


            General Information
            -------------------
      Number of processors :     1
         Wavefunction type : Restricted Hartree-Fock
          No. of electrons :     2
           Alpha electrons :     1
            Beta electrons :     1
           No. of orbitals :   140
            Alpha orbitals :    70
             Beta orbitals :    70
        Alpha frozen cores :     0
         Beta frozen cores :     0
     Alpha frozen virtuals :     0
      Beta frozen virtuals :     0
         Spin multiplicity : singlet 
    Number of AO functions :    70
       Number of AO shells :    20
        Use of symmetry is : off
      Symmetry adaption is : off
         Schwarz screening : 0.10D-09

          Correlation Information
          -----------------------
          Calculation type : Coupled-cluster singles & doubles                           
   Perturbative correction : none                                                        
            Max iterations :      300
        Residual threshold : 0.10D-06
     T(0) DIIS level shift : 0.80D+00
     L(0) DIIS level shift : 0.00D+00
     T(1) DIIS level shift : 0.00D+00
     L(1) DIIS level shift : 0.00D+00
     T(R) DIIS level shift : 0.00D+00
     T(I) DIIS level shift : 0.00D+00
   CC-T/L Amplitude update :  5-th order DIIS
                I/O scheme : Global Array Library
        L-threshold :  0.10D-06
        EOM-threshold :  0.10D-06
 no EOMCCSD initial starts read in
 TCE RESTART OPTIONS
 READ_INT:   F
 WRITE_INT:  F
 READ_TA:    F
 WRITE_TA:   F
 READ_XA:    F
 WRITE_XA:   F
 READ_IN3:   F
 WRITE_IN3:  F
 SLICE:      F
 D4D5:       F
 quantumc:   F
 qrotation:  F
 pwtce:      F
 qducc:      T
 nacto:                         0
 nrotv:                         0
 nrot:                          0

            Memory Information
            ------------------
          Available GA space size is    1610607836 doubles
          Available MA space size is    1610610644 doubles

 Maximum block size        32 doubles

 tile_dim =     23

 Block   Spin    Irrep     Size     Offset   Alpha
 -------------------------------------------------
   1    alpha     a      1 doubles       0       1
   2    beta      a      1 doubles       1       1
   3    alpha     a     23 doubles       2       3
   4    alpha     a     23 doubles      25       4
   5    alpha     a     23 doubles      48       5
   6    beta      a     23 doubles      71       3
   7    beta      a     23 doubles      94       4
   8    beta      a     23 doubles     117       5

 Global array virtual files algorithm will be used

 Parallel file system coherency ......... OK

 Integral file          = ./H2.aoints.0
 Record size in doubles =  65536        No. of integs per rec  =  43688
 Max. records in memory =     99        Max. records in file   = 280173
 No. of bits per label  =      8        No. of bits per value  =     64


 #quartets = 1.488D+04 #integrals = 3.413D+05 #direct =  0.0% #cached =100.0%


 Fock matrix recomputed
 1-e file size   =             4900
 1-e file name   = ./H2.f1
 Cpu & wall time / sec            0.0            0.0
 4-electron integrals stored in orbital form

 v2    file size   =          6102085
 4-index algorithm nr.  13 is used
 imaxsize =       30
 imaxsize ichop =        0
 Cpu & wall time / sec            1.8            1.8
 T1-number-of-tasks                    3

 t1 file size   =               69
 t1 file name   = ./H2.t1
 t1 file handle =       -998
 T2-number-of-boxes                   15

 t2 file size   =             7935
 t2 file name   = ./H2.t2
 t2 file handle =       -996
CCSD iterations
 ---------------------------------------------------------
 Iter          Residuum       Correlation     Cpu    Wall 
 ---------------------------------------------------------
NEW TASK SCHEDULING
CCSD_T1_NTS --- OK
CCSD_T2_NTS --- OK
    1   6.6555297791600  -0.7523639571300     0.2     0.2
    2   6.0423911138339  -0.9047476716341     0.2     0.2
    3   2.7804623174161   0.0083894385406     0.0     0.1
    4   3.3072794857695  -0.5971559140573     0.1     0.1
    5   3.1508076267522   0.0108772618977     0.1     0.1
 MICROCYCLE DIIS UPDATE:                    5                    5
    6   1.4642388491625  -0.4105743181592     0.1     0.1
    7   1.2271947825470  -0.4318041411209     0.1     0.1
    8   1.0557955521134  -0.2753334888272     0.1     0.1
    9   1.3004434944150  -0.3453972922214     0.1     0.1
   10   1.5054147295077  -0.2027126646965     0.0     0.1
 MICROCYCLE DIIS UPDATE:                   10                    5
   11   0.2395906511577  -0.2915444152277     0.1     0.1
   12   0.2075067331820  -0.2794465323495     0.2     0.2
   13   0.2048261678621  -0.2617642278323     0.2     0.2
   14   0.2345148405673  -0.2620260816238     0.2     0.2
   15   0.2702151279697  -0.2447583321693     0.2     0.2
 MICROCYCLE DIIS UPDATE:                   15                    5
   16   0.0237606044311  -0.2391605033652     0.2     0.2
   17   0.0191194818348  -0.2381631509926     0.2     0.2
   18   0.0197935558601  -0.2368549831876     0.2     0.2
   19   0.0236637542347  -0.2361201864342     0.2     0.2
   20   0.0306399331859  -0.2351873286067     0.0     0.1
 MICROCYCLE DIIS UPDATE:                   20                    5
   21   0.0023329608829  -0.2330167669562     0.1     0.1
   22   0.0014031948956  -0.2329709610433     0.1     0.1
   23   0.0011293107700  -0.2328187135446     0.1     0.1
   24   0.0011805487521  -0.2328107107482     0.1     0.1
   25   0.0012991480564  -0.2326979024192     0.1     0.1
 MICROCYCLE DIIS UPDATE:                   25                    5
   26   0.0003322864825  -0.2326461861467     0.1     0.1
   27   0.0002407145060  -0.2326315226355     0.1     0.1
   28   0.0002162480156  -0.2326175525900     0.1     0.1
   29   0.0002182437207  -0.2326060279429     0.1     0.1
   30   0.0002624186860  -0.2325954963229     0.1     0.1
 MICROCYCLE DIIS UPDATE:                   30                    5
   31   0.0000391815370  -0.2325643282291     0.1     0.1
   32   0.0000219608622  -0.2325638931436     0.1     0.1
   33   0.0000152986784  -0.2325610488424     0.1     0.1
   34   0.0000131183868  -0.2325609695777     0.1     0.1
   35   0.0000113244831  -0.2325591431440     0.1     0.1
 MICROCYCLE DIIS UPDATE:                   35                    5
   36   0.0000054206712  -0.2325582913122     0.1     0.1
   37   0.0000038257393  -0.2325580239947     0.1     0.1
   38   0.0000029941909  -0.2325577390235     0.1     0.1
   39   0.0000024193411  -0.2325575380969     0.0     0.1
   40   0.0000022393066  -0.2325573293912     0.1     0.1
 MICROCYCLE DIIS UPDATE:                   40                    5
   41   0.0000006352945  -0.2325567359225     0.1     0.1
   42   0.0000003924296  -0.2325567244638     0.1     0.1
   43   0.0000003540477  -0.2325566915738     0.0     0.1
   44   0.0000003776134  -0.2325566805076     0.1     0.1
   45   0.0000004389350  -0.2325566687332     0.1     0.1
 MICROCYCLE DIIS UPDATE:                   45                    5
   46   0.0000000799294  -0.2325566489823     0.1     0.1
 -----------------------------------------------------------------
 Iterations converged
 CCSD correlation energy / hartree =        -0.232556648982322
 CCSD total energy / hartree       =        -1.000004504705747

 Singles contributions

 Doubles contributions
     2a   (alpha)     2a   (beta ) ---     1a   (alpha)     1a   (beta )       -0.9553266792
 Ground state specification:
 exp(T)|Ref>~(1+T)|Ref>
 ------- a(p)+/a(q) strings ----------

 singles norm

 doubles norm

 Reference string
  0.72307334775241094      :(1a)+ (1b)+ |0>

 Singles strings

 Doubles strings
 -0.69077126009274670      :(2a)+ (2b)+ (1b)  (1a)  (1a)+ (1b)+ |0>
 -------------------------------------
 enrep_tce =   0.13888888888888887     
  EHF(total)         =        -0.76744786
  Shift (HFtot-HFA)  =         0.00000000
 ALL OCCUPIED ORBITALS ARE ACTIVE IN DUCC --> NO SHIFT
 Number of active orbitals                   10
 Number of active alpha electrons                    1
 Number of active beta electrons                    1
  nos                     2
  nvs                   138
 noas                     1
 nobs                     1
 nvas                    69
 nvbs                    69
 nactv                     9
 DUCC MODEL =                     6
 NONHF =  T
 F-T1 correlation    =    1.9898711262815482E-005
 V-T1-T1 correlation =    7.7343935702747333E-010
 V-T2 correlation    =  -0.23257654846699424     
 Total correlation   =  -0.23255664898229206     
 F-T1(Ext) correlation         =   -2.0126426793954669E-007
 V-T1(Ext)-T1(Ext) correlation =    1.1912914361245043E-011
 V-T2(Ext) correlation         =    5.6033510599522546E-005
 Total Ext correlation         =    5.5832258244497364E-005
1-BODY TIME =   30.558 SECONDS.
  HHHH TIME =   24.248 SECONDS.
  PPPP TIME =   35.873 SECONDS.
  HHHP TIME =    2.395 SECONDS.
  PPPH TIME =    2.663 SECONDS.
  HPHP TIME =    4.235 SECONDS.
  HHPP TIME =    2.226 SECONDS.
 ONE-BODY UNITARY CHECK
 TWO-BODY UNITARY CHECK
 TWO-BODY ANTISYMMETRY CHECK
 TRANSFORMED ~FOCK~ MATRIX
    1    1        -0.2639513532
    1    3         0.0173847327
    1    6         0.0840067550
    1    9         0.0000000002
    1   10        -0.0386575282
    2    2        -0.1145419599
    2    9         0.0799060786
    2   10         0.0000000004
    3    1         0.0173847327
    3    3         0.5205155807
    3    6        -0.1050856743
    3    9         0.0000000008
    3   10        -0.1952864457
    4    4         0.5747017820
    5    5         0.5747017820
    6    1         0.0840067550
    6    3        -0.1050856743
    6    6         0.8883391102
    6    9        -0.0000000033
    6   10         0.4041562835
    7    7         1.3986694552
    8    8         1.3986694552
    9    1         0.0000000002
    9    2         0.0799060786
    9    3         0.0000000008
    9    6        -0.0000000033
    9    9         1.4159559438
    9   10        -0.0000000023
   10    1        -0.0386575282
   10    2         0.0000000004
   10    3        -0.1952864457
   10    6         0.4041562835
   10    9        -0.0000000023
   10   10         2.0552703943
 begin_one_electron_integrals
    1    1        -0.6422634601
    1    3         0.0217980894
    1    6        -0.0003847941
    1   10        -0.0004722033
    2    2        -0.6352993511
    2    9        -0.0013280347
    3    1         0.0217980894
    3    3        -0.0450437484
    3    6        -0.0888074279
    3    9         0.0000000004
    3   10        -0.1167144211
    4    4         0.0057586974
    5    5         0.0057586974
    6    1        -0.0003847941
    6    3        -0.0888074279
    6    6         0.2585050863
    6    9        -0.0000000029
    6   10         0.3930119334
    7    7         0.6793270756
    8    8         0.6793270756
    9    2        -0.0013280347
    9    3         0.0000000004
    9    6        -0.0000000029
    9    9         0.7049616330
    9   10        -0.0000000026
   10    1        -0.0004722033
   10    3        -0.1167144211
   10    6         0.3930119334
   10    9        -0.0000000026
   10   10         1.3668321252
 end_one_electron_integrals
 begin_two_electron_integrals
    1    1    1    1        0.3783121068
    1    1    1    3       -0.0044133567
    1    1    1    6        0.0843915491
    1    1    1    9        0.0000000002
    1    1    1   10       -0.0381853249
    1    2    1    2        0.2431444142
    1    2    1    9        0.0755798776
    1    2    1   10        0.0000000003
    1    3    1    1       -0.0044133567
    1    3    1    3        0.0404253172
    1    3    1    6       -0.0046620712
    1    3    1   10       -0.0141200775
    1    4    1    4        0.0402388708
    1    5    1    5        0.0402388708
    1    6    1    1        0.0843915491
    1    6    1    3       -0.0046620712
    1    6    1    6        0.0621835214
    1    6    1   10       -0.0200876976
    1    7    1    7        0.0582672760
    1    8    1    8        0.0582672760
    1    9    1    1        0.0000000002
    1    9    1    2        0.0755798776
    1    9    1    9        0.0675910116
    1    9    1   10        0.0000000002
    1   10    1    1       -0.0381853249
    1   10    1    2        0.0000000003
    1   10    1    3       -0.0141200775
    1   10    1    6       -0.0200876976
    1   10    1    9        0.0000000002
    1   10    1   10        0.0365102524
    1    1    2    2        0.3819177168
    1    1    2    9        0.0784777788
    1    1    2   10        0.0000000004
    1    2    2    1        0.2430780424
    1    2    2    3        0.0182442750
    1    2    2    6        0.0881449006
    1    2    2    9        0.0000000002
    1    2    2   10       -0.0407429615
    1    3    2    2       -0.0027253459
    1    3    2    9       -0.0066765174
    1    3    2   10       -0.0000000002
    1    4    2    7        0.0022041242
    1    4    2    8       -0.0464218288
    1    5    2    7       -0.0464218288
    1    5    2    8       -0.0022041242
    1    6    2    2        0.0868184599
    1    6    2    9        0.0648470098
    1    6    2   10        0.0000000004
    1    7    2    4        0.0020977715
    1    7    2    5       -0.0441818977
    1    8    2    4       -0.0441818977
    1    8    2    5       -0.0020977715
    1    9    2    1        0.0757214442
    1    9    2    2        0.0000000002
    1    9    2    3       -0.0056041991
    1    9    2    6        0.0646451938
    1    9    2    9        0.0000000001
    1    9    2   10       -0.0213369951
    1   10    2    1        0.0000000003
    1   10    2    2       -0.0398105015
    1   10    2    3       -0.0000000001
    1   10    2    6        0.0000000004
    1   10    2    9       -0.0210187272
    1    1    3    1       -0.0044133567
    1    1    3    3        0.3028245934
    1    1    3    6       -0.0104639027
    1    1    3    9        0.0000000002
    1    1    3   10       -0.0463418821
    1    2    3    2        0.0182486111
    1    2    3    3       -0.0000000004
    1    2    3    6       -0.0000000001
    1    2    3    9       -0.0199913450
    1    2    3   10       -0.0000000006
    1    3    3    1        0.0400898577
    1    3    3    3       -0.0215497762
    1    3    3    6       -0.0052740537
    1    3    3    9       -0.0000000001
    1    3    3   10        0.0325675750
    1    4    3    4       -0.0062166663
    1    5    3    5       -0.0062166663
    1    6    3    1       -0.0046495590
    1    6    3    3        0.0346454879
    1    6    3    6       -0.0122224638
    1    6    3    9        0.0000000002
    1    6    3   10       -0.0281359506
    1    7    3    7       -0.0104242183
    1    8    3    8       -0.0104242183
    1    9    3    2       -0.0056171702
    1    9    3    9       -0.0129017715
    1   10    3    1       -0.0141117397
    1   10    3    2       -0.0000000001
    1   10    3    3        0.0037691632
    1   10    3    6       -0.0059472118
    1   10    3   10       -0.0037992256
    1    1    4    4        0.3045182002
    1    2    4    7        0.0078652094
    1    2    4    8       -0.1656519195
    1    3    4    4       -0.0163346524
    1    4    4    1        0.0400933157
    1    4    4    3       -0.0062169511
    1    4    4    6       -0.0153314163
    1    4    4   10       -0.0042957219
    1    6    4    4        0.0321187528
    1    7    4    2        0.0020996460
    1    7    4    9       -0.0005606557
    1    8    4    2       -0.0442213763
    1    8    4    9        0.0118081651
    1    9    4    4        0.0000000001
    1    9    4    7        0.0018407090
    1    9    4    8       -0.0387678146
    1   10    4    4       -0.0146375020
    1   10    4    8       -0.0000000002
    1    1    5    5        0.3045182002
    1    2    5    7       -0.1656519195
    1    2    5    8       -0.0078652094
    1    3    5    5       -0.0163346524
    1    5    5    1        0.0400933157
    1    5    5    3       -0.0062169511
    1    5    5    6       -0.0153314163
    1    5    5   10       -0.0042957219
    1    6    5    5        0.0321187528
    1    7    5    2       -0.0442213763
    1    7    5    9        0.0118081651
    1    8    5    2       -0.0020996460
    1    8    5    9        0.0005606557
    1    9    5    5        0.0000000001
    1    9    5    7       -0.0387678146
    1    9    5    8       -0.0018407090
    1   10    5    5       -0.0146375020
    1   10    5    7       -0.0000000002
    1    1    6    1        0.0843915491
    1    1    6    3       -0.0104639027
    1    1    6    6        0.3460061321
    1    1    6    9       -0.0000000002
    1    1    6   10       -0.0044931963
    1    2    6    2        0.0881422944
    1    2    6    3       -0.0000000001
    1    2    6    6       -0.0000000001
    1    2    6    9        0.2098153432
    1    2    6   10        0.0000000012
    1    3    6    1       -0.0046495590
    1    3    6    3       -0.0052740779
    1    3    6    6       -0.0266370750
    1    3    6    9        0.0000000002
    1    3    6   10       -0.0281259806
    1    4    6    4       -0.0153331101
    1    5    6    5       -0.0153331101
    1    6    6    1        0.0621782402
    1    6    6    3       -0.0122276320
    1    6    6    6        0.0797330724
    1    6    6   10       -0.0072237942
    1    7    6    7        0.0159376433
    1    8    6    8        0.0159376433
    1    9    6    2        0.0646508707
    1    9    6    9        0.0865200449
    1    9    6   10        0.0000000004
    1   10    6    1       -0.0201307427
    1   10    6    2        0.0000000004
    1   10    6    3       -0.0059456555
    1   10    6    6       -0.0243234357
    1   10    6    9        0.0000000004
    1   10    6   10        0.0280167576
    1    1    7    7        0.3892623448
    1    2    7    4        0.0078653697
    1    2    7    5       -0.1656552954
    1    3    7    7       -0.0264711592
    1    4    7    2        0.0022061575
    1    4    7    9       -0.0000080574
    1    5    7    2       -0.0464646538
    1    5    7    9        0.0001697002
    1    6    7    7        0.0845182491
    1    7    7    1        0.0591823099
    1    7    7    3       -0.0104205653
    1    7    7    6        0.0159209096
    1    7    7   10       -0.0126740307
    1    9    7    4        0.0018397559
    1    9    7    5       -0.0387477411
    1    9    7    7        0.0000000002
    1   10    7    5       -0.0000000002
    1   10    7    7       -0.0311924504
    1    1    8    8        0.3892623448
    1    2    8    4       -0.1656552954
    1    2    8    5       -0.0078653697
    1    3    8    8       -0.0264711592
    1    4    8    2       -0.0464646538
    1    4    8    9        0.0001697002
    1    5    8    2       -0.0022061575
    1    5    8    9        0.0000080574
    1    6    8    8        0.0845182491
    1    8    8    1        0.0591823099
    1    8    8    3       -0.0104205653
    1    8    8    6        0.0159209096
    1    8    8   10       -0.0126740307
    1    9    8    4       -0.0387477411
    1    9    8    5       -0.0018397559
    1    9    8    8        0.0000000002
    1   10    8    4       -0.0000000002
    1   10    8    8       -0.0311924504
    1    1    9    1        0.0000000002
    1    1    9    2        0.0784777788
    1    1    9    3        0.0000000002
    1    1    9    6       -0.0000000002
    1    1    9    9        0.3892552492
    1    1    9   10        0.0000000003
    1    2    9    1        0.0757214442
    1    2    9    2        0.0000000002
    1    2    9    3       -0.0200068630
    1    2    9    6        0.2098176750
    1    2    9    9       -0.0000000002
    1    2    9   10       -0.0235849701
    1    3    9    2       -0.0067049757
    1    3    9    3       -0.0000000001
    1    3    9    6        0.0000000002
    1    3    9    9       -0.0290930281
    1    4    9    7       -0.0000076866
    1    4    9    8        0.0001618901
    1    5    9    7        0.0001618901
    1    5    9    8        0.0000076866
    1    6    9    2        0.0648550079
    1    6    9    3        0.0000000002
    1    6    9    9        0.1056548736
    1    6    9   10        0.0000000002
    1    7    9    4       -0.0005612385
    1    7    9    5        0.0118204397
    1    8    9    4        0.0118204397
    1    8    9    5        0.0005612385
    1    9    9    1        0.0675161875
    1    9    9    2        0.0000000001
    1    9    9    3       -0.0128965357
    1    9    9    6        0.0865263069
    1    9    9    9        0.0000000001
    1    9    9   10       -0.0143558518
    1   10    9    1        0.0000000002
    1   10    9    2       -0.0210004044
    1   10    9    6        0.0000000004
    1   10    9    9       -0.0343704060
    1   10    9   10       -0.0000000001
    1    1   10    1       -0.0381853249
    1    1   10    2        0.0000000004
    1    1   10    3       -0.0463418821
    1    1   10    6       -0.0044931963
    1    1   10    9        0.0000000003
    1    1   10   10        0.3624438606
    1    2   10    1        0.0000000003
    1    2   10    2       -0.0407513099
    1    2   10    3       -0.0000000006
    1    2   10    6        0.0000000012
    1    2   10    9       -0.0235920012
    1    3   10    1       -0.0141117397
    1    3   10    2       -0.0000000002
    1    3   10    3        0.0325653395
    1    3   10    6       -0.0281263923
    1    3   10   10       -0.0244655992
    1    4   10    4       -0.0042958861
    1    5   10    5       -0.0042958861
    1    6   10    1       -0.0201307427
    1    6   10    2        0.0000000004
    1    6   10    3       -0.0281348057
    1    6   10    6       -0.0072237219
    1    6   10    9        0.0000000002
    1    6   10   10        0.0830690439
    1    7   10    7       -0.0126803687
    1    8   10    8       -0.0126803687
    1    9   10    1        0.0000000002
    1    9   10    2       -0.0213257015
    1    9   10    6        0.0000000004
    1    9   10    9       -0.0143482118
    1    9   10   10        0.0000000001
    1   10   10    1        0.0364494521
    1   10   10    3       -0.0038007573
    1   10   10    6        0.0280166963
    1   10   10    9       -0.0000000001
    1   10   10   10       -0.0056404704
    2    1    1    2        0.2430780424
    2    1    1    9        0.0757214442
    2    1    1   10        0.0000000003
    2    2    1    1        0.3819177168
    2    2    1    3       -0.0027253459
    2    2    1    6        0.0868184599
    2    2    1    9        0.0000000002
    2    2    1   10       -0.0398105015
    2    3    1    2        0.0182442750
    2    3    1    9       -0.0056041991
    2    3    1   10       -0.0000000001
    2    4    1    7        0.0020977715
    2    4    1    8       -0.0441818977
    2    5    1    7       -0.0441818977
    2    5    1    8       -0.0020977715
    2    6    1    2        0.0881449006
    2    6    1    9        0.0646451938
    2    6    1   10        0.0000000004
    2    7    1    4        0.0022041242
    2    7    1    5       -0.0464218288
    2    8    1    4       -0.0464218288
    2    8    1    5       -0.0022041242
    2    9    1    1        0.0784777788
    2    9    1    2        0.0000000002
    2    9    1    3       -0.0066765174
    2    9    1    6        0.0648470098
    2    9    1    9        0.0000000001
    2    9    1   10       -0.0210187272
    2   10    1    1        0.0000000004
    2   10    1    2       -0.0407429615
    2   10    1    3       -0.0000000002
    2   10    1    6        0.0000000004
    2   10    1    9       -0.0213369951
    2    1    2    1        0.2431444142
    2    1    2    3        0.0182486111
    2    1    2    6        0.0881422944
    2    1    2    9        0.0000000002
    2    1    2   10       -0.0407513099
    2    2    2    2        0.3858769256
    2    2    2    9        0.0807284006
    2    2    2   10        0.0000000004
    2    3    2    1        0.0182486111
    2    3    2    3        0.0340805524
    2    3    2    6       -0.0043404958
    2    3    2   10       -0.0138624181
    2    4    2    4        0.0377399621
    2    5    2    5        0.0377399621
    2    6    2    1        0.0881422944
    2    6    2    3       -0.0043404958
    2    6    2    6        0.0644197016
    2    6    2   10       -0.0212550771
    2    7    2    7        0.0621211110
    2    8    2    8        0.0621211110
    2    9    2    1        0.0000000002
    2    9    2    2        0.0807284006
    2    9    2    9        0.0699401111
    2    9    2   10        0.0000000002
    2   10    2    1       -0.0407513099
    2   10    2    2        0.0000000004
    2   10    2    3       -0.0138624181
    2   10    2    6       -0.0212550771
    2   10    2    9        0.0000000002
    2   10    2   10        0.0373547500
    2    1    3    2        0.0182442750
    2    1    3    3       -0.0000000004
    2    1    3    6       -0.0000000001
    2    1    3    9       -0.0200068630
    2    1    3   10       -0.0000000006
    2    2    3    1       -0.0027253459
    2    2    3    3        0.3031047001
    2    2    3    6       -0.0115451547
    2    2    3    9        0.0000000002
    2    2    3   10       -0.0461925033
    2    3    3    2        0.0340805539
    2    3    3    9       -0.0070024631
    2    3    3   10       -0.0000000001
    2    4    3    7       -0.0003641461
    2    4    3    8        0.0076694075
    2    5    3    7        0.0076694075
    2    5    3    8        0.0003641461
    2    6    3    2       -0.0043404962
    2    6    3    9       -0.0122351185
    2    6    3   10       -0.0000000002
    2    7    3    4       -0.0003810393
    2    7    3    5        0.0080252019
    2    8    3    4        0.0080252019
    2    8    3    5        0.0003810393
    2    9    3    1       -0.0067049757
    2    9    3    3        0.0273978459
    2    9    3    6       -0.0121803555
    2    9    3    9        0.0000000002
    2    9    3   10       -0.0271547464
    2   10    3    1       -0.0000000002
    2   10    3    2       -0.0138624185
    2   10    3    3        0.0000000002
    2   10    3    9       -0.0019621682
    2   10    3   10       -0.0000000003
    2    1    4    7        0.0078653697
    2    1    4    8       -0.1656552954
    2    2    4    4        0.3058466842
    2    3    4    7       -0.0000443013
    2    3    4    8        0.0009330444
    2    4    4    2        0.0377399626
    2    4    4    9       -0.0170405724
    2    6    4    7        0.0023487882
    2    6    4    8       -0.0494686479
    2    7    4    1        0.0022061575
    2    7    4    3       -0.0003810393
    2    7    4    6       -0.0004086738
    2    7    4   10       -0.0003191335
    2    8    4    1       -0.0464646538
    2    8    4    3        0.0080252026
    2    8    4    6        0.0086072223
    2    8    4   10        0.0067213811
    2    9    4    4        0.0253025843
    2    9    4    8       -0.0000000001
    2   10    4    4        0.0000000002
    2   10    4    7       -0.0009357235
    2   10    4    8        0.0197075985
    2    1    5    7       -0.1656552954
    2    1    5    8       -0.0078653697
    2    2    5    5        0.3058466842
    2    3    5    7        0.0009330444
    2    3    5    8        0.0000443013
    2    5    5    2        0.0377399626
    2    5    5    9       -0.0170405724
    2    6    5    7       -0.0494686479
    2    6    5    8       -0.0023487882
    2    7    5    1       -0.0464646538
    2    7    5    3        0.0080252026
    2    7    5    6        0.0086072223
    2    7    5   10        0.0067213811
    2    8    5    1       -0.0022061575
    2    8    5    3        0.0003810393
    2    8    5    6        0.0004086738
    2    8    5   10        0.0003191335
    2    9    5    5        0.0253025843
    2    9    5    7       -0.0000000001
    2   10    5    5        0.0000000002
    2   10    5    7        0.0197075985
    2   10    5    8        0.0009357235
    2    1    6    2        0.0881449006
    2    1    6    3       -0.0000000001
    2    1    6    6       -0.0000000001
    2    1    6    9        0.2098176750
    2    1    6   10        0.0000000012
    2    2    6    1        0.0868184599
    2    2    6    3       -0.0115451547
    2    2    6    6        0.3481520959
    2    2    6    9       -0.0000000002
    2    2    6   10       -0.0059572091
    2    3    6    2       -0.0043404962
    2    3    6    9       -0.0038540995
    2    4    6    7        0.0002910512
    2    4    6    8       -0.0061299310
    2    5    6    7       -0.0061299310
    2    5    6    8       -0.0002910512
    2    6    6    2        0.0644197020
    2    6    6    9        0.0924238058
    2    6    6   10        0.0000000006
    2    7    6    4       -0.0004086738
    2    7    6    5        0.0086072217
    2    8    6    4        0.0086072217
    2    8    6    5        0.0004086738
    2    9    6    1        0.0648550079
    2    9    6    3       -0.0121803558
    2    9    6    6        0.0796905655
    2    9    6   10       -0.0087970684
    2   10    6    1        0.0000000004
    2   10    6    2       -0.0212550769
    2   10    6    6        0.0000000005
    2   10    6    9       -0.0304161364
    2    1    7    4        0.0078652094
    2    1    7    5       -0.1656519195
    2    2    7    7        0.3925241143
    2    3    7    4       -0.0000443013
    2    3    7    5        0.0009330454
    2    4    7    1        0.0020996460
    2    4    7    3       -0.0003641461
    2    4    7    6        0.0002910512
    2    4    7   10       -0.0004297420
    2    5    7    1       -0.0442213763
    2    5    7    3        0.0076694091
    2    5    7    6       -0.0061299307
    2    5    7   10        0.0090509452
    2    6    7    4        0.0023487882
    2    6    7    5       -0.0494686481
    2    7    7    2        0.0621211166
    2    7    7    9        0.0096284723
    2    7    7   10        0.0000000001
    2    9    7    5       -0.0000000001
    2    9    7    7        0.0772508971
    2   10    7    4       -0.0009357235
    2   10    7    5        0.0197075988
    2   10    7    7        0.0000000005
    2    1    8    4       -0.1656519195
    2    1    8    5       -0.0078652094
    2    2    8    8        0.3925241143
    2    3    8    4        0.0009330454
    2    3    8    5        0.0000443013
    2    4    8    1       -0.0442213763
    2    4    8    3        0.0076694091
    2    4    8    6       -0.0061299307
    2    4    8   10        0.0090509452
    2    5    8    1       -0.0020996460
    2    5    8    3        0.0003641461
    2    5    8    6       -0.0002910512
    2    5    8   10        0.0004297420
    2    6    8    4       -0.0494686481
    2    6    8    5       -0.0023487882
    2    8    8    2        0.0621211166
    2    8    8    9        0.0096284723
    2    8    8   10        0.0000000001
    2    9    8    4       -0.0000000001
    2    9    8    8        0.0772508971
    2   10    8    4        0.0197075988
    2   10    8    5        0.0009357235
    2   10    8    8        0.0000000005
    2    1    9    1        0.0755798776
    2    1    9    2        0.0000000002
    2    1    9    3       -0.0199913450
    2    1    9    6        0.2098153432
    2    1    9    9       -0.0000000002
    2    1    9   10       -0.0235920012
    2    2    9    1        0.0000000002
    2    2    9    2        0.0807284006
    2    2    9    3        0.0000000002
    2    2    9    6       -0.0000000002
    2    2    9    9        0.3925421947
    2    2    9   10        0.0000000003
    2    3    9    1       -0.0056171702
    2    3    9    3       -0.0070024609
    2    3    9    6       -0.0038540995
    2    3    9    9        0.0000000002
    2    3    9   10       -0.0193225280
    2    4    9    4       -0.0170405716
    2    5    9    5       -0.0170405716
    2    6    9    1        0.0646508707
    2    6    9    3       -0.0122351188
    2    6    9    6        0.0924238064
    2    6    9   10       -0.0132263895
    2    7    9    7        0.0096284748
    2    8    9    8        0.0096284748
    2    9    9    1        0.0000000001
    2    9    9    2        0.0699401132
    2    9    9    3        0.0000000002
    2    9    9    9        0.1067229364
    2    9    9   10        0.0000000001
    2   10    9    1       -0.0213257015
    2   10    9    2        0.0000000002
    2   10    9    3       -0.0019621694
    2   10    9    6       -0.0304161357
    2   10    9    9        0.0000000004
    2   10    9   10        0.0267506324
    2    1   10    1        0.0000000003
    2    1   10    2       -0.0407429615
    2    1   10    3       -0.0000000006
    2    1   10    6        0.0000000012
    2    1   10    9       -0.0235849701
    2    2   10    1       -0.0398105015
    2    2   10    2        0.0000000004
    2    2   10    3       -0.0461925033
    2    2   10    6       -0.0059572091
    2    2   10    9        0.0000000003
    2    2   10   10        0.3649428778
    2    3   10    1       -0.0000000001
    2    3   10    2       -0.0138624185
    2    3   10    3       -0.0000000001
    2    3   10    9       -0.0193225265
    2    3   10   10       -0.0000000003
    2    4   10    7       -0.0004297421
    2    4   10    8        0.0090509476
    2    5   10    7        0.0090509476
    2    5   10    8        0.0004297421
    2    6   10    1        0.0000000004
    2    6   10    2       -0.0212550769
[...]
    9    2    9   10        0.0000000001
    9    3    9    1       -0.0129017715
    9    3    9    2        0.0000000002
    9    3    9    3        0.0133676305
    9    3    9    6       -0.0179861317
    9    3    9    9        0.0000000004
    9    3    9   10       -0.0018589328
    9    4    9    4        0.0183577950
    9    5    9    5        0.0183577950
    9    6    9    1        0.0865200449
    9    6    9    3       -0.0179861317
    9    6    9    6        0.2085294808
    9    6    9    9       -0.0000000005
    9    6    9   10       -0.0132698931
    9    7    9    7        0.0172705929
    9    8    9    8        0.0172705929
    9    9    9    1        0.0000000001
    9    9    9    2        0.1067229364
    9    9    9    3        0.0000000004
    9    9    9    6       -0.0000000005
    9    9    9    9        0.4403494983
    9    9    9   10        0.0000000002
    9   10    9    1       -0.0143482118
    9   10    9    2        0.0000000001
    9   10    9    3       -0.0018589328
    9   10    9    6       -0.0132698931
    9   10    9    9        0.0000000002
    9   10    9   10        0.0313177596
    9    1   10    1        0.0000000002
    9    1   10    2       -0.0213369951
    9    1   10    6        0.0000000004
    9    1   10    9       -0.0143558518
    9    1   10   10        0.0000000001
    9    2   10    1       -0.0210187272
    9    2   10    2        0.0000000002
    9    2   10    3       -0.0271547464
    9    2   10    6       -0.0087970684
    9    2   10    9        0.0000000001
    9    2   10   10        0.0767607990
    9    3   10    2       -0.0019621682
    9    3   10    3       -0.0000000001
    9    3   10    9       -0.0018589342
    9    3   10   10        0.0000000003
    9    4   10    7        0.0001410349
    9    4   10    8       -0.0029703847
    9    5   10    7       -0.0029703847
    9    5   10    8       -0.0001410349
    9    6   10    1        0.0000000004
    9    6   10    2       -0.0304161364
    9    6   10    3       -0.0000000003
    9    6   10    6        0.0000000010
    9    6   10    9       -0.0132698923
    9    7   10    4        0.0000186184
    9    7   10    5       -0.0003921289
    9    8   10    4       -0.0003921289
    9    8   10    5       -0.0000186184
    9    9   10    1       -0.0343704060
    9    9   10    2        0.0000000004
    9    9   10    3       -0.0652511242
    9    9   10    6        0.0069893456
    9    9   10    9        0.0000000002
    9    9   10   10        0.3834767379
    9   10   10    1       -0.0000000001
    9   10   10    2        0.0267506308
    9   10   10    6       -0.0000000001
    9   10   10    9        0.0313177633
    9   10   10   10        0.0000000005
   10    1    1    1       -0.0381853249
   10    1    1    2        0.0000000003
   10    1    1    3       -0.0141117397
   10    1    1    6       -0.0201307427
   10    1    1    9        0.0000000002
   10    1    1   10        0.0364494521
   10    2    1    1        0.0000000004
   10    2    1    2       -0.0407513099
   10    2    1    3       -0.0000000002
   10    2    1    6        0.0000000004
   10    2    1    9       -0.0213257015
   10    3    1    1       -0.0463418821
   10    3    1    2       -0.0000000006
   10    3    1    3        0.0325653395
   10    3    1    6       -0.0281348057
   10    3    1   10       -0.0038007573
   10    4    1    4       -0.0042958861
   10    5    1    5       -0.0042958861
   10    6    1    1       -0.0044931963
   10    6    1    2        0.0000000012
   10    6    1    3       -0.0281263923
   10    6    1    6       -0.0072237219
   10    6    1    9        0.0000000004
   10    6    1   10        0.0280166963
   10    7    1    7       -0.0126803687
   10    8    1    8       -0.0126803687
   10    9    1    1        0.0000000003
   10    9    1    2       -0.0235920012
   10    9    1    6        0.0000000002
   10    9    1    9       -0.0143482118
   10    9    1   10       -0.0000000001
   10   10    1    1        0.3624438606
   10   10    1    3       -0.0244655992
   10   10    1    6        0.0830690439
   10   10    1    9        0.0000000001
   10   10    1   10       -0.0056404704
   10    1    2    1        0.0000000003
   10    1    2    2       -0.0398105015
   10    1    2    3       -0.0000000001
   10    1    2    6        0.0000000004
   10    1    2    9       -0.0210004044
   10    2    2    1       -0.0407429615
   10    2    2    2        0.0000000004
   10    2    2    3       -0.0138624185
   10    2    2    6       -0.0212550769
   10    2    2    9        0.0000000002
   10    2    2   10        0.0373547512
   10    3    2    1       -0.0000000006
   10    3    2    2       -0.0461925033
   10    3    2    3       -0.0000000001
   10    3    2    6       -0.0000000002
   10    3    2    9       -0.0271547461
   10    3    2   10       -0.0000000003
   10    4    2    7       -0.0003191336
   10    4    2    8        0.0067213837
   10    5    2    7        0.0067213837
   10    5    2    8        0.0003191336
   10    6    2    1        0.0000000012
   10    6    2    2       -0.0059572091
   10    6    2    6        0.0000000006
   10    6    2    9       -0.0087970685
   10    7    2    4       -0.0004297421
   10    7    2    5        0.0090509476
   10    7    2    7        0.0000000001
   10    8    2    4        0.0090509476
   10    8    2    5        0.0004297421
   10    8    2    8        0.0000000001
   10    9    2    1       -0.0235849701
   10    9    2    2        0.0000000003
   10    9    2    3       -0.0193225265
   10    9    2    6       -0.0132263902
   10    9    2    9        0.0000000001
   10    9    2   10        0.0267506308
   10   10    2    2        0.3649428778
   10   10    2    3       -0.0000000003
   10   10    2    6        0.0000000001
   10   10    2    9        0.0767607990
   10   10    2   10        0.0000000008
   10    1    3    1       -0.0141200775
   10    1    3    2       -0.0000000001
   10    1    3    3        0.0037691632
   10    1    3    6       -0.0059456555
   10    1    3   10       -0.0038007573
   10    2    3    1       -0.0000000002
   10    2    3    2       -0.0138624181
   10    2    3    3        0.0000000002
   10    2    3    9       -0.0019621694
   10    2    3   10       -0.0000000003
   10    3    3    1        0.0325675750
   10    3    3    2       -0.0000000001
   10    3    3    3       -0.0377865765
   10    3    3    6        0.0033304423
   10    3    3    9       -0.0000000001
   10    3    3   10        0.0494196029
   10    4    3    4       -0.0009185475
   10    5    3    5       -0.0009185475
   10    6    3    1       -0.0281259806
   10    6    3    3        0.0221240641
   10    6    3    6       -0.0034633613
   10    6    3   10       -0.0253832222
   10    7    3    7       -0.0068577835
   10    8    3    8       -0.0068577835
   10    9    3    2       -0.0193225280
   10    9    3    9       -0.0018589328
   10   10    3    1       -0.0244655992
   10   10    3    2       -0.0000000003
   10   10    3    3        0.3233332721
   10   10    3    6       -0.0184900216
   10   10    3    9        0.0000000003
   10   10    3   10       -0.0673995565
   10    1    4    4       -0.0146375020
   10    1    4    8       -0.0000000002
   10    2    4    4        0.0000000002
   10    2    4    7       -0.0009357235
   10    2    4    8        0.0197075988
   10    3    4    4       -0.0336311108
   10    3    4    8        0.0000000004
   10    4    4    1       -0.0042957219
   10    4    4    3       -0.0009185475
   10    4    4    6        0.0017184364
   10    4    4   10        0.0065816211
   10    6    4    4        0.0132247593
   10    6    4    8       -0.0000000008
   10    7    4    2       -0.0004297420
   10    7    4    9        0.0001410348
   10    8    4    2        0.0090509452
   10    8    4    9       -0.0029703841
   10    9    4    4        0.0000000001
   10    9    4    7       -0.0001221597
   10    9    4    8        0.0025728473
   10   10    4    4        0.2963382659
   10   10    4    8       -0.0000000002
   10    1    5    5       -0.0146375020
   10    1    5    7       -0.0000000002
   10    2    5    5        0.0000000002
   10    2    5    7        0.0197075988
   10    2    5    8        0.0009357235
   10    3    5    5       -0.0336311108
   10    3    5    7        0.0000000004
   10    5    5    1       -0.0042957219
   10    5    5    3       -0.0009185475
   10    5    5    6        0.0017184364
   10    5    5   10        0.0065816211
   10    6    5    5        0.0132247593
   10    6    5    7       -0.0000000008
   10    7    5    2        0.0090509452
   10    7    5    9       -0.0029703841
   10    8    5    2        0.0004297420
   10    8    5    9       -0.0001410348
   10    9    5    5        0.0000000001
   10    9    5    7        0.0025728473
   10    9    5    8        0.0001221597
   10   10    5    5        0.2963382659
   10   10    5    7       -0.0000000002
   10    1    6    1       -0.0200876976
   10    1    6    2        0.0000000004
   10    1    6    3       -0.0059472118
   10    1    6    6       -0.0243234357
   10    1    6    9        0.0000000004
   10    1    6   10        0.0280166963
   10    2    6    1        0.0000000004
   10    2    6    2       -0.0212550771
   10    2    6    6        0.0000000005
   10    2    6    9       -0.0304161357
   10    3    6    1       -0.0281359506
   10    3    6    2       -0.0000000002
   10    3    6    3        0.0033304425
   10    3    6    6       -0.0550799330
   10    3    6    9       -0.0000000003
   10    3    6   10       -0.0253832222
   10    4    6    4        0.0017184366
   10    5    6    5        0.0017184366
   10    6    6    1       -0.0072237942
   10    6    6    2        0.0000000006
   10    6    6    3       -0.0034633613
   10    6    6    6        0.0105530411
   10    6    6    9        0.0000000010
   10    6    6   10        0.0377733107
   10    7    6    7       -0.0010666512
   10    8    6    8       -0.0010666512
   10    9    6    1        0.0000000002
   10    9    6    2       -0.0132263895
   10    9    6    6        0.0000000003
   10    9    6    9       -0.0132698931
   10    9    6   10       -0.0000000001
   10   10    6    1        0.0830690439
   10   10    6    2        0.0000000001
   10   10    6    3       -0.0184900216
   10   10    6    6        0.3459904649
   10   10    6   10        0.0249499688
   10    1    7    5       -0.0000000002
   10    1    7    7       -0.0311924504
   10    2    7    4       -0.0009357235
   10    2    7    5        0.0197075985
   10    2    7    7        0.0000000005
   10    3    7    5        0.0000000004
   10    3    7    7       -0.0641480861
   10    4    7    2       -0.0003191335
   10    4    7    9        0.0000186183
   10    5    7    2        0.0067213811
   10    5    7    9       -0.0003921273
   10    6    7    5       -0.0000000008
   10    6    7    7        0.0142057457
   10    7    7    1       -0.0126740307
   10    7    7    2        0.0000000001
   10    7    7    3       -0.0068577827
   10    7    7    6       -0.0010666513
   10    7    7   10        0.0157550014
   10    9    7    4       -0.0001221597
   10    9    7    5        0.0025728483
   10    9    7    7        0.0000000003
   10   10    7    5       -0.0000000002
   10   10    7    7        0.3773292042
   10    1    8    4       -0.0000000002
   10    1    8    8       -0.0311924504
   10    2    8    4        0.0197075985
   10    2    8    5        0.0009357235
   10    2    8    8        0.0000000005
   10    3    8    4        0.0000000004
   10    3    8    8       -0.0641480861
   10    4    8    2        0.0067213811
   10    4    8    9       -0.0003921273
   10    5    8    2        0.0003191335
   10    5    8    9       -0.0000186183
   10    6    8    4       -0.0000000008
   10    6    8    8        0.0142057457
   10    8    8    1       -0.0126740307
   10    8    8    2        0.0000000001
   10    8    8    3       -0.0068577827
   10    8    8    6       -0.0010666513
   10    8    8   10        0.0157550014
   10    9    8    4        0.0025728483
   10    9    8    5        0.0001221597
   10    9    8    8        0.0000000003
   10   10    8    4       -0.0000000002
   10   10    8    8        0.3773292042
   10    1    9    1        0.0000000002
   10    1    9    2       -0.0210187272
   10    1    9    6        0.0000000004
   10    1    9    9       -0.0343704060
   10    1    9   10       -0.0000000001
   10    2    9    1       -0.0213369951
   10    2    9    2        0.0000000002
   10    2    9    3       -0.0019621682
   10    2    9    6       -0.0304161364
   10    2    9    9        0.0000000004
   10    2    9   10        0.0267506308
   10    3    9    2       -0.0271547464
   10    3    9    3       -0.0000000001
   10    3    9    6       -0.0000000003
   10    3    9    9       -0.0652511242
   10    4    9    7        0.0000186184
   10    4    9    8       -0.0003921289
   10    5    9    7       -0.0003921289
   10    5    9    8       -0.0000186184
   10    6    9    1        0.0000000004
   10    6    9    2       -0.0087970684
   10    6    9    6        0.0000000010
   10    6    9    9        0.0069893456
   10    6    9   10       -0.0000000001
   10    7    9    4        0.0001410349
   10    7    9    5       -0.0029703847
   10    8    9    4       -0.0029703847
   10    8    9    5       -0.0001410349
   10    9    9    1       -0.0143558518
   10    9    9    2        0.0000000001
   10    9    9    3       -0.0018589342
   10    9    9    6       -0.0132698923
   10    9    9    9        0.0000000002
   10    9    9   10        0.0313177633
   10   10    9    1        0.0000000001
   10   10    9    2        0.0767607990
   10   10    9    3        0.0000000003
   10   10    9    9        0.3834767379
   10   10    9   10        0.0000000005
   10    1   10    1        0.0365102524
   10    1   10    3       -0.0037992256
   10    1   10    6        0.0280167576
   10    1   10    9       -0.0000000001
   10    1   10   10       -0.0056404704
   10    2   10    2        0.0373547500
   10    2   10    3       -0.0000000003
   10    2   10    9        0.0267506324
   10    2   10   10        0.0000000008
   10    3   10    1       -0.0037992256
   10    3   10    2       -0.0000000003
   10    3   10    3        0.0494196027
   10    3   10    6       -0.0253832222
   10    3   10   10       -0.0673995565
   10    4   10    4        0.0065816210
   10    5   10    5        0.0065816210
   10    6   10    1        0.0280167576
   10    6   10    3       -0.0253832222
   10    6   10    6        0.0377733107
   10    6   10    9       -0.0000000001
   10    6   10   10        0.0249499688
   10    7   10    7        0.0157549995
   10    8   10    8        0.0157549995
   10    9   10    1       -0.0000000001
   10    9   10    2        0.0267506324
   10    9   10    6       -0.0000000001
   10    9   10    9        0.0313177596
   10    9   10   10        0.0000000005
   10   10   10    1       -0.0056404704
   10   10   10    2        0.0000000008
   10   10   10    3       -0.0673995565
   10   10   10    6        0.0249499688
   10   10   10    9        0.0000000005
   10   10   10   10        0.3971790794
 end_two_electron_integrals

 Parallel integral file used       8 records with       0 large values


 Task  times  cpu:      136.6s     wall:      138.9s


                                NWChem Input Module
                                -------------------


 Summary of allocated global arrays
-----------------------------------
  No active global arrays


MA_summarize_allocated_blocks: starting scan ...
MA_summarize_allocated_blocks: scan completed: 0 heap blocks, 0 stack blocks
MA usage statistics:

	allocation statistics:
					      heap	     stack
					      ----	     -----
	current number of blocks	         0	         0
	maximum number of blocks	        18	        42
	current total bytes		         0	         0
	maximum total bytes		  51983048	9994007128
	maximum total K-bytes		     51984	   9994008
	maximum total M-bytes		        52	      9995


                                     CITATION
                                     --------
                Please cite the following reference when publishing
                           results obtained with NWChem:

          E. Apra, E. J. Bylaska, W. A. de Jong, N. Govind, K. Kowalski,
       T. P. Straatsma, M. Valiev, H. J. J. van Dam, Y. Alexeev, J. Anchell,
       V. Anisimov, F. W. Aquino, R. Atta-Fynn, J. Autschbach, N. P. Bauman,
     J. C. Becca, D. E. Bernholdt, K. Bhaskaran-Nair, S. Bogatko, P. Borowski,
         J. Boschen, J. Brabec, A. Bruner, E. Cauet, Y. Chen, G. N. Chuev,
      C. J. Cramer, J. Daily, M. J. O. Deegan, T. H. Dunning Jr., M. Dupuis,
   K. G. Dyall, G. I. Fann, S. A. Fischer, A. Fonari, H. Fruchtl, L. Gagliardi,
      J. Garza, N. Gawande, S. Ghosh, K. Glaesemann, A. W. Gotz, J. Hammond,
       V. Helms, E. D. Hermes, K. Hirao, S. Hirata, M. Jacquelin, L. Jensen,
   B. G. Johnson, H. Jonsson, R. A. Kendall, M. Klemm, R. Kobayashi, V. Konkov,
      S. Krishnamoorthy, M. Krishnan, Z. Lin, R. D. Lins, R. J. Littlefield,
      A. J. Logsdail, K. Lopata, W. Ma, A. V. Marenich, J. Martin del Campo,
   D. Mejia-Rodriguez, J. E. Moore, J. M. Mullin, T. Nakajima, D. R. Nascimento,
    J. A. Nichols, P. J. Nichols, J. Nieplocha, A. Otero-de-la-Roza, B. Palmer,
    A. Panyala, T. Pirojsirikul, B. Peng, R. Peverati, J. Pittner, L. Pollack,
   R. M. Richard, P. Sadayappan, G. C. Schatz, W. A. Shelton, D. W. Silverstein,
   D. M. A. Smith, T. A. Soares, D. Song, M. Swart, H. L. Taylor, G. S. Thomas,
            V. Tipparaju, D. G. Truhlar, K. Tsemekhman, T. Van Voorhis,
      A. Vazquez-Mayagoitia, P. Verma, O. Villa, A. Vishnu, K. D. Vogiatzis,
        D. Wang, J. H. Weare, M. J. Williamson, T. L. Windus, K. Wolinski,
        A. T. Wong, Q. Wu, C. Yang, Q. Yu, M. Zacharias, Z. Zhang, Y. Zhao,
                                and R. J. Harrison
                        "NWChem: Past, present, and future
                         J. Chem. Phys. 152, 184102 (2020)
                               doi:10.1063/5.0004997

                                      AUTHORS
                                      -------
  E. Apra, E. J. Bylaska, N. Govind, K. Kowalski, M. Valiev, D. Mejia-Rodriguez,
       A. Kunitsa, N. P. Bauman, A. Panyala, W. A. de Jong, T. P. Straatsma,
        H. J. J. van Dam, D. Wang, T. L. Windus, J. Hammond, J. Autschbach,
    K. Bhaskaran-Nair, J. Brabec, K. Lopata, S. A. Fischer, S. Krishnamoorthy,
     M. Jacquelin, W. Ma, M. Klemm, O. Villa, Y. Chen, V. Anisimov, F. Aquino,
    S. Hirata, M. T. Hackler, Eric Hermes, L. Jensen, J. E. Moore, J. C. Becca,
      V. Konjkov, T. Risthaus, M. Malagoli, A. Marenich, A. Otero-de-la-Roza,
        J. Mullin, P. Nichols, R. Peverati, J. Pittner, Y. Zhao, P.-D. Fan,
        A. Fonari, M. J. Williamson, R. J. Harrison, J. R. Rehr, M. Dupuis,
     D. Silverstein, D. M. A. Smith, J. Nieplocha, V. Tipparaju, M. Krishnan,
     B. E. Van Kuiken, A. Vazquez-Mayagoitia, M. Swart, Q. Wu, T. Van Voorhis,
     A. A. Auer, M. Nooijen, L. D. Crosby, E. Brown, G. Cisneros, G. I. Fann,
   H. Fruchtl, J. Garza, K. Hirao, R. A. Kendall, J. A. Nichols, K. Tsemekhman,
    K. Wolinski, J. Anchell, D. E. Bernholdt, P. Borowski, T. Clark, D. Clerc,
   H. Dachsel, M. J. O. Deegan, K. Dyall, D. Elwood, E. Glendening, M. Gutowski,
   A. C. Hess, J. Jaffe, B. G. Johnson, J. Ju, R. Kobayashi, R. Kutteh, Z. Lin,
   R. Littlefield, X. Long, B. Meng, T. Nakajima, S. Niu, L. Pollack, M. Rosing,
   K. Glaesemann, G. Sandrone, M. Stave, H. Taylor, G. Thomas, J. H. van Lenthe,
                               A. T. Wong, Z. Zhang.

 Total times  cpu:      137.2s     wall:      140.3s
