 argument  1 = input.nw
  NWChem w/ OpenMP: maximum threads =    1



============================== echo of input deck ==============================
 echo
 start H2
 title "H2"

 memory total 24 gb

 geometry units bohr
 symmetry c1
        H  0.00000000  0.00000000  0.00000000
        H  0.00000000  7.45  0.00000000
 end

 basis
   * library cc-pVQZ
 end

 mcscf
   active  10
   actelec 2
   multiplicity 1
   maxiter 40
   vectors input H2.mos
   vectors output H2.mos
 end

 task mcscf

 scf
   vectors input H2.mos
   vectors output H2-7.45.mos
   noscf
 end

 tce
   2eorb
   2emet 13
   ccsd
   maxiter 300
   lshift 0.8
 end

# set tce:print_integrals T
# set tce:qorb 10
# set tce:qela 1
# set tce:qelb 1

 set tce:qducc T
 set tce:nactv 9
 set tce:nonhf T
 set tce:ducc_model 6

 set tce:printtol 0.02

 task tce
================================================================================


                                         
                                         


             Northwest Computational Chemistry Package (NWChem) 7.0.1
             --------------------------------------------------------


                    Environmental Molecular Sciences Laboratory
                       Pacific Northwest National Laboratory
                                Richland, WA 99352

                              Copyright (c) 1994-2020
                       Pacific Northwest National Laboratory
                            Battelle Memorial Institute

             NWChem is an open-source computational chemistry package
                        distributed under the terms of the
                      Educational Community License (ECL) 2.0
             A copy of the license is included with this distribution
                              in the LICENSE.TXT file

                                  ACKNOWLEDGMENT
                                  --------------

            This software and its documentation were developed at the
            EMSL at Pacific Northwest National Laboratory, a multiprogram
            national laboratory, operated for the U.S. Department of Energy
            by Battelle under Contract Number DE-AC05-76RL01830. Support
            for this work was provided by the Department of Energy Office
            of Biological and Environmental Research, Office of Basic
            Energy Sciences, and the Office of Advanced Scientific Computing.


           Job information
           ---------------

    hostname        = WE46210
    program         = /home/baum612/code/nwchem/bin/LINUX64/nwchem
    date            = Sat Nov 11 04:43:43 2023

    compiled        = Mon_Nov_06_10:06:57_2023
    source          = /home/baum612/code/nwchem
    nwchem branch   = 7.0.0
    nwchem revision = nwchem_on_git-4191-g39d87d64de
    ga revision     = 5.8.1
    use scalapack   = F
    input           = input.nw
    prefix          = H2.
    data base       = ./H2.db
    status          = startup
    nproc           =        1
    time left       =     -1s



           Memory information
           ------------------

    heap     =  805306362 doubles =   6144.0 Mbytes
    stack    =  805306367 doubles =   6144.0 Mbytes
    global   = 1610612736 doubles =  12288.0 Mbytes (distinct from heap & stack)
    total    = 3221225465 doubles =  24576.0 Mbytes
    verify   = yes
    hardfail = no 


           Directory information
           ---------------------

  0 permanent = .
  0 scratch   = .




                                NWChem Input Module
                                -------------------


                                        H2
                                        --
 Turning off AUTOSYM since
 SYMMETRY directive was detected!


          ------
          auto-z
          ------
     1 autoz failed with cvr_scaling = 1.2 changing to 1.3
     2 autoz failed with cvr_scaling = 1.3 changing to 1.4
     3 autoz failed with cvr_scaling = 1.4 changing to 1.5
     4 autoz failed with cvr_scaling = 1.5 changing to 1.6
     5 autoz failed with cvr_scaling = 1.6 changing to 1.7

 AUTOZ failed to generate good internal coordinates.
 Cartesian coordinates will be used in optimizations.



                             Geometry "geometry" -> ""
                             -------------------------

 Output coordinates in a.u. (scale by  1.000000000 to convert to a.u.)

  No.       Tag          Charge          X              Y              Z
 ---- ---------------- ---------- -------------- -------------- --------------
    1 H                    1.0000     0.00000000    -3.72500000     0.00000000
    2 H                    1.0000     0.00000000     3.72500000     0.00000000

      Atomic Mass 
      ----------- 

      H                  1.007825


 Effective nuclear repulsion energy (a.u.)       0.1342281879

            Nuclear Dipole moment (a.u.) 
            ----------------------------
        X                 Y               Z
 ---------------- ---------------- ----------------
     0.0000000000     0.0000000000     0.0000000000


            XYZ format geometry
            -------------------
     2
 geometry
 H                     0.00000000    -1.97118525     0.00000000
 H                     0.00000000     1.97118525     0.00000000



 Summary of "ao basis" -> "" (cartesian)
 ------------------------------------------------------------------------------
       Tag                 Description            Shells   Functions and Types
 ---------------- ------------------------------  ------  ---------------------
 *                          cc-pVQZ                   on all atoms 


                      Basis "ao basis" -> "ao basis" (cartesian)
                      -----
  H (Hydrogen)
  ------------
            Exponent  Coefficients 
       -------------- ---------------------------------------------------------
  1 S  8.26400000E+01  0.002006
  1 S  1.24100000E+01  0.015343
  1 S  2.82400000E+00  0.075579

  2 S  7.97700000E-01  1.000000

  3 S  2.58100000E-01  1.000000

  4 S  8.98900000E-02  1.000000

  5 P  2.29200000E+00  1.000000

  6 P  8.38000000E-01  1.000000

  7 P  2.92000000E-01  1.000000

  8 D  2.06200000E+00  1.000000

  9 D  6.62000000E-01  1.000000

 10 F  1.39700000E+00  1.000000



 Summary of "ao basis" -> "ao basis" (cartesian)
 ------------------------------------------------------------------------------
       Tag                 Description            Shells   Functions and Types
 ---------------- ------------------------------  ------  ---------------------
 H                          cc-pVQZ                 10       35   4s3p2d1f



                            NWChem Direct MCSCF Module
                            --------------------------


                                        H2


     -----------------------------------
       Basis functions:             70
       Inactive shells:              0
       Active shells:               10
       Active electrons:             2
       Symmetry:                    a       
       Multiplicity:                 1
       Orbital rotations:          600
     -----------------------------------

     -----------------------------------
       E2 extrapolation:             F
       Conjugacy:                    T
       Micro CI relax:               T
       Canonical orbitals:           T
       Maximum iterations:          40
       Converge threshold:    1.00E-04
       Conjugacy resets:            20
       Initial levelshift:        0.10
     -----------------------------------

 Loading old vectors from job with title :

H2


   input molecular orbitals = ./H2.mos
  output molecular orbtials = ./H2.mos

       No. of determinants:           100


  Starting Orbital Energies
    -0.258321    -0.241613    -0.000014    -0.000003    -0.000003    -0.000000
    -0.000000    -0.000000    -0.000000    -0.000000     0.423701     0.601305
     0.821636     1.136001     1.136001     1.748431     1.837891     1.837891
     1.922141     2.051464     2.051464     2.053079     2.053079     2.060874
     2.090483     2.090483     2.090486     2.090486     2.897701     2.931763
     4.370995     4.370995     4.405753     4.446194     4.446194     4.451277
     5.943791     6.056329     6.056329     6.061164     6.070041     6.070041
     6.070761     6.070761     6.070761     6.070761     6.070767     6.070767
     6.070767     6.070767     8.126814     8.133517     8.135342     8.135342
     8.142359     8.142359     8.142777     8.142777     8.142777     8.142777
     9.645854     9.647014     9.708454     9.712445     9.712445     9.720231
     9.720231     9.747465    22.398842    22.452624

  Orbital Symmetry Irreps
a    a    a    a    a    a    a    a    a    a    a    a    a    a    a   
a    a    a    a    a    a    a    a    a    a    a    a    a    a    a   
a    a    a    a    a    a    a    a    a    a    a    a    a    a    a   
a    a    a    a    a    a    a    a    a    a    a    a    a    a    a   
a    a    a    a    a    a    a    a    a    a   

 Integral file          = ./H2.aoints.0
 Record size in doubles =  65536        No. of integs per rec  =  43688
 Max. records in memory =     99        Max. records in file   = 280144
 No. of bits per label  =      8        No. of bits per value  =     64


 #quartets = 1.414D+04 #integrals = 3.234D+05 #direct =  0.0% #cached =100.0%




          %%%%% MacroIteration   1 %%%%%


          Number of sigma calls:       13
                       o<<<<< (aa):             0.00
                       o<<<<< (bb):             0.00
                       o<<<<< (ab):             0.01
                       o<<<<< (total)           0.01
                       o<<<<< (aa) ff           0.00
                       o<<<<< (aa) gop          0.00
                       o<<<<< (aa) dot          0.00
                       o<<<<< (ab) str          0.00
                       o<<<<< (ab) gath         0.00
                       o<<<<< (ab) dotab        0.00
                       o<<<<< (ab) scat         0.00
                       o<<<<< (ab) sync         0.00
                       o<<<<< Density           0.00
                       o<<<<< Density one       0.00
                       o<<<<< Density two       0.00
                       o<<<<< Density ab        0.00
                       o<<<<< Spin adapt        0.00
                       o<<<<< Symm adapt        0.00

                       o<<<<< (ab) max sync:      0.00

           >>>| Valence CI:             -1.134192856127
           >>>| MCSCF energy:           -0.999964668208
           >>>| Gradient norm:          0.104151576D-03
     --- Warning:  480 Hessian diagonals < 0.05 ---

                              ----- Line search ------

        step       energy         lsg     num-lsg   num-lsh   lsrat    time
      ------- ---------------- --------- --------- --------- ------- --------
       0.0000      -0.99996467 -3.98D-09  0.00D+00  0.00D+00 0.0D+00      0.7

          Number of sigma calls:        8
                       o<<<<< (aa):             0.00
                       o<<<<< (bb):             0.00
                       o<<<<< (ab):             0.01
                       o<<<<< (total)           0.01
                       o<<<<< (aa) ff           0.00
                       o<<<<< (aa) gop          0.00
                       o<<<<< (aa) dot          0.00
                       o<<<<< (ab) str          0.00
                       o<<<<< (ab) gath         0.00
                       o<<<<< (ab) dotab        0.00
                       o<<<<< (ab) scat         0.00
                       o<<<<< (ab) sync         0.00
                       o<<<<< Density           0.00
                       o<<<<< Density one       0.00
                       o<<<<< Density two       0.00
                       o<<<<< Density ab        0.00
                       o<<<<< Spin adapt        0.00
                       o<<<<< Symm adapt        0.00

                       o<<<<< (ab) max sync:      0.00
       1.0000      -0.99996467 -1.22D-09 -1.23D-09  2.76D-09 3.1D-01      0.9

          Number of sigma calls:        7
                       o<<<<< (aa):             0.00
                       o<<<<< (bb):             0.00
                       o<<<<< (ab):             0.01
                       o<<<<< (total)           0.01
                       o<<<<< (aa) ff           0.00
                       o<<<<< (aa) gop          0.00
                       o<<<<< (aa) dot          0.00
                       o<<<<< (ab) str          0.00
                       o<<<<< (ab) gath         0.00
                       o<<<<< (ab) dotab        0.00
                       o<<<<< (ab) scat         0.00
                       o<<<<< (ab) sync         0.00
                       o<<<<< Density           0.00
                       o<<<<< Density one       0.00
                       o<<<<< Density two       0.00
                       o<<<<< Density ab        0.00
                       o<<<<< Spin adapt        0.00
                       o<<<<< Symm adapt        0.00

                       o<<<<< (ab) max sync:      0.00
       1.4424      -0.99996467  3.57D-12  3.57D-12  2.77D-09 9.0D-04      1.1
     --- Orbitals canonicalized ---



          %%%%% MacroIteration   2 %%%%%


          Number of sigma calls:       13
                       o<<<<< (aa):             0.00
                       o<<<<< (bb):             0.00
                       o<<<<< (ab):             0.01
                       o<<<<< (total)           0.01
                       o<<<<< (aa) ff           0.00
                       o<<<<< (aa) gop          0.00
                       o<<<<< (aa) dot          0.00
                       o<<<<< (ab) str          0.00
                       o<<<<< (ab) gath         0.00
                       o<<<<< (ab) dotab        0.00
                       o<<<<< (ab) scat         0.00
                       o<<<<< (ab) sync         0.00
                       o<<<<< Density           0.00
                       o<<<<< Density one       0.00
                       o<<<<< Density two       0.00
                       o<<<<< Density ab        0.00
                       o<<<<< Spin adapt        0.00
                       o<<<<< Symm adapt        0.00

                       o<<<<< (ab) max sync:      0.00

           >>>| Valence CI:             -1.134192859003
           >>>| MCSCF energy:           -0.999964671083
           >>>| Gradient norm:          0.229134819D-04




     ==============================
            MCSCF Converged
     ==============================



          Canonical Eigenvalues

              1      
    1   -0.2580
    2   -0.2419
    3   -0.0000
    4   -0.0000
    5   -0.0000
    6   -0.0000
    7   -0.0000
    8   -0.0000
    9   -0.0000
   10   -0.0000
   11    0.4245
   12    0.5999
   13    0.8199
   14    1.1358
   15    1.1358
   16    1.7472
   17    1.8381
   18    1.8381
   19    1.9235
   20    2.0515
   21    2.0515
   22    2.0530
   23    2.0530
   24    2.0600
   25    2.0905
   26    2.0905
   27    2.0905
   28    2.0905
   29    2.8970
   30    2.9313
   31    4.3708
   32    4.3708
   33    4.4077
   34    4.4464
   35    4.4464
   36    4.4484
   37    5.9438
   38    6.0563
   39    6.0563
   40    6.0612
   41    6.0700
   42    6.0700
   43    6.0708
   44    6.0708
   45    6.0708
   46    6.0708
   47    6.0708
   48    6.0708
   49    6.0708
   50    6.0708
   51    8.1268
   52    8.1335
   53    8.1354
   54    8.1354
   55    8.1424
   56    8.1424
   57    8.1428
   58    8.1428
   59    8.1428
   60    8.1428
   61    9.6454
   62    9.6469
   63    9.7095
   64    9.7123
   65    9.7123
   66    9.7204
   67    9.7204
   68    9.7463
   69   22.3974
   70   22.4507


          Converged CI vector

   Index           Coefficient          Config. Occupation
         1          0.72031297          1  1
        12         -0.69363642          2  2

          Number of sigma calls:        1
                       o<<<<< (aa):             0.00
                       o<<<<< (bb):             0.00
                       o<<<<< (ab):             0.00
                       o<<<<< (total)           0.00
                       o<<<<< (aa) ff           0.00
                       o<<<<< (aa) gop          0.00
                       o<<<<< (aa) dot          0.00
                       o<<<<< (ab) str          0.00
                       o<<<<< (ab) gath         0.00
                       o<<<<< (ab) dotab        0.00
                       o<<<<< (ab) scat         0.00
                       o<<<<< (ab) sync         0.00
                       o<<<<< Density           0.00
                       o<<<<< Density one       0.00
                       o<<<<< Density two       0.00
                       o<<<<< Density ab        0.00
                       o<<<<< Spin adapt        0.00
                       o<<<<< Symm adapt        0.00

                       o<<<<< (ab) max sync:      0.00



          Natural orbital occupation numbers

              1      
    1    1.0377
    2    0.9623
    3    0.0000
    4    0.0000
    5    0.0000
    6    0.0000
    7    0.0000
    8    0.0000
    9    0.0000
   10    0.0000


          Number of sigma calls:       13
                       o<<<<< (aa):             0.00
                       o<<<<< (bb):             0.00
                       o<<<<< (ab):             0.02
                       o<<<<< (total)           0.02
                       o<<<<< (aa) ff           0.00
                       o<<<<< (aa) gop          0.00
                       o<<<<< (aa) dot          0.00
                       o<<<<< (ab) str          0.00
                       o<<<<< (ab) gath         0.00
                       o<<<<< (ab) dotab        0.00
                       o<<<<< (ab) scat         0.00
                       o<<<<< (ab) sync         0.00
                       o<<<<< Density           0.00
                       o<<<<< Density one       0.00
                       o<<<<< Density two       0.00
                       o<<<<< Density ab        0.00
                       o<<<<< Spin adapt        0.00
                       o<<<<< Symm adapt        0.00

                       o<<<<< (ab) max sync:      0.00


       Final MCSCF results 
       ------------------- 

       Total MCSCF energy =     -0.999964671083
            Gradient norm =      2.3D-05

    CPU time for solution =      1.3s
   Wall time for solution =      1.3s



                        Analysis of MCSCF natural orbitals
                        ----------------------------------

 Vector    1  Occ=1.037702D+00  E=-2.579938D-01  Symmetry=a
              MO Center=  7.7D-15,  1.5D-12, -5.0D-15, r^2= 4.7D+00
   Bfn.  Coefficient  Atom+Function         Bfn.  Coefficient  Atom+Function  
  ----- ------------  ---------------      ----- ------------  ---------------
     3      0.345911  1 H  s                 38      0.345911  2 H  s          
     4      0.209990  1 H  s                 39      0.209990  2 H  s          
     2      0.178622  1 H  s                 37      0.178622  2 H  s          

 Vector    2  Occ=9.622630D-01  E=-2.419412D-01  Symmetry=a
              MO Center=  3.2D-14, -2.1D-12, -2.2D-14, r^2= 4.8D+00
   Bfn.  Coefficient  Atom+Function         Bfn.  Coefficient  Atom+Function  
  ----- ------------  ---------------      ----- ------------  ---------------
     3      0.354545  1 H  s                 38     -0.354545  2 H  s          
     4      0.209509  1 H  s                 39     -0.209509  2 H  s          
     2      0.181554  1 H  s                 37     -0.181554  2 H  s          

 Vector    3  Occ=2.372225D-05  E=-1.301001D-05  Symmetry=a
              MO Center=  3.4D-13,  3.7D-09, -2.0D-13, r^2= 4.8D+00
   Bfn.  Coefficient  Atom+Function         Bfn.  Coefficient  Atom+Function  
  ----- ------------  ---------------      ----- ------------  ---------------
     9      1.892835  1 H  py                44     -1.892835  2 H  py         
    12     -1.024238  1 H  py                47      1.024238  2 H  py         
    32     -0.796972  1 H  fyyy              67      0.796972  2 H  fyyy       
    27     -0.784647  1 H  fxxy              34     -0.784647  1 H  fyzz       
    62      0.784647  2 H  fxxy              69      0.784647  2 H  fyzz       

 Vector    4  Occ=5.751243D-06  E=-3.287925D-06  Symmetry=a
              MO Center=  3.2D-15, -2.1D-11,  2.3D-14, r^2= 4.9D+00
   Bfn.  Coefficient  Atom+Function         Bfn.  Coefficient  Atom+Function  
  ----- ------------  ---------------      ----- ------------  ---------------
    10      1.557995  1 H  pz                45      1.557995  2 H  pz         
    13     -0.929127  1 H  pz                48     -0.929127  2 H  pz         
    33     -0.680989  1 H  fyyz              68     -0.680989  2 H  fyyz       
    28     -0.656995  1 H  fxxz              35     -0.656995  1 H  fzzz       
    63     -0.656995  2 H  fxxz              70     -0.656995  2 H  fzzz       

 Vector    5  Occ=5.751243D-06  E=-3.287925D-06  Symmetry=a
              MO Center=  5.7D-15, -2.0D-11, -1.0D-15, r^2= 4.9D+00
   Bfn.  Coefficient  Atom+Function         Bfn.  Coefficient  Atom+Function  
  ----- ------------  ---------------      ----- ------------  ---------------
     8      1.557995  1 H  px                43      1.557995  2 H  px         
    11     -0.929127  1 H  px                46     -0.929127  2 H  px         
    29     -0.680989  1 H  fxyy              64     -0.680989  2 H  fxyy       
    26     -0.656995  1 H  fxxx              31     -0.656995  1 H  fxzz       
    61     -0.656995  2 H  fxxx              66     -0.656995  2 H  fxzz       

 Vector    6  Occ=6.063082D-08  E=-5.500049D-08  Symmetry=a
              MO Center= -3.5D-14,  2.8D-12, -5.4D-13, r^2= 3.6D+00
   Bfn.  Coefficient  Atom+Function         Bfn.  Coefficient  Atom+Function  
  ----- ------------  ---------------      ----- ------------  ---------------
    10      1.413997  1 H  pz                45     -1.413997  2 H  pz         
    28     -0.461650  1 H  fxxz              35     -0.461650  1 H  fzzz       
    63      0.461650  2 H  fxxz              70      0.461650  2 H  fzzz       
    24      0.383569  1 H  dyz               59      0.383569  2 H  dyz        
    33     -0.339114  1 H  fyyz              68      0.339114  2 H  fyyz       

 Vector    7  Occ=6.063082D-08  E=-5.500049D-08  Symmetry=a
              MO Center=  1.0D-12,  2.2D-12, -6.7D-14, r^2= 3.6D+00
   Bfn.  Coefficient  Atom+Function         Bfn.  Coefficient  Atom+Function  
  ----- ------------  ---------------      ----- ------------  ---------------
     8      1.413997  1 H  px                43     -1.413997  2 H  px         
    26     -0.461650  1 H  fxxx              31     -0.461650  1 H  fxzz       
    61      0.461650  2 H  fxxx              66      0.461650  2 H  fxzz       
    21      0.383569  1 H  dxy               56      0.383569  2 H  dxy        
    29     -0.339114  1 H  fxyy              64      0.339114  2 H  fxyy       

 Vector    8  Occ=2.878069D-08  E=-2.098827D-08  Symmetry=a
              MO Center= -5.7D-13,  3.1D-09,  2.4D-13, r^2= 4.4D+00
   Bfn.  Coefficient  Atom+Function         Bfn.  Coefficient  Atom+Function  
  ----- ------------  ---------------      ----- ------------  ---------------
     9      1.348887  1 H  py                44     -1.348887  2 H  py         
     2      0.588660  1 H  s                 37      0.588660  2 H  s          
    27     -0.561065  1 H  fxxy              34     -0.561065  1 H  fyzz       
    62      0.561065  2 H  fxxy              69      0.561065  2 H  fyzz       
     4     -0.522949  1 H  s                 39     -0.522949  2 H  s          

 Vector    9  Occ=1.808153D-08  E=-1.662802D-08  Symmetry=a
              MO Center= -1.5D-12, -1.9D-09,  8.8D-13, r^2= 3.7D+00
   Bfn.  Coefficient  Atom+Function         Bfn.  Coefficient  Atom+Function  
  ----- ------------  ---------------      ----- ------------  ---------------
     9      1.423329  1 H  py                44      1.423329  2 H  py         
     3     -0.915432  1 H  s                 38      0.915432  2 H  s          
     2      0.840306  1 H  s                 37     -0.840306  2 H  s          
    27     -0.520290  1 H  fxxy              34     -0.520290  1 H  fyzz       
    62     -0.520290  2 H  fxxy              69     -0.520290  2 H  fyzz       

 Vector   10  Occ=6.860776D-09  E=-7.874707D-09  Symmetry=a
              MO Center=  2.1D-13,  4.4D-09, -5.3D-14, r^2= 4.9D+00
   Bfn.  Coefficient  Atom+Function         Bfn.  Coefficient  Atom+Function  
  ----- ------------  ---------------      ----- ------------  ---------------
     9      2.968761  1 H  py                44     -2.968761  2 H  py         
    27     -1.309560  1 H  fxxy              34     -1.309560  1 H  fyzz       
    62      1.309560  2 H  fxxy              69      1.309560  2 H  fyzz       
    32     -1.012827  1 H  fyyy              67      1.012827  2 H  fyyy       
     6     -0.734219  1 H  py                41      0.734219  2 H  py         

 Vector   11  Occ=0.000000D+00  E= 4.245084D-01  Symmetry=a
              MO Center=  2.5D-12,  4.7D-10, -1.5D-12, r^2= 9.2D+00
   Bfn.  Coefficient  Atom+Function         Bfn.  Coefficient  Atom+Function  
  ----- ------------  ---------------      ----- ------------  ---------------
     3      2.527006  1 H  s                 38     -2.527006  2 H  s          
     4     -1.484887  1 H  s                 39      1.484887  2 H  s          
     9     -1.458262  1 H  py                44     -1.458262  2 H  py         
    12      0.668375  1 H  py                47      0.668375  2 H  py         
     2     -0.610220  1 H  s                 37      0.610220  2 H  s          

 Vector   12  Occ=0.000000D+00  E= 5.998891D-01  Symmetry=a
              MO Center= -6.3D-13,  6.5D-09,  3.9D-13, r^2= 7.0D+00
   Bfn.  Coefficient  Atom+Function         Bfn.  Coefficient  Atom+Function  
  ----- ------------  ---------------      ----- ------------  ---------------
     3      2.135690  1 H  s                 38     -2.135690  2 H  s          
     4     -1.189365  1 H  s                 39      1.189365  2 H  s          
     9      1.049257  1 H  py                44      1.049257  2 H  py         
    12     -0.795644  1 H  py                47     -0.795644  2 H  py         
     2     -0.585469  1 H  s                 37      0.585469  2 H  s          

 Vector   13  Occ=0.000000D+00  E= 8.199071D-01  Symmetry=a
              MO Center=  7.6D-14, -2.1D-08, -4.5D-14, r^2= 7.6D+00
   Bfn.  Coefficient  Atom+Function         Bfn.  Coefficient  Atom+Function  
  ----- ------------  ---------------      ----- ------------  ---------------
     3      3.807851  1 H  s                 38      3.807851  2 H  s          
     4     -1.574367  1 H  s                 39     -1.574367  2 H  s          
     2     -1.232559  1 H  s                 37     -1.232559  2 H  s          
    23     -0.632958  1 H  dyy               58     -0.632958  2 H  dyy        
    20     -0.578710  1 H  dxx               25     -0.578710  1 H  dzz        

 Vector   14  Occ=0.000000D+00  E= 1.135817D+00  Symmetry=a
              MO Center= -4.4D-14, -2.7D-11,  5.2D-15, r^2= 6.2D+00
   Bfn.  Coefficient  Atom+Function         Bfn.  Coefficient  Atom+Function  
  ----- ------------  ---------------      ----- ------------  ---------------
     8      4.948908  1 H  px                43     -4.948908  2 H  px         
    26     -1.924147  1 H  fxxx              31     -1.924147  1 H  fxzz       
    61      1.924147  2 H  fxxx              66      1.924147  2 H  fxzz       
    29     -1.906896  1 H  fxyy              64      1.906896  2 H  fxyy       
    11     -1.479912  1 H  px                46      1.479912  2 H  px         

 Vector   15  Occ=0.000000D+00  E= 1.135817D+00  Symmetry=a
              MO Center=  5.6D-15, -2.5D-11,  5.1D-14, r^2= 6.2D+00
   Bfn.  Coefficient  Atom+Function         Bfn.  Coefficient  Atom+Function  
  ----- ------------  ---------------      ----- ------------  ---------------
    10      4.948908  1 H  pz                45     -4.948908  2 H  pz         
    28     -1.924147  1 H  fxxz              35     -1.924147  1 H  fzzz       
    63      1.924147  2 H  fxxz              70      1.924147  2 H  fzzz       
    33     -1.906896  1 H  fyyz              68      1.906896  2 H  fyyz       
    13     -1.479912  1 H  pz                48      1.479912  2 H  pz         

 Vector   16  Occ=0.000000D+00  E= 1.747177D+00  Symmetry=a
              MO Center= -6.6D-13,  6.8D-09,  3.9D-13, r^2= 6.1D+00
   Bfn.  Coefficient  Atom+Function         Bfn.  Coefficient  Atom+Function  
  ----- ------------  ---------------      ----- ------------  ---------------
     9      4.852603  1 H  py                44      4.852603  2 H  py         
     3      2.095525  1 H  s                 38     -2.095525  2 H  s          
    27     -1.873091  1 H  fxxy              32     -1.865581  1 H  fyyy       
    34     -1.873091  1 H  fyzz              62     -1.873091  2 H  fxxy       
    67     -1.865581  2 H  fyyy              69     -1.873091  2 H  fyzz       

 Vector   17  Occ=0.000000D+00  E= 1.838135D+00  Symmetry=a
              MO Center= -5.1D-15,  5.4D-11,  4.5D-14, r^2= 5.1D+00
   Bfn.  Coefficient  Atom+Function         Bfn.  Coefficient  Atom+Function  
  ----- ------------  ---------------      ----- ------------  ---------------
    10      6.206219  1 H  pz                45      6.206219  2 H  pz         
    28     -2.421841  1 H  fxxz              33     -2.420845  1 H  fyyz       
    35     -2.421841  1 H  fzzz              63     -2.421841  2 H  fxxz       
    68     -2.420845  2 H  fyyz              70     -2.421841  2 H  fzzz       
     7     -1.640408  1 H  pz                42     -1.640408  2 H  pz         

 Vector   18  Occ=0.000000D+00  E= 1.838135D+00  Symmetry=a
              MO Center= -6.4D-14,  5.5D-11, -3.0D-15, r^2= 5.1D+00
   Bfn.  Coefficient  Atom+Function         Bfn.  Coefficient  Atom+Function  
  ----- ------------  ---------------      ----- ------------  ---------------
     8      6.206219  1 H  px                43      6.206219  2 H  px         
    26     -2.421841  1 H  fxxx              29     -2.420845  1 H  fxyy       
    31     -2.421841  1 H  fxzz              61     -2.421841  2 H  fxxx       
    64     -2.420845  2 H  fxyy              66     -2.421841  2 H  fxzz       
     5     -1.640408  1 H  px                40     -1.640408  2 H  px         

 Vector   19  Occ=0.000000D+00  E= 1.923466D+00  Symmetry=a
              MO Center= -1.1D-14, -3.9D-09,  1.1D-14, r^2= 6.0D+00
   Bfn.  Coefficient  Atom+Function         Bfn.  Coefficient  Atom+Function  
  ----- ------------  ---------------      ----- ------------  ---------------
     9      4.834284  1 H  py                44     -4.834284  2 H  py         
    32     -1.897682  1 H  fyyy              67      1.897682  2 H  fyyy       
    27     -1.887389  1 H  fxxy              34     -1.887389  1 H  fyzz       
    62      1.887389  2 H  fxxy              69      1.887389  2 H  fyzz       
     6     -1.280560  1 H  py                41      1.280560  2 H  py         

 Vector   20  Occ=0.000000D+00  E= 2.051501D+00  Symmetry=a
              MO Center= -1.6D-14, -4.7D-09,  1.3D-14, r^2= 5.2D+00
   Bfn.  Coefficient  Atom+Function         Bfn.  Coefficient  Atom+Function  
  ----- ------------  ---------------      ----- ------------  ---------------
    24      1.256621  1 H  dyz               59     -1.256621  2 H  dyz        
    10     -0.515084  1 H  pz                45     -0.515084  2 H  pz         
    21     -0.318492  1 H  dxy               56      0.318492  2 H  dxy        
    33      0.201906  1 H  fyyz              68      0.201906  2 H  fyyz       
    28      0.200509  1 H  fxxz              35      0.200509  1 H  fzzz       


 Wrote Lagrangian and 1- and 2-particle density matrices to ./H2.mcpdm


     Multipole analysis of the density
     ---------------------------------

     L   x y z        total        nuclear
     -   - - -        -----        -------
     0   0 0 0     -0.000000      2.000000

     1   1 0 0     -0.000000      0.000000
     1   0 1 0      0.000000      0.000000
     1   0 0 1      0.000000      0.000000

     2   2 0 0     -1.999315      0.000000
     2   1 1 0      0.000000      0.000000
     2   1 0 1     -0.000000      0.000000
     2   0 2 0     -1.986061     27.751250
     2   0 1 1     -0.000000      0.000000
     2   0 0 2     -1.999315      0.000000


  Mulliken analysis of the total density
  --------------------------------------

    Atom       Charge   Shell Charges
 -----------   ------   -------------------------------------------------------
    1 H    1     1.00   0.05  0.22  0.48  0.25  0.00 -0.00  0.00  0.00  0.00  0.00
    2 H    1     1.00   0.05  0.22  0.48  0.25  0.00 -0.00  0.00  0.00  0.00  0.00

    Mulliken analysis of the active space density
    ---------------------------------------------

    Atom       Charge   Shell Charges
 -----------   ------   -------------------------------------------------------
    1 H    1     1.00   0.05  0.22  0.48  0.25  0.00 -0.00  0.00  0.00  0.00  0.00
    2 H    1     1.00   0.05  0.22  0.48  0.25  0.00 -0.00  0.00  0.00  0.00  0.00

 Parallel integral file used       8 records with       0 large values


 Task  times  cpu:        1.3s     wall:        1.3s


                                NWChem Input Module
                                -------------------


                                 NWChem SCF Module
                                 -----------------


                                        H2



  ao basis        = "ao basis"
  functions       =    70
  atoms           =     2
  closed shells   =     1
  open shells     =     0
  charge          =   0.00
  wavefunction    = RHF 
  input vectors   = ./H2.mos
  output vectors  = ./H2-7.45.mos
  use symmetry    = F
  symmetry adapt  = F


 Summary of "ao basis" -> "ao basis" (cartesian)
 ------------------------------------------------------------------------------
       Tag                 Description            Shells   Functions and Types
 ---------------- ------------------------------  ------  ---------------------
 H                          cc-pVQZ                 10       35   4s3p2d1f



 Forming initial guess at       1.3s


 Loading old vectors from job with title :

H2


 Starting SCF solution at       1.3s



 ----------------------------------------------
         Quadratically convergent ROHF

 Convergence threshold     :          1.000E-04
 Maximum no. of iterations :           30
 Final Fock-matrix accuracy:          1.000E-07
 ----------------------------------------------


 Integral file          = ./H2.aoints.0
 Record size in doubles =  65536        No. of integs per rec  =  43688
 Max. records in memory =     99        Max. records in file   = 280171
 No. of bits per label  =      8        No. of bits per value  =     64


 #quartets = 1.298D+04 #integrals = 2.810D+05 #direct =  0.0% #cached =100.0%



       Final RHF  results 
       ------------------ 

         Total SCF energy =     -0.763283559293
      One-electron energy =     -1.273903602695
      Two-electron energy =      0.376391855483
 Nuclear repulsion energy =      0.134228187919

        Time for solution =      0.0s


             Final eigenvalues
             -----------------

              1      
    1   -0.2580
    2   -0.2419
    3   -0.0000
    4   -0.0000
    5   -0.0000
    6   -0.0000
    7   -0.0000
    8   -0.0000
    9   -0.0000
   10   -0.0000
   11    0.4245

                       ROHF Final Molecular Orbital Analysis
                       -------------------------------------

 Vector    1  Occ=2.000000D+00  E=-2.579938D-01
              MO Center=  7.7D-15,  1.5D-12, -5.0D-15, r^2= 4.7D+00
   Bfn.  Coefficient  Atom+Function         Bfn.  Coefficient  Atom+Function  
  ----- ------------  ---------------      ----- ------------  ---------------
     3      0.345911  1 H  s                 38      0.345911  2 H  s          
     4      0.209990  1 H  s                 39      0.209990  2 H  s          
     2      0.178622  1 H  s                 37      0.178622  2 H  s          

 Vector    2  Occ=0.000000D+00  E=-2.419412D-01
              MO Center=  3.2D-14, -2.1D-12, -2.2D-14, r^2= 4.8D+00
   Bfn.  Coefficient  Atom+Function         Bfn.  Coefficient  Atom+Function  
  ----- ------------  ---------------      ----- ------------  ---------------
     3      0.354545  1 H  s                 38     -0.354545  2 H  s          
     4      0.209509  1 H  s                 39     -0.209509  2 H  s          
     2      0.181554  1 H  s                 37     -0.181554  2 H  s          

 Vector    3  Occ=0.000000D+00  E=-1.301001D-05
              MO Center=  3.4D-13,  3.7D-09, -2.0D-13, r^2= 4.8D+00
   Bfn.  Coefficient  Atom+Function         Bfn.  Coefficient  Atom+Function  
  ----- ------------  ---------------      ----- ------------  ---------------
     9      1.892835  1 H  py                44     -1.892835  2 H  py         
    12     -1.024238  1 H  py                47      1.024238  2 H  py         
    32     -0.796972  1 H  fyyy              67      0.796972  2 H  fyyy       
    27     -0.784647  1 H  fxxy              34     -0.784647  1 H  fyzz       
    62      0.784647  2 H  fxxy              69      0.784647  2 H  fyzz       

 Vector    4  Occ=0.000000D+00  E=-3.287925D-06
              MO Center=  3.2D-15, -2.1D-11,  2.3D-14, r^2= 4.9D+00
   Bfn.  Coefficient  Atom+Function         Bfn.  Coefficient  Atom+Function  
  ----- ------------  ---------------      ----- ------------  ---------------
    10      1.557995  1 H  pz                45      1.557995  2 H  pz         
    13     -0.929127  1 H  pz                48     -0.929127  2 H  pz         
    33     -0.680989  1 H  fyyz              68     -0.680989  2 H  fyyz       
    28     -0.656995  1 H  fxxz              35     -0.656995  1 H  fzzz       
    63     -0.656995  2 H  fxxz              70     -0.656995  2 H  fzzz       

 Vector    5  Occ=0.000000D+00  E=-3.287925D-06
              MO Center=  5.7D-15, -2.0D-11, -1.0D-15, r^2= 4.9D+00
   Bfn.  Coefficient  Atom+Function         Bfn.  Coefficient  Atom+Function  
  ----- ------------  ---------------      ----- ------------  ---------------
     8      1.557995  1 H  px                43      1.557995  2 H  px         
    11     -0.929127  1 H  px                46     -0.929127  2 H  px         
    29     -0.680989  1 H  fxyy              64     -0.680989  2 H  fxyy       
    26     -0.656995  1 H  fxxx              31     -0.656995  1 H  fxzz       
    61     -0.656995  2 H  fxxx              66     -0.656995  2 H  fxzz       

 Vector    6  Occ=0.000000D+00  E=-5.500049D-08
              MO Center= -3.5D-14,  2.8D-12, -5.4D-13, r^2= 3.6D+00
   Bfn.  Coefficient  Atom+Function         Bfn.  Coefficient  Atom+Function  
  ----- ------------  ---------------      ----- ------------  ---------------
    10      1.413997  1 H  pz                45     -1.413997  2 H  pz         
    28     -0.461650  1 H  fxxz              35     -0.461650  1 H  fzzz       
    63      0.461650  2 H  fxxz              70      0.461650  2 H  fzzz       
    24      0.383569  1 H  dyz               59      0.383569  2 H  dyz        
    33     -0.339114  1 H  fyyz              68      0.339114  2 H  fyyz       

 Vector    7  Occ=0.000000D+00  E=-5.500049D-08
              MO Center=  1.0D-12,  2.2D-12, -6.7D-14, r^2= 3.6D+00
   Bfn.  Coefficient  Atom+Function         Bfn.  Coefficient  Atom+Function  
  ----- ------------  ---------------      ----- ------------  ---------------
     8      1.413997  1 H  px                43     -1.413997  2 H  px         
    26     -0.461650  1 H  fxxx              31     -0.461650  1 H  fxzz       
    61      0.461650  2 H  fxxx              66      0.461650  2 H  fxzz       
    21      0.383569  1 H  dxy               56      0.383569  2 H  dxy        
    29     -0.339114  1 H  fxyy              64      0.339114  2 H  fxyy       

 Vector    8  Occ=0.000000D+00  E=-2.098827D-08
              MO Center= -5.7D-13,  3.1D-09,  2.4D-13, r^2= 4.4D+00
   Bfn.  Coefficient  Atom+Function         Bfn.  Coefficient  Atom+Function  
  ----- ------------  ---------------      ----- ------------  ---------------
     9      1.348887  1 H  py                44     -1.348887  2 H  py         
     2      0.588660  1 H  s                 37      0.588660  2 H  s          
    27     -0.561065  1 H  fxxy              34     -0.561065  1 H  fyzz       
    62      0.561065  2 H  fxxy              69      0.561065  2 H  fyzz       
     4     -0.522949  1 H  s                 39     -0.522949  2 H  s          

 Vector    9  Occ=0.000000D+00  E=-1.662802D-08
              MO Center= -1.5D-12, -1.9D-09,  8.8D-13, r^2= 3.7D+00
   Bfn.  Coefficient  Atom+Function         Bfn.  Coefficient  Atom+Function  
  ----- ------------  ---------------      ----- ------------  ---------------
     9      1.423329  1 H  py                44      1.423329  2 H  py         
     3     -0.915432  1 H  s                 38      0.915432  2 H  s          
     2      0.840306  1 H  s                 37     -0.840306  2 H  s          
    27     -0.520290  1 H  fxxy              34     -0.520290  1 H  fyzz       
    62     -0.520290  2 H  fxxy              69     -0.520290  2 H  fyzz       

 Vector   10  Occ=0.000000D+00  E=-7.874707D-09
              MO Center=  2.1D-13,  4.4D-09, -5.3D-14, r^2= 4.9D+00
   Bfn.  Coefficient  Atom+Function         Bfn.  Coefficient  Atom+Function  
  ----- ------------  ---------------      ----- ------------  ---------------
     9      2.968761  1 H  py                44     -2.968761  2 H  py         
    27     -1.309560  1 H  fxxy              34     -1.309560  1 H  fyzz       
    62      1.309560  2 H  fxxy              69      1.309560  2 H  fyzz       
    32     -1.012827  1 H  fyyy              67      1.012827  2 H  fyyy       
     6     -0.734219  1 H  py                41      0.734219  2 H  py         

 Vector   11  Occ=0.000000D+00  E= 4.245084D-01
              MO Center=  2.5D-12,  4.7D-10, -1.5D-12, r^2= 9.2D+00
   Bfn.  Coefficient  Atom+Function         Bfn.  Coefficient  Atom+Function  
  ----- ------------  ---------------      ----- ------------  ---------------
     3      2.527006  1 H  s                 38     -2.527006  2 H  s          
     4     -1.484887  1 H  s                 39      1.484887  2 H  s          
     9     -1.458262  1 H  py                44     -1.458262  2 H  py         
    12      0.668375  1 H  py                47      0.668375  2 H  py         
     2     -0.610220  1 H  s                 37      0.610220  2 H  s          

 Vector   12  Occ=0.000000D+00  E= 5.998891D-01
              MO Center= -6.3D-13,  6.5D-09,  3.9D-13, r^2= 7.0D+00
   Bfn.  Coefficient  Atom+Function         Bfn.  Coefficient  Atom+Function  
  ----- ------------  ---------------      ----- ------------  ---------------
     3      2.135690  1 H  s                 38     -2.135690  2 H  s          
     4     -1.189365  1 H  s                 39      1.189365  2 H  s          
     9      1.049257  1 H  py                44      1.049257  2 H  py         
    12     -0.795644  1 H  py                47     -0.795644  2 H  py         
     2     -0.585469  1 H  s                 37      0.585469  2 H  s          


 center of mass
 --------------
 x =   0.00000000 y =   0.00000000 z =   0.00000000

 moments of inertia (a.u.)
 ------------------
          27.968403531250           0.000000000000           0.000000000000
           0.000000000000           0.000000000000           0.000000000000
           0.000000000000           0.000000000000          27.968403531250

  Mulliken analysis of the total density
  --------------------------------------

    Atom       Charge   Shell Charges
 -----------   ------   -------------------------------------------------------
    1 H    1     1.00   0.05  0.21  0.48  0.26 -0.00  0.00 -0.00  0.00  0.00 -0.00
    2 H    1     1.00   0.05  0.21  0.48  0.26 -0.00  0.00 -0.00  0.00  0.00 -0.00

       Multipole analysis of the density wrt the origin
       ------------------------------------------------

     L   x y z        total         open         nuclear
     -   - - -        -----         ----         -------
     0   0 0 0     -0.000000      0.000000      2.000000

     1   1 0 0     -0.000000      0.000000      0.000000
     1   0 1 0     -0.000000      0.000000      0.000000
     1   0 0 1      0.000000      0.000000      0.000000

     2   2 0 0     -2.034949      0.000000      0.000000
     2   1 1 0     -0.000000      0.000000      0.000000
     2   1 0 1      0.000000      0.000000      0.000000
     2   0 2 0     -1.700647      0.000000     27.751250
     2   0 1 1      0.000000      0.000000      0.000000
     2   0 0 2     -2.034949      0.000000      0.000000


 Parallel integral file used       7 records with       0 large values

                   NWChem Extensible Many-Electron Theory Module
                   ---------------------------------------------

              ======================================================
                   This portion of the program was automatically
                  generated by a Tensor Contraction Engine (TCE).
                  The development of this portion of the program
                 and TCE was supported by US Department of Energy,
                Office of Science, Office of Basic Energy Science.
                      TCE is a product of Battelle and PNNL.
              Please cite: S.Hirata, J.Phys.Chem.A 107, 9887 (2003).
              ======================================================

                                        H2


            General Information
            -------------------
      Number of processors :     1
         Wavefunction type : Restricted Hartree-Fock
          No. of electrons :     2
           Alpha electrons :     1
            Beta electrons :     1
           No. of orbitals :   140
            Alpha orbitals :    70
             Beta orbitals :    70
        Alpha frozen cores :     0
         Beta frozen cores :     0
     Alpha frozen virtuals :     0
      Beta frozen virtuals :     0
         Spin multiplicity : singlet 
    Number of AO functions :    70
       Number of AO shells :    20
        Use of symmetry is : off
      Symmetry adaption is : off
         Schwarz screening : 0.10D-09

          Correlation Information
          -----------------------
          Calculation type : Coupled-cluster singles & doubles                           
   Perturbative correction : none                                                        
            Max iterations :      300
        Residual threshold : 0.10D-06
     T(0) DIIS level shift : 0.80D+00
     L(0) DIIS level shift : 0.00D+00
     T(1) DIIS level shift : 0.00D+00
     L(1) DIIS level shift : 0.00D+00
     T(R) DIIS level shift : 0.00D+00
     T(I) DIIS level shift : 0.00D+00
   CC-T/L Amplitude update :  5-th order DIIS
                I/O scheme : Global Array Library
        L-threshold :  0.10D-06
        EOM-threshold :  0.10D-06
 no EOMCCSD initial starts read in
 TCE RESTART OPTIONS
 READ_INT:   F
 WRITE_INT:  F
 READ_TA:    F
 WRITE_TA:   F
 READ_XA:    F
 WRITE_XA:   F
 READ_IN3:   F
 WRITE_IN3:  F
 SLICE:      F
 D4D5:       F
 quantumc:   F
 qrotation:  F
 pwtce:      F
 qducc:      T
 nacto:                         0
 nrotv:                         0
 nrot:                          0

            Memory Information
            ------------------
          Available GA space size is    1610607836 doubles
          Available MA space size is    1610610644 doubles

 Maximum block size        32 doubles

 tile_dim =     23

 Block   Spin    Irrep     Size     Offset   Alpha
 -------------------------------------------------
   1    alpha     a      1 doubles       0       1
   2    beta      a      1 doubles       1       1
   3    alpha     a     23 doubles       2       3
   4    alpha     a     23 doubles      25       4
   5    alpha     a     23 doubles      48       5
   6    beta      a     23 doubles      71       3
   7    beta      a     23 doubles      94       4
   8    beta      a     23 doubles     117       5

 Global array virtual files algorithm will be used

 Parallel file system coherency ......... OK

 Integral file          = ./H2.aoints.0
 Record size in doubles =  65536        No. of integs per rec  =  43688
 Max. records in memory =     99        Max. records in file   = 280171
 No. of bits per label  =      8        No. of bits per value  =     64


 #quartets = 1.422D+04 #integrals = 3.308D+05 #direct =  0.0% #cached =100.0%


 Fock matrix recomputed
 1-e file size   =             4900
 1-e file name   = ./H2.f1
 Cpu & wall time / sec            0.0            0.0
 4-electron integrals stored in orbital form

 v2    file size   =          6102085
 4-index algorithm nr.  13 is used
 imaxsize =       30
 imaxsize ichop =        0
 Cpu & wall time / sec            1.9            1.9
 T1-number-of-tasks                    3

 t1 file size   =               69
 t1 file name   = ./H2.t1
 t1 file handle =       -998
 T2-number-of-boxes                   15

 t2 file size   =             7935
 t2 file name   = ./H2.t2
 t2 file handle =       -996
CCSD iterations
 ---------------------------------------------------------
 Iter          Residuum       Correlation     Cpu    Wall 
 ---------------------------------------------------------
NEW TASK SCHEDULING
CCSD_T1_NTS --- OK
CCSD_T2_NTS --- OK
    1  10.7238744432185  -0.8031950105469     0.1     0.1
    2  10.3927371323151  -0.9403655061792     0.1     0.1
    3   4.2052689287194   0.0593236717345     0.1     0.1
    4   4.4184888855343  -0.6962979535698     0.1     0.1
    5   6.7993401897803   0.1598513793993     0.1     0.1
 MICROCYCLE DIIS UPDATE:                    5                    5
    6   2.8400027604561  -0.5759296691355     0.1     0.1
    7   1.8317613731548  -0.5216743270342     0.1     0.1
    8   1.4906257684930  -0.2714643807011     0.1     0.1
    9   1.9851957806366  -0.3821467969555     0.1     0.1
   10   2.5354049398709  -0.1473388942285     0.1     0.1
 MICROCYCLE DIIS UPDATE:                   10                    5
   11   0.4902998054973  -0.3333105924309     0.1     0.1
   12   0.4684107452410  -0.3148021791320     0.1     0.1
   13   0.5015027812666  -0.2792029607484     0.1     0.1
   14   0.6096909675282  -0.2842426249186     0.1     0.1
   15   0.7446121033951  -0.2510926345195     0.1     0.1
 MICROCYCLE DIIS UPDATE:                   15                    5
   16   0.0345605425727  -0.2469410651191     0.1     0.1
   17   0.0243138938937  -0.2458938007048     0.1     0.1
   18   0.0226138749873  -0.2429917417221     0.1     0.1
   19   0.0258972602449  -0.2427234984136     0.1     0.1
   20   0.0341476242004  -0.2401323878422     0.1     0.1
 MICROCYCLE DIIS UPDATE:                   20                    5
   21   0.0049756000111  -0.2379667950997     0.1     0.1
   22   0.0031682629749  -0.2376878295023     0.1     0.1
   23   0.0027319037089  -0.2374651415151     0.2     0.2
   24   0.0028177565353  -0.2372415291802     0.1     0.1
   25   0.0032726232654  -0.2371891529232     0.1     0.1
 MICROCYCLE DIIS UPDATE:                   25                    5
   26   0.0005891255678  -0.2368079500244     0.1     0.1
   27   0.0003524290024  -0.2367855901610     0.1     0.1
   28   0.0002717485200  -0.2367694965721     0.1     0.1
   29   0.0002495677822  -0.2367519939132     0.1     0.1
   30   0.0002601838952  -0.2367408330954     0.1     0.1
 MICROCYCLE DIIS UPDATE:                   30                    5
   31   0.0000811413663  -0.2367106942658     0.1     0.1
   32   0.0000512987052  -0.2367051381515     0.1     0.1
   33   0.0000365553056  -0.2367008261898     0.1     0.1
   34   0.0000288033864  -0.2366974594951     0.1     0.1
   35   0.0000255865861  -0.2366954477232     0.1     0.1
 MICROCYCLE DIIS UPDATE:                   35                    5
   36   0.0000123737365  -0.2366893429686     0.1     0.1
   37   0.0000075951631  -0.2366888681881     0.1     0.1
   38   0.0000060022006  -0.2366884762646     0.1     0.1
   39   0.0000055303425  -0.2366881312279     0.1     0.1
   40   0.0000057956226  -0.2366878208217     0.2     0.2
 MICROCYCLE DIIS UPDATE:                   40                    5
   41   0.0000017173290  -0.2366871360145     0.2     0.2
   42   0.0000011004614  -0.2366870334167     0.1     0.1
   43   0.0000007978900  -0.2366869393943     0.1     0.1
   44   0.0000006871667  -0.2366868714860     0.1     0.1
   45   0.0000007237481  -0.2366868332078     0.1     0.1
 MICROCYCLE DIIS UPDATE:                   45                    5
   46   0.0000002670720  -0.2366867087720     0.1     0.1
   47   0.0000001689232  -0.2366866972875     0.1     0.1
   48   0.0000001402613  -0.2366866888921     0.1     0.1
   49   0.0000001339695  -0.2366866812209     0.1     0.1
   50   0.0000001464121  -0.2366866739245     0.1     0.1
 MICROCYCLE DIIS UPDATE:                   50                    5
   51   0.0000000371469  -0.2366866582212     0.0     0.1
 -----------------------------------------------------------------
 Iterations converged
 CCSD correlation energy / hartree =        -0.236686658221164
 CCSD total energy / hartree       =        -0.999970217513681

 Singles contributions

 Doubles contributions
     2a   (alpha)     2a   (beta ) ---     1a   (alpha)     1a   (beta )       -0.9634521758
 Ground state specification:
 exp(T)|Ref>~(1+T)|Ref>
 ------- a(p)+/a(q) strings ----------

 singles norm

 doubles norm

 Reference string
  0.72014416379385349      :(1a)+ (1b)+ |0>

 Singles strings

 Doubles strings
 -0.69382446148406407      :(2a)+ (2b)+ (1b)  (1a)  (1a)+ (1b)+ |0>
 -------------------------------------
 enrep_tce =   0.13422818791946306     
  EHF(total)         =        -0.76328356
  Shift (HFtot-HFA)  =         0.00000000
 ALL OCCUPIED ORBITALS ARE ACTIVE IN DUCC --> NO SHIFT
 Number of active orbitals                   10
 Number of active alpha electrons                    1
 Number of active beta electrons                    1
  nos                     2
  nvs                   138
 noas                     1
 nobs                     1
 nvas                    69
 nvbs                    69
 nactv                     9
 DUCC MODEL =                     6
 NONHF =  T
 F-T1 correlation    =    1.9439278759348146E-005
 V-T1-T1 correlation =    7.2877652672917854E-010
 V-T2 correlation    =  -0.23670609822869365     
 Total correlation   =  -0.23668665822115778     
 F-T1(Ext) correlation         =   -2.3410811173532063E-007
 V-T1(Ext)-T1(Ext) correlation =    1.2560160075710281E-011
 V-T2(Ext) correlation         =    6.4029905749541171E-005
 Total Ext correlation         =    6.3795810197965922E-005
1-BODY TIME =   31.552 SECONDS.
  HHHH TIME =   24.983 SECONDS.
  PPPP TIME =   35.646 SECONDS.
  HHHP TIME =    2.526 SECONDS.
  PPPH TIME =    2.686 SECONDS.
  HPHP TIME =    4.212 SECONDS.
  HHPP TIME =    2.430 SECONDS.
 ONE-BODY UNITARY CHECK
 TWO-BODY UNITARY CHECK
 TWO-BODY ANTISYMMETRY CHECK
 TRANSFORMED ~FOCK~ MATRIX
    1    1        -0.2604227024
    1    3         0.0167639852
    1    8         0.0832889199
    1    9         0.0000000003
    1   10        -0.0404806477
    2    2        -0.1175362837
    2    9         0.0798325639
    2   10         0.0000000004
    3    1         0.0167639852
    3    3         0.5237282196
    3    8        -0.1084027369
    3    9         0.0000000007
    3   10        -0.1853661053
    4    4         0.5735677896
    5    5         0.5735677896
    6    6         1.3940638452
    7    7         1.3940638452
    8    1         0.0832889199
    8    3        -0.1084027369
    8    8         0.9099753025
    8    9        -0.0000000039
    8   10         0.4291742156
    9    1         0.0000000003
    9    2         0.0798325639
    9    3         0.0000000007
    9    8        -0.0000000039
    9    9         1.4095411032
    9   10        -0.0000000020
   10    1        -0.0404806477
   10    2         0.0000000004
   10    3        -0.1853661053
   10    8         0.4291742156
   10    9        -0.0000000020
   10   10         2.0416055009
 begin_one_electron_integrals
    1    1        -0.6369518013
    1    3         0.0200089438
    1    8        -0.0004077547
    1   10        -0.0004013795
    2    2        -0.6313276520
    2    9        -0.0010854292
    3    1         0.0200089438
    3    3        -0.0364679105
    3    8        -0.0882803725
    3    9         0.0000000003
    3   10        -0.1091278161
    4    4         0.0094482370
    5    5         0.0094482370
    6    6         0.6800258594
    7    7         0.6800258594
    8    1        -0.0004077547
    8    3        -0.0882803725
    8    8         0.2846781325
    8    9        -0.0000000035
    8   10         0.4173071617
    9    2        -0.0010854292
    9    3         0.0000000003
    9    8        -0.0000000035
    9    9         0.7038023300
    9   10        -0.0000000023
   10    1        -0.0004013795
   10    3        -0.1091278161
   10    8         0.4173071617
   10    9        -0.0000000023
   10   10         1.3583717062
 end_one_electron_integrals
 begin_two_electron_integrals
    1    1    1    1        0.3765290989
    1    1    1    3       -0.0032449586
    1    1    1    8        0.0836966746
    1    1    1    9        0.0000000003
    1    1    1   10       -0.0400792681
    1    2    1    2        0.2454718334
    1    2    1    8       -0.0000000001
    1    2    1    9        0.0763421770
    1    2    1   10        0.0000000003
    1    3    1    1       -0.0032449586
    1    3    1    3        0.0399887634
    1    3    1    8       -0.0051792441
    1    3    1   10       -0.0139540665
    1    4    1    4        0.0400581330
    1    5    1    5        0.0400581330
    1    6    1    6        0.0584477950
    1    7    1    7        0.0584477950
    1    8    1    1        0.0836966746
    1    8    1    2       -0.0000000001
    1    8    1    3       -0.0051792441
    1    8    1    8        0.0614030457
    1    8    1   10       -0.0205009117
    1    9    1    1        0.0000000003
    1    9    1    2        0.0763421770
    1    9    1    9        0.0679719237
    1    9    1   10        0.0000000002
    1   10    1    1       -0.0400792681
    1   10    1    2        0.0000000003
    1   10    1    3       -0.0139540665
    1   10    1    8       -0.0205009117
    1   10    1    9        0.0000000002
    1   10    1   10        0.0373816567
    1    1    2    2        0.3795947111
    1    1    2    9        0.0786987173
    1    1    2   10        0.0000000004
    1    2    2    1        0.2453980539
    1    2    2    3        0.0174372810
    1    2    2    8        0.0866434490
    1    2    2    9        0.0000000003
    1    2    2   10       -0.0422702973
    1    3    2    2       -0.0018800210
    1    3    2    9       -0.0063751488
    1    3    2   10       -0.0000000002
    1    4    2    6       -0.0452078650
    1    4    2    7       -0.0100862991
    1    5    2    6        0.0100862991
    1    5    2    7       -0.0452078650
    1    6    2    4       -0.0432609928
    1    6    2    5        0.0096519336
    1    7    2    4       -0.0096519336
    1    7    2    5       -0.0432609928
    1    8    2    1       -0.0000000001
    1    8    2    2        0.0856996623
    1    8    2    8       -0.0000000002
    1    8    2    9        0.0644712274
    1    8    2   10        0.0000000004
    1    9    2    1        0.0764794414
    1    9    2    2        0.0000000003
    1    9    2    3       -0.0055197039
    1    9    2    8        0.0643013198
    1    9    2    9        0.0000000003
    1    9    2   10       -0.0226541543
    1   10    2    1        0.0000000003
    1   10    2    2       -0.0414715850
    1   10    2    3       -0.0000000001
    1   10    2    8        0.0000000004
    1   10    2    9       -0.0224045921
    1   10    2   10       -0.0000000001
    1    1    3    1       -0.0032449586
    1    1    3    3        0.2999230867
    1    1    3    8       -0.0126406398
    1    1    3    9        0.0000000002
    1    1    3   10       -0.0450902760
    1    2    3    2        0.0174412116
    1    2    3    3       -0.0000000004
    1    2    3    8       -0.0000000001
    1    2    3    9       -0.0189308216
    1    2    3   10       -0.0000000006
    1    3    3    1        0.0396500434
    1    3    3    3       -0.0197427551
    1    3    3    8       -0.0043242085
    1    3    3    9       -0.0000000001
    1    3    3   10        0.0322691228
    1    4    3    4       -0.0059992574
    1    5    3    5       -0.0059992574
    1    6    3    6       -0.0105503677
    1    7    3    7       -0.0105503677
    1    8    3    1       -0.0051589152
    1    8    3    3        0.0347308685
    1    8    3    8       -0.0129323947
    1    8    3    9        0.0000000002
    1    8    3   10       -0.0279806240
    1    9    3    2       -0.0055302733
    1    9    3    9       -0.0128442443
    1    9    3   10       -0.0000000001
    1   10    3    1       -0.0139422627
    1   10    3    2       -0.0000000001
    1   10    3    3        0.0028623149
    1   10    3    8       -0.0057801028
    1   10    3   10       -0.0030123483
    1    1    4    4        0.3020146184
    1    2    4    6       -0.1636156016
    1    2    4    7       -0.0365041767
    1    3    4    4       -0.0152034207
    1    4    4    1        0.0399096842
    1    4    4    3       -0.0059998439
    1    4    4    8       -0.0154655722
    1    4    4   10       -0.0040475195
    1    6    4    2       -0.0432990285
    1    6    4    9        0.0115959312
    1    7    4    2       -0.0096604197
    1    7    4    9        0.0025871611
    1    8    4    4        0.0316682898
    1    9    4    4        0.0000000001
    1    9    4    6       -0.0382288325
    1    9    4    7       -0.0085292114
    1   10    4    4       -0.0153708902
    1   10    4    6       -0.0000000002
    1    1    5    5        0.3020146184
    1    2    5    6        0.0365041767
    1    2    5    7       -0.1636156016
    1    3    5    5       -0.0152034207
    1    5    5    1        0.0399096842
    1    5    5    3       -0.0059998439
    1    5    5    8       -0.0154655722
    1    5    5   10       -0.0040475195
    1    6    5    2        0.0096604197
    1    6    5    9       -0.0025871611
    1    7    5    2       -0.0432990285
    1    7    5    9        0.0115959312
    1    8    5    5        0.0316682898
    1    9    5    5        0.0000000001
    1    9    5    6        0.0085292114
    1    9    5    7       -0.0382288325
    1   10    5    5       -0.0153708902
    1   10    5    7       -0.0000000002
    1    1    6    6        0.3866854632
    1    2    6    4       -0.1636188498
    1    2    6    5        0.0365049014
    1    3    6    6       -0.0253876522
    1    4    6    2       -0.0452491203
    1    4    6    9        0.0001161969
    1    5    6    2        0.0100955035
    1    5    6    9       -0.0000259246
    1    6    6    1        0.0593329406
    1    6    6    3       -0.0105468205
    1    6    6    8        0.0153962630
    1    6    6    9        0.0000000001
    1    6    6   10       -0.0129923814
    1    8    6    6        0.0836775064
    1    9    6    4       -0.0382097287
    1    9    6    5        0.0085249492
    1    9    6    6        0.0000000003
    1   10    6    4       -0.0000000002
    1   10    6    6       -0.0329028255
    1    1    7    7        0.3866854632
    1    2    7    4       -0.0365049014
    1    2    7    5       -0.1636188498
    1    3    7    7       -0.0253876522
    1    4    7    2       -0.0100955035
    1    4    7    9        0.0000259246
    1    5    7    2       -0.0452491203
    1    5    7    9        0.0001161969
    1    7    7    1        0.0593329406
    1    7    7    3       -0.0105468205
    1    7    7    8        0.0153962630
    1    7    7    9        0.0000000001
    1    7    7   10       -0.0129923814
    1    8    7    7        0.0836775064
    1    9    7    4       -0.0085249492
    1    9    7    5       -0.0382097287
    1    9    7    7        0.0000000003
    1   10    7    5       -0.0000000002
    1   10    7    7       -0.0329028255
    1    1    8    1        0.0836966746
    1    1    8    3       -0.0126406398
    1    1    8    8        0.3433443860
    1    1    8    9       -0.0000000002
    1    1    8   10       -0.0043364075
    1    2    8    1       -0.0000000001
    1    2    8    2        0.0866407543
    1    2    8    3       -0.0000000001
    1    2    8    8       -0.0000000005
    1    2    8    9        0.2119184530
    1    2    8   10        0.0000000013
    1    3    8    1       -0.0051589152
    1    3    8    3       -0.0043243166
    1    3    8    8       -0.0263636831
    1    3    8    9        0.0000000002
    1    3    8   10       -0.0278956550
    1    4    8    4       -0.0154671058
    1    5    8    5       -0.0154671058
    1    6    8    6        0.0154124790
    1    7    8    7        0.0154124790
    1    8    8    1        0.0613916020
    1    8    8    2       -0.0000000002
    1    8    8    3       -0.0129367172
    1    8    8    8        0.0792032612
    1    8    8    9       -0.0000000002
    1    8    8   10       -0.0061758726
    1    9    8    2        0.0643059360
    1    9    8    9        0.0869270254
    1    9    8   10        0.0000000004
    1   10    8    1       -0.0205398689
    1   10    8    2        0.0000000004
    1   10    8    3       -0.0057788097
    1   10    8    8       -0.0248383564
    1   10    8    9        0.0000000004
    1   10    8   10        0.0284587744
    1    1    9    1        0.0000000003
    1    1    9    2        0.0786987173
    1    1    9    3        0.0000000002
    1    1    9    8       -0.0000000002
    1    1    9    9        0.3868172056
    1    1    9   10        0.0000000003
    1    2    9    1        0.0764794414
    1    2    9    2        0.0000000003
    1    2    9    3       -0.0189435686
    1    2    9    8        0.2119206466
    1    2    9    9        0.0000000002
    1    2    9   10       -0.0275070531
    1    3    9    2       -0.0063984399
    1    3    9    3       -0.0000000001
    1    3    9    8        0.0000000002
    1    3    9    9       -0.0280980357
    1    4    9    6        0.0001092169
    1    4    9    7        0.0000243673
    1    5    9    6       -0.0000243673
    1    5    9    7        0.0001092169
    1    6    9    4        0.0116080655
    1    6    9    5       -0.0025898684
    1    6    9    6        0.0000000001
    1    7    9    4        0.0025898684
    1    7    9    5        0.0116080655
    1    7    9    7        0.0000000001
    1    8    9    2        0.0644780291
    1    8    9    3        0.0000000002
    1    8    9    8       -0.0000000002
    1    8    9    9        0.1050801680
    1    8    9   10        0.0000000002
    1    9    9    1        0.0678956381
    1    9    9    2        0.0000000003
    1    9    9    3       -0.0128402356
    1    9    9    8        0.0869322276
    1    9    9    9        0.0000000004
    1    9    9   10       -0.0161946896
    1   10    9    1        0.0000000002
    1   10    9    2       -0.0223892789
    1   10    9    8        0.0000000004
    1   10    9    9       -0.0365315332
    1   10    9   10       -0.0000000001
    1    1   10    1       -0.0400792681
    1    1   10    2        0.0000000004
    1    1   10    3       -0.0450902760
    1    1   10    8       -0.0043364075
    1    1   10    9        0.0000000003
    1    1   10   10        0.3602739297
    1    2   10    1        0.0000000003
    1    2   10    2       -0.0422784550
    1    2   10    3       -0.0000000006
    1    2   10    8        0.0000000013
    1    2   10    9       -0.0275132218
    1    3   10    1       -0.0139422627
    1    3   10    2       -0.0000000002
    1    3   10    3        0.0322670511
    1    3   10    8       -0.0278960062
    1    3   10   10       -0.0220743219
    1    4   10    4       -0.0040476115
    1    5   10    5       -0.0040476115
    1    6   10    6       -0.0129989751
    1    7   10    7       -0.0129989751
    1    8   10    1       -0.0205398689
    1    8   10    2        0.0000000004
    1    8   10    3       -0.0279796819
    1    8   10    8       -0.0061759425
    1    8   10    9        0.0000000002
    1    8   10   10        0.0832793076
    1    9   10    1        0.0000000002
    1    9   10    2       -0.0226450082
    1    9   10    3       -0.0000000001
    1    9   10    8        0.0000000004
    1    9   10    9       -0.0161883395
    1    9   10   10        0.0000000002
    1   10   10    1        0.0373140646
    1   10   10    2       -0.0000000001
    1   10   10    3       -0.0030138993
    1   10   10    8        0.0284587663
    1   10   10    9       -0.0000000001
    1   10   10   10       -0.0084769678
    2    1    1    2        0.2453980539
    2    1    1    8       -0.0000000001
    2    1    1    9        0.0764794414
    2    1    1   10        0.0000000003
    2    2    1    1        0.3795947111
    2    2    1    3       -0.0018800210
    2    2    1    8        0.0856996623
    2    2    1    9        0.0000000003
    2    2    1   10       -0.0414715850
    2    3    1    2        0.0174372810
    2    3    1    9       -0.0055197039
    2    3    1   10       -0.0000000001
    2    4    1    6       -0.0432609928
    2    4    1    7       -0.0096519336
    2    5    1    6        0.0096519336
    2    5    1    7       -0.0432609928
    2    6    1    4       -0.0452078650
    2    6    1    5        0.0100862991
    2    7    1    4       -0.0100862991
    2    7    1    5       -0.0452078650
    2    8    1    2        0.0866434490
    2    8    1    8       -0.0000000002
    2    8    1    9        0.0643013198
    2    8    1   10        0.0000000004
    2    9    1    1        0.0786987173
    2    9    1    2        0.0000000003
    2    9    1    3       -0.0063751488
    2    9    1    8        0.0644712274
    2    9    1    9        0.0000000003
    2    9    1   10       -0.0224045921
    2   10    1    1        0.0000000004
    2   10    1    2       -0.0422702973
    2   10    1    3       -0.0000000002
    2   10    1    8        0.0000000004
    2   10    1    9       -0.0226541543
    2   10    1   10       -0.0000000001
    2    1    2    1        0.2454718334
    2    1    2    3        0.0174412116
    2    1    2    8        0.0866407543
    2    1    2    9        0.0000000003
    2    1    2   10       -0.0422784550
    2    2    2    2        0.3829637216
    2    2    2    8       -0.0000000001
    2    2    2    9        0.0805994517
    2    2    2   10        0.0000000004
    2    3    2    1        0.0174412116
    2    3    2    3        0.0343380290
    2    3    2    8       -0.0048972243
    2    3    2   10       -0.0137396891
    2    4    2    4        0.0378258281
    2    5    2    5        0.0378258281
    2    6    2    6        0.0619181942
    2    7    2    7        0.0619181942
    2    8    2    1        0.0866407543
    2    8    2    2       -0.0000000001
    2    8    2    3       -0.0048972243
    2    8    2    8        0.0632166088
    2    8    2   10       -0.0214696065
    2    9    2    1        0.0000000003
    2    9    2    2        0.0805994517
    2    9    2    9        0.0699135627
    2    9    2   10        0.0000000002
    2   10    2    1       -0.0422784550
    2   10    2    2        0.0000000004
    2   10    2    3       -0.0137396891
    2   10    2    8       -0.0214696065
    2   10    2    9        0.0000000002
    2   10    2   10        0.0381135337
    2    1    3    2        0.0174372810
    2    1    3    3       -0.0000000004
    2    1    3    8       -0.0000000001
    2    1    3    9       -0.0189435686
    2    1    3   10       -0.0000000006
    2    2    3    1       -0.0018800210
    2    2    3    3        0.3002675475
    2    2    3    8       -0.0135390618
    2    2    3    9        0.0000000002
    2    2    3   10       -0.0449831277
    2    3    3    2        0.0343380302
    2    3    3    9       -0.0072028317
    2    3    3   10       -0.0000000001
    2    4    3    6        0.0075699983
    2    4    3    7        0.0016889377
    2    5    3    6       -0.0016889377
    2    5    3    7        0.0075699983
    2    6    3    4        0.0077283751
    2    6    3    5       -0.0017242730
    2    7    3    4        0.0017242730
    2    7    3    5        0.0077283751
    2    8    3    2       -0.0048972246
    2    8    3    3       -0.0000000001
    2    8    3    9       -0.0120095829
    2    8    3   10       -0.0000000002
    2    9    3    1       -0.0063984399
    2    9    3    3        0.0271097601
    2    9    3    8       -0.0129078354
    2    9    3    9        0.0000000001
    2    9    3   10       -0.0266201362
    2   10    3    1       -0.0000000002
    2   10    3    2       -0.0137396895
    2   10    3    3        0.0000000002
    2   10    3    9       -0.0017418903
    2   10    3   10       -0.0000000003
    2    1    4    6       -0.1636188498
    2    1    4    7       -0.0365049014
    2    2    4    4        0.3032113635
    2    3    4    6        0.0014853345
    2    3    4    7        0.0003313921
    2    4    4    2        0.0378258285
    2    4    4    9       -0.0171049847
    2    6    4    1       -0.0452491203
    2    6    4    3        0.0077283758
    2    6    4    8        0.0086787972
    2    6    4   10        0.0064401505
    2    7    4    1       -0.0100955035
    2    7    4    3        0.0017242732
    2    7    4    8        0.0019363211
    2    7    4   10        0.0014368580
    2    8    4    6       -0.0473852137
    2    8    4    7       -0.0105720860
    2    9    4    4        0.0251484290
    2    9    4    6       -0.0000000002
    2   10    4    4        0.0000000002
    2   10    4    6        0.0200942688
    2   10    4    7        0.0044832200
    2    1    5    6        0.0365049014
    2    1    5    7       -0.1636188498
    2    2    5    5        0.3032113635
    2    3    5    6       -0.0003313921
    2    3    5    7        0.0014853345
    2    5    5    2        0.0378258285
    2    5    5    9       -0.0171049847
    2    6    5    1        0.0100955035
    2    6    5    3       -0.0017242732
    2    6    5    8       -0.0019363211
    2    6    5   10       -0.0014368580
    2    7    5    1       -0.0452491203
    2    7    5    3        0.0077283758
    2    7    5    8        0.0086787972
    2    7    5   10        0.0064401505
    2    8    5    6        0.0105720860
    2    8    5    7       -0.0473852137
    2    9    5    5        0.0251484290
    2    9    5    7       -0.0000000002
    2   10    5    5        0.0000000002
    2   10    5    6       -0.0044832200
    2   10    5    7        0.0200942688
    2    1    6    4       -0.1636156016
    2    1    6    5        0.0365041767
    2    2    6    6        0.3895077431
    2    3    6    4        0.0014853353
    2    3    6    5       -0.0003313922
    2    4    6    1       -0.0432990285
    2    4    6    3        0.0075699998
    2    4    6    8       -0.0055559071
    2    4    6   10        0.0089636642
    2    5    6    1        0.0096604197
    2    5    6    3       -0.0016889380
    2    5    6    8        0.0012395750
    2    5    6   10       -0.0019998776
    2    6    6    2        0.0619181997
    2    6    6    9        0.0096325650
    2    6    6   10        0.0000000001
    2    8    6    4       -0.0473852140
    2    8    6    5        0.0105720861
    2    9    6    4       -0.0000000002
    2    9    6    6        0.0770321374
    2   10    6    4        0.0200942690
    2   10    6    5       -0.0044832201
    2   10    6    6        0.0000000005
    2    1    7    4       -0.0365041767
    2    1    7    5       -0.1636156016
    2    2    7    7        0.3895077431
    2    3    7    4        0.0003313922
    2    3    7    5        0.0014853353
    2    4    7    1       -0.0096604197
    2    4    7    3        0.0016889380
    2    4    7    8       -0.0012395750
    2    4    7   10        0.0019998776
    2    5    7    1       -0.0432990285
    2    5    7    3        0.0075699998
    2    5    7    8       -0.0055559071
    2    5    7   10        0.0089636642
    2    7    7    2        0.0619181997
    2    7    7    9        0.0096325650
    2    7    7   10        0.0000000001
    2    8    7    4       -0.0105720861
    2    8    7    5       -0.0473852140
    2    9    7    5       -0.0000000002
    2    9    7    7        0.0770321374
    2   10    7    4        0.0044832201
    2   10    7    5        0.0200942690
    2   10    7    7        0.0000000005
    2    1    8    1       -0.0000000001
    2    1    8    2        0.0866434490
    2    1    8    3       -0.0000000001
    2    1    8    8       -0.0000000005
    2    1    8    9        0.2119206466
    2    1    8   10        0.0000000013
    2    2    8    1        0.0856996623
    2    2    8    2       -0.0000000001
    2    2    8    3       -0.0135390618
    2    2    8    8        0.3451915431
    2    2    8    9       -0.0000000002
    2    2    8   10       -0.0055080837
    2    3    8    2       -0.0048972246
    2    3    8    9       -0.0050070497
    2    4    8    6       -0.0055559074
    2    4    8    7       -0.0012395751
    2    5    8    6        0.0012395751
    2    5    8    7       -0.0055559074
    2    6    8    4        0.0086787967
    2    6    8    5       -0.0019363210
    2    7    8    4        0.0019363210
    2    7    8    5        0.0086787967
    2    8    8    1       -0.0000000002
    2    8    8    2        0.0632166092
    2    8    8    8       -0.0000000003
    2    8    8    9        0.0911780402
    2    8    8   10        0.0000000006
    2    9    8    1        0.0644780291
    2    9    8    3       -0.0129078356
    2    9    8    8        0.0792759577
    2    9    8    9        0.0000000002
    2    9    8   10       -0.0087785258
    2   10    8    1        0.0000000004
    2   10    8    2       -0.0214696063
    2   10    8    8        0.0000000006
    2   10    8    9       -0.0315372937
    2    1    9    1        0.0763421770
    2    1    9    2        0.0000000003
    2    1    9    3       -0.0189308216
    2    1    9    8        0.2119184530
    2    1    9    9        0.0000000002
    2    1    9   10       -0.0275132218
    2    2    9    1        0.0000000003
    2    2    9    2        0.0805994517
    2    2    9    3        0.0000000002
    2    2    9    8       -0.0000000002
    2    2    9    9        0.3896429762
    2    2    9   10        0.0000000003
    2    3    9    1       -0.0055302733
    2    3    9    3       -0.0072028301
    2    3    9    8       -0.0050070497
    2    3    9    9        0.0000000002
    2    3    9   10       -0.0193160997
    2    4    9    4       -0.0171049841
    2    5    9    5       -0.0171049841
    2    6    9    6        0.0096325676
    2    7    9    7        0.0096325676
    2    8    9    1        0.0643059360
    2    8    9    3       -0.0120095831
[...]
    9    3    9   10       -0.0014349390
    9    4    9    4        0.0183463859
    9    5    9    5        0.0183463859
    9    6    9    6        0.0172210611
    9    7    9    7        0.0172210611
    9    8    9    1        0.0869270254
    9    8    9    2        0.0000000002
    9    8    9    3       -0.0170210624
    9    8    9    8        0.2107806701
    9    8    9    9       -0.0000000001
    9    8    9   10       -0.0165324918
    9    9    9    1        0.0000000004
    9    9    9    2        0.1066187622
    9    9    9    3        0.0000000003
    9    9    9    8       -0.0000000001
    9    9    9    9        0.4374736060
    9    9    9   10        0.0000000001
    9   10    9    1       -0.0161883395
    9   10    9    3       -0.0014349390
    9   10    9    8       -0.0165324918
    9   10    9    9        0.0000000001
    9   10    9   10        0.0319668424
    9    1   10    1        0.0000000002
    9    1   10    2       -0.0226541543
    9    1   10    3       -0.0000000001
    9    1   10    8        0.0000000004
    9    1   10    9       -0.0161946896
    9    1   10   10        0.0000000002
    9    2   10    1       -0.0224045921
    9    2   10    2        0.0000000002
    9    2   10    3       -0.0266201362
    9    2   10    8       -0.0087785258
    9    2   10   10        0.0770385694
    9    3   10    2       -0.0017418903
    9    3   10    3       -0.0000000001
    9    3   10    9       -0.0014349398
    9    3   10   10        0.0000000003
    9    4   10    6       -0.0027123298
    9    4   10    7       -0.0006051462
    9    5   10    6        0.0006051462
    9    5   10    7       -0.0027123298
    9    6   10    4       -0.0001352782
    9    6   10    5        0.0000301818
    9    7   10    4       -0.0000301818
    9    7   10    5       -0.0001352782
    9    8   10    1        0.0000000004
    9    8   10    2       -0.0315372937
    9    8   10    3       -0.0000000003
    9    8   10    8        0.0000000011
    9    8   10    9       -0.0165324913
    9    9   10    1       -0.0365315332
    9    9   10    2        0.0000000004
    9    9   10    3       -0.0639834859
    9    9   10    8        0.0069919869
    9    9   10    9        0.0000000001
    9    9   10   10        0.3804069845
    9   10   10    1       -0.0000000001
    9   10   10    2        0.0276566786
    9   10   10    8       -0.0000000001
    9   10   10    9        0.0319668448
    9   10   10   10        0.0000000006
   10    1    1    1       -0.0400792681
   10    1    1    2        0.0000000003
   10    1    1    3       -0.0139422627
   10    1    1    8       -0.0205398689
   10    1    1    9        0.0000000002
   10    1    1   10        0.0373140646
   10    2    1    1        0.0000000004
   10    2    1    2       -0.0422784550
   10    2    1    3       -0.0000000002
   10    2    1    8        0.0000000004
   10    2    1    9       -0.0226450082
   10    2    1   10       -0.0000000001
   10    3    1    1       -0.0450902760
   10    3    1    2       -0.0000000006
   10    3    1    3        0.0322670511
   10    3    1    8       -0.0279796819
   10    3    1    9       -0.0000000001
   10    3    1   10       -0.0030138993
   10    4    1    4       -0.0040476115
   10    5    1    5       -0.0040476115
   10    6    1    6       -0.0129989751
   10    7    1    7       -0.0129989751
   10    8    1    1       -0.0043364075
   10    8    1    2        0.0000000013
   10    8    1    3       -0.0278960062
   10    8    1    8       -0.0061759425
   10    8    1    9        0.0000000004
   10    8    1   10        0.0284587663
   10    9    1    1        0.0000000003
   10    9    1    2       -0.0275132218
   10    9    1    8        0.0000000002
   10    9    1    9       -0.0161883395
   10    9    1   10       -0.0000000001
   10   10    1    1        0.3602739297
   10   10    1    3       -0.0220743219
   10   10    1    8        0.0832793076
   10   10    1    9        0.0000000002
   10   10    1   10       -0.0084769678
   10    1    2    1        0.0000000003
   10    1    2    2       -0.0414715850
   10    1    2    3       -0.0000000001
   10    1    2    8        0.0000000004
   10    1    2    9       -0.0223892789
   10    1    2   10       -0.0000000001
   10    2    2    1       -0.0422702973
   10    2    2    2        0.0000000004
   10    2    2    3       -0.0137396895
   10    2    2    8       -0.0214696063
   10    2    2    9        0.0000000002
   10    2    2   10        0.0381135347
   10    3    2    1       -0.0000000006
   10    3    2    2       -0.0449831277
   10    3    2    3       -0.0000000001
   10    3    2    8       -0.0000000002
   10    3    2    9       -0.0266201359
   10    3    2   10       -0.0000000003
   10    4    2    6        0.0064401530
   10    4    2    7        0.0014368586
   10    5    2    6       -0.0014368586
   10    5    2    7        0.0064401530
   10    6    2    4        0.0089636664
   10    6    2    5       -0.0019998781
   10    6    2    6        0.0000000001
   10    7    2    4        0.0019998781
   10    7    2    5        0.0089636664
   10    7    2    7        0.0000000001
   10    8    2    1        0.0000000013
   10    8    2    2       -0.0055080837
   10    8    2    8        0.0000000006
   10    8    2    9       -0.0087785258
   10    9    2    1       -0.0275070531
   10    9    2    2        0.0000000003
   10    9    2    3       -0.0193160986
   10    9    2    8       -0.0143529719
   10    9    2   10        0.0276566786
   10   10    2    2        0.3625144946
   10   10    2    3       -0.0000000004
   10   10    2    9        0.0770385694
   10   10    2   10        0.0000000008
   10    1    3    1       -0.0139540665
   10    1    3    2       -0.0000000001
   10    1    3    3        0.0028623149
   10    1    3    8       -0.0057788097
   10    1    3   10       -0.0030138993
   10    2    3    1       -0.0000000002
   10    2    3    2       -0.0137396891
   10    2    3    3        0.0000000002
   10    2    3    9       -0.0017418911
   10    2    3   10       -0.0000000003
   10    3    3    1        0.0322691228
   10    3    3    2       -0.0000000001
   10    3    3    3       -0.0362307667
   10    3    3    8        0.0041688043
   10    3    3    9       -0.0000000001
   10    3    3   10        0.0487718417
   10    4    3    4       -0.0008639444
   10    5    3    5       -0.0008639444
   10    6    3    6       -0.0066956996
   10    7    3    7       -0.0066956996
   10    8    3    1       -0.0278956550
   10    8    3    3        0.0220188402
   10    8    3    8       -0.0044901797
   10    8    3   10       -0.0255166032
   10    9    3    2       -0.0193160997
   10    9    3    9       -0.0014349390
   10   10    3    1       -0.0220743219
   10   10    3    2       -0.0000000004
   10   10    3    3        0.3189619095
   10   10    3    8       -0.0210017977
   10   10    3    9        0.0000000003
   10   10    3   10       -0.0647942662
   10    1    4    4       -0.0153708902
   10    1    4    6       -0.0000000002
   10    2    4    4        0.0000000002
   10    2    4    6        0.0200942690
   10    2    4    7        0.0044832201
   10    3    4    4       -0.0324929274
   10    3    4    6        0.0000000004
   10    4    4    1       -0.0040475195
   10    4    4    3       -0.0008639443
   10    4    4    8        0.0015398699
   10    4    4   10        0.0064990267
   10    6    4    2        0.0089636642
   10    6    4    9       -0.0027123293
   10    7    4    2        0.0019998776
   10    7    4    9       -0.0006051461
   10    8    4    4        0.0131042286
   10    8    4    6       -0.0000000008
   10    8    4    7       -0.0000000002
   10    9    4    4        0.0000000001
   10    9    4    6        0.0051276527
   10    9    4    7        0.0011440275
   10   10    4    4        0.2929930059
   10   10    4    6       -0.0000000002
   10    1    5    5       -0.0153708902
   10    1    5    7       -0.0000000002
   10    2    5    5        0.0000000002
   10    2    5    6       -0.0044832201
   10    2    5    7        0.0200942690
   10    3    5    5       -0.0324929274
   10    3    5    7        0.0000000004
   10    5    5    1       -0.0040475195
   10    5    5    3       -0.0008639443
   10    5    5    8        0.0015398699
   10    5    5   10        0.0064990267
   10    6    5    2       -0.0019998776
   10    6    5    9        0.0006051461
   10    7    5    2        0.0089636642
   10    7    5    9       -0.0027123293
   10    8    5    5        0.0131042286
   10    8    5    6        0.0000000002
   10    8    5    7       -0.0000000008
   10    9    5    5        0.0000000001
   10    9    5    6       -0.0011440275
   10    9    5    7        0.0051276527
   10   10    5    5        0.2929930059
   10   10    5    7       -0.0000000002
   10    1    6    4       -0.0000000002
   10    1    6    6       -0.0329028255
   10    2    6    4        0.0200942688
   10    2    6    5       -0.0044832200
   10    2    6    6        0.0000000005
   10    3    6    4        0.0000000004
   10    3    6    6       -0.0626641055
   10    4    6    2        0.0064401505
   10    4    6    9       -0.0001352770
   10    5    6    2       -0.0014368580
   10    5    6    9        0.0000301816
   10    6    6    1       -0.0129923814
   10    6    6    2        0.0000000001
   10    6    6    3       -0.0066956987
   10    6    6    8       -0.0009309020
   10    6    6   10        0.0157638068
   10    8    6    4       -0.0000000008
   10    8    6    5        0.0000000002
   10    8    6    6        0.0145795141
   10    9    6    4        0.0051276535
   10    9    6    5       -0.0011440276
   10    9    6    6        0.0000000003
   10   10    6    4       -0.0000000002
   10   10    6    6        0.3737912556
   10    1    7    5       -0.0000000002
   10    1    7    7       -0.0329028255
   10    2    7    4        0.0044832200
   10    2    7    5        0.0200942688
   10    2    7    7        0.0000000005
   10    3    7    5        0.0000000004
   10    3    7    7       -0.0626641055
   10    4    7    2        0.0014368580
   10    4    7    9       -0.0000301816
   10    5    7    2        0.0064401505
   10    5    7    9       -0.0001352770
   10    7    7    1       -0.0129923814
   10    7    7    2        0.0000000001
   10    7    7    3       -0.0066956987
   10    7    7    8       -0.0009309020
   10    7    7   10        0.0157638068
   10    8    7    4       -0.0000000002
   10    8    7    5       -0.0000000008
   10    8    7    7        0.0145795141
   10    9    7    4        0.0011440276
   10    9    7    5        0.0051276535
   10    9    7    7        0.0000000003
   10   10    7    5       -0.0000000002
   10   10    7    7        0.3737912556
   10    1    8    1       -0.0205009117
   10    1    8    2        0.0000000004
   10    1    8    3       -0.0057801028
   10    1    8    8       -0.0248383564
   10    1    8    9        0.0000000004
   10    1    8   10        0.0284587663
   10    2    8    1        0.0000000004
   10    2    8    2       -0.0214696065
   10    2    8    8        0.0000000006
   10    2    8    9       -0.0315372932
   10    3    8    1       -0.0279806240
   10    3    8    2       -0.0000000002
   10    3    8    3        0.0041688044
   10    3    8    8       -0.0548153225
   10    3    8    9       -0.0000000003
   10    3    8   10       -0.0255166032
   10    4    8    4        0.0015398700
   10    5    8    5        0.0015398700
   10    6    8    6       -0.0009309017
   10    7    8    7       -0.0009309017
   10    8    8    1       -0.0061758726
   10    8    8    2        0.0000000006
   10    8    8    3       -0.0044901797
   10    8    8    8        0.0119119814
   10    8    8    9        0.0000000011
   10    8    8   10        0.0383691356
   10    9    8    1        0.0000000002
   10    9    8    2       -0.0143529714
   10    9    8    8        0.0000000004
   10    9    8    9       -0.0165324918
   10    9    8   10       -0.0000000001
   10   10    8    1        0.0832793076
   10   10    8    3       -0.0210017977
   10   10    8    8        0.3436596786
   10   10    8   10        0.0243928073
   10    1    9    1        0.0000000002
   10    1    9    2       -0.0224045921
   10    1    9    8        0.0000000004
   10    1    9    9       -0.0365315332
   10    1    9   10       -0.0000000001
   10    2    9    1       -0.0226541543
   10    2    9    2        0.0000000002
   10    2    9    3       -0.0017418903
   10    2    9    8       -0.0315372937
   10    2    9    9        0.0000000004
   10    2    9   10        0.0276566786
   10    3    9    1       -0.0000000001
   10    3    9    2       -0.0266201362
   10    3    9    3       -0.0000000001
   10    3    9    8       -0.0000000003
   10    3    9    9       -0.0639834859
   10    4    9    6       -0.0001352782
   10    4    9    7       -0.0000301818
   10    5    9    6        0.0000301818
   10    5    9    7       -0.0001352782
   10    6    9    4       -0.0027123298
   10    6    9    5        0.0006051462
   10    7    9    4       -0.0006051462
   10    7    9    5       -0.0027123298
   10    8    9    1        0.0000000004
   10    8    9    2       -0.0087785258
   10    8    9    8        0.0000000011
   10    8    9    9        0.0069919869
   10    8    9   10       -0.0000000001
   10    9    9    1       -0.0161946896
   10    9    9    3       -0.0014349398
   10    9    9    8       -0.0165324913
   10    9    9    9        0.0000000001
   10    9    9   10        0.0319668448
   10   10    9    1        0.0000000002
   10   10    9    2        0.0770385694
   10   10    9    3        0.0000000003
   10   10    9    9        0.3804069845
   10   10    9   10        0.0000000006
   10    1   10    1        0.0373816567
   10    1   10    2       -0.0000000001
   10    1   10    3       -0.0030123483
   10    1   10    8        0.0284587744
   10    1   10    9       -0.0000000001
   10    1   10   10       -0.0084769678
   10    2   10    1       -0.0000000001
   10    2   10    2        0.0381135337
   10    2   10    3       -0.0000000003
   10    2   10    9        0.0276566798
   10    2   10   10        0.0000000008
   10    3   10    1       -0.0030123483
   10    3   10    2       -0.0000000003
   10    3   10    3        0.0487718415
   10    3   10    8       -0.0255166032
   10    3   10   10       -0.0647942662
   10    4   10    4        0.0064990266
   10    5   10    5        0.0064990266
   10    6   10    6        0.0157638050
   10    7   10    7        0.0157638050
   10    8   10    1        0.0284587744
   10    8   10    3       -0.0255166032
   10    8   10    8        0.0383691356
   10    8   10    9       -0.0000000001
   10    8   10   10        0.0243928073
   10    9   10    1       -0.0000000001
   10    9   10    2        0.0276566798
   10    9   10    8       -0.0000000001
   10    9   10    9        0.0319668424
   10    9   10   10        0.0000000006
   10   10   10    1       -0.0084769678
   10   10   10    2        0.0000000008
   10   10   10    3       -0.0647942662
   10   10   10    8        0.0243928073
   10   10   10    9        0.0000000006
   10   10   10   10        0.3925398583
 end_two_electron_integrals

 Parallel integral file used       8 records with       0 large values


 Task  times  cpu:      139.3s     wall:      141.8s


                                NWChem Input Module
                                -------------------


 Summary of allocated global arrays
-----------------------------------
  No active global arrays


MA_summarize_allocated_blocks: starting scan ...
MA_summarize_allocated_blocks: scan completed: 0 heap blocks, 0 stack blocks
MA usage statistics:

	allocation statistics:
					      heap	     stack
					      ----	     -----
	current number of blocks	         0	         0
	maximum number of blocks	        18	        42
	current total bytes		         0	         0
	maximum total bytes		  51983048	9994007128
	maximum total K-bytes		     51984	   9994008
	maximum total M-bytes		        52	      9995


                                     CITATION
                                     --------
                Please cite the following reference when publishing
                           results obtained with NWChem:

          E. Apra, E. J. Bylaska, W. A. de Jong, N. Govind, K. Kowalski,
       T. P. Straatsma, M. Valiev, H. J. J. van Dam, Y. Alexeev, J. Anchell,
       V. Anisimov, F. W. Aquino, R. Atta-Fynn, J. Autschbach, N. P. Bauman,
     J. C. Becca, D. E. Bernholdt, K. Bhaskaran-Nair, S. Bogatko, P. Borowski,
         J. Boschen, J. Brabec, A. Bruner, E. Cauet, Y. Chen, G. N. Chuev,
      C. J. Cramer, J. Daily, M. J. O. Deegan, T. H. Dunning Jr., M. Dupuis,
   K. G. Dyall, G. I. Fann, S. A. Fischer, A. Fonari, H. Fruchtl, L. Gagliardi,
      J. Garza, N. Gawande, S. Ghosh, K. Glaesemann, A. W. Gotz, J. Hammond,
       V. Helms, E. D. Hermes, K. Hirao, S. Hirata, M. Jacquelin, L. Jensen,
   B. G. Johnson, H. Jonsson, R. A. Kendall, M. Klemm, R. Kobayashi, V. Konkov,
      S. Krishnamoorthy, M. Krishnan, Z. Lin, R. D. Lins, R. J. Littlefield,
      A. J. Logsdail, K. Lopata, W. Ma, A. V. Marenich, J. Martin del Campo,
   D. Mejia-Rodriguez, J. E. Moore, J. M. Mullin, T. Nakajima, D. R. Nascimento,
    J. A. Nichols, P. J. Nichols, J. Nieplocha, A. Otero-de-la-Roza, B. Palmer,
    A. Panyala, T. Pirojsirikul, B. Peng, R. Peverati, J. Pittner, L. Pollack,
   R. M. Richard, P. Sadayappan, G. C. Schatz, W. A. Shelton, D. W. Silverstein,
   D. M. A. Smith, T. A. Soares, D. Song, M. Swart, H. L. Taylor, G. S. Thomas,
            V. Tipparaju, D. G. Truhlar, K. Tsemekhman, T. Van Voorhis,
      A. Vazquez-Mayagoitia, P. Verma, O. Villa, A. Vishnu, K. D. Vogiatzis,
        D. Wang, J. H. Weare, M. J. Williamson, T. L. Windus, K. Wolinski,
        A. T. Wong, Q. Wu, C. Yang, Q. Yu, M. Zacharias, Z. Zhang, Y. Zhao,
                                and R. J. Harrison
                        "NWChem: Past, present, and future
                         J. Chem. Phys. 152, 184102 (2020)
                               doi:10.1063/5.0004997

                                      AUTHORS
                                      -------
  E. Apra, E. J. Bylaska, N. Govind, K. Kowalski, M. Valiev, D. Mejia-Rodriguez,
       A. Kunitsa, N. P. Bauman, A. Panyala, W. A. de Jong, T. P. Straatsma,
        H. J. J. van Dam, D. Wang, T. L. Windus, J. Hammond, J. Autschbach,
    K. Bhaskaran-Nair, J. Brabec, K. Lopata, S. A. Fischer, S. Krishnamoorthy,
     M. Jacquelin, W. Ma, M. Klemm, O. Villa, Y. Chen, V. Anisimov, F. Aquino,
    S. Hirata, M. T. Hackler, Eric Hermes, L. Jensen, J. E. Moore, J. C. Becca,
      V. Konjkov, T. Risthaus, M. Malagoli, A. Marenich, A. Otero-de-la-Roza,
        J. Mullin, P. Nichols, R. Peverati, J. Pittner, Y. Zhao, P.-D. Fan,
        A. Fonari, M. J. Williamson, R. J. Harrison, J. R. Rehr, M. Dupuis,
     D. Silverstein, D. M. A. Smith, J. Nieplocha, V. Tipparaju, M. Krishnan,
     B. E. Van Kuiken, A. Vazquez-Mayagoitia, M. Swart, Q. Wu, T. Van Voorhis,
     A. A. Auer, M. Nooijen, L. D. Crosby, E. Brown, G. Cisneros, G. I. Fann,
   H. Fruchtl, J. Garza, K. Hirao, R. A. Kendall, J. A. Nichols, K. Tsemekhman,
    K. Wolinski, J. Anchell, D. E. Bernholdt, P. Borowski, T. Clark, D. Clerc,
   H. Dachsel, M. J. O. Deegan, K. Dyall, D. Elwood, E. Glendening, M. Gutowski,
   A. C. Hess, J. Jaffe, B. G. Johnson, J. Ju, R. Kobayashi, R. Kutteh, Z. Lin,
   R. Littlefield, X. Long, B. Meng, T. Nakajima, S. Niu, L. Pollack, M. Rosing,
   K. Glaesemann, G. Sandrone, M. Stave, H. Taylor, G. Thomas, J. H. van Lenthe,
                               A. T. Wong, Z. Zhang.

 Total times  cpu:      140.6s     wall:      143.1s
