 argument  1 = input.nw
  NWChem w/ OpenMP: maximum threads =    1



============================== echo of input deck ==============================
 echo
 start H2
 title "H2"

 memory total 24 gb

 geometry units bohr
 symmetry c1
        H  0.00000000  0.00000000  0.00000000
        H  0.00000000  8.00  0.00000000
 end

 basis
   * library cc-pVQZ
 end

 mcscf
   active  10
   actelec 2
   multiplicity 1
   maxiter 40
   vectors input H2.mos
   vectors output H2.mos
 end

 task mcscf

 scf
   vectors input H2.mos
   vectors output H2-8.00.mos
   noscf
 end

 tce
   2eorb
   2emet 13
   ccsd
   maxiter 300
   lshift 0.8
 end

# set tce:print_integrals T
# set tce:qorb 10
# set tce:qela 1
# set tce:qelb 1

 set tce:qducc T
 set tce:nactv 9
 set tce:nonhf T
 set tce:ducc_model 6

 set tce:printtol 0.02

 task tce
================================================================================


                                         
                                         


             Northwest Computational Chemistry Package (NWChem) 7.0.1
             --------------------------------------------------------


                    Environmental Molecular Sciences Laboratory
                       Pacific Northwest National Laboratory
                                Richland, WA 99352

                              Copyright (c) 1994-2020
                       Pacific Northwest National Laboratory
                            Battelle Memorial Institute

             NWChem is an open-source computational chemistry package
                        distributed under the terms of the
                      Educational Community License (ECL) 2.0
             A copy of the license is included with this distribution
                              in the LICENSE.TXT file

                                  ACKNOWLEDGMENT
                                  --------------

            This software and its documentation were developed at the
            EMSL at Pacific Northwest National Laboratory, a multiprogram
            national laboratory, operated for the U.S. Department of Energy
            by Battelle under Contract Number DE-AC05-76RL01830. Support
            for this work was provided by the Department of Energy Office
            of Biological and Environmental Research, Office of Basic
            Energy Sciences, and the Office of Advanced Scientific Computing.


           Job information
           ---------------

    hostname        = WE46210
    program         = /home/baum612/code/nwchem/bin/LINUX64/nwchem
    date            = Sat Nov 11 05:11:10 2023

    compiled        = Mon_Nov_06_10:06:57_2023
    source          = /home/baum612/code/nwchem
    nwchem branch   = 7.0.0
    nwchem revision = nwchem_on_git-4191-g39d87d64de
    ga revision     = 5.8.1
    use scalapack   = F
    input           = input.nw
    prefix          = H2.
    data base       = ./H2.db
    status          = startup
    nproc           =        1
    time left       =     -1s



           Memory information
           ------------------

    heap     =  805306362 doubles =   6144.0 Mbytes
    stack    =  805306367 doubles =   6144.0 Mbytes
    global   = 1610612736 doubles =  12288.0 Mbytes (distinct from heap & stack)
    total    = 3221225465 doubles =  24576.0 Mbytes
    verify   = yes
    hardfail = no 


           Directory information
           ---------------------

  0 permanent = .
  0 scratch   = .




                                NWChem Input Module
                                -------------------


                                        H2
                                        --
 Turning off AUTOSYM since
 SYMMETRY directive was detected!


          ------
          auto-z
          ------
     1 autoz failed with cvr_scaling = 1.2 changing to 1.3
     2 autoz failed with cvr_scaling = 1.3 changing to 1.4
     3 autoz failed with cvr_scaling = 1.4 changing to 1.5
     4 autoz failed with cvr_scaling = 1.5 changing to 1.6
     5 autoz failed with cvr_scaling = 1.6 changing to 1.7

 AUTOZ failed to generate good internal coordinates.
 Cartesian coordinates will be used in optimizations.



                             Geometry "geometry" -> ""
                             -------------------------

 Output coordinates in a.u. (scale by  1.000000000 to convert to a.u.)

  No.       Tag          Charge          X              Y              Z
 ---- ---------------- ---------- -------------- -------------- --------------
    1 H                    1.0000     0.00000000    -4.00000000     0.00000000
    2 H                    1.0000     0.00000000     4.00000000     0.00000000

      Atomic Mass 
      ----------- 

      H                  1.007825


 Effective nuclear repulsion energy (a.u.)       0.1250000000

            Nuclear Dipole moment (a.u.) 
            ----------------------------
        X                 Y               Z
 ---------------- ---------------- ----------------
     0.0000000000     0.0000000000     0.0000000000


            XYZ format geometry
            -------------------
     2
 geometry
 H                     0.00000000    -2.11670900     0.00000000
 H                     0.00000000     2.11670900     0.00000000



 Summary of "ao basis" -> "" (cartesian)
 ------------------------------------------------------------------------------
       Tag                 Description            Shells   Functions and Types
 ---------------- ------------------------------  ------  ---------------------
 *                          cc-pVQZ                   on all atoms 


                      Basis "ao basis" -> "ao basis" (cartesian)
                      -----
  H (Hydrogen)
  ------------
            Exponent  Coefficients 
       -------------- ---------------------------------------------------------
  1 S  8.26400000E+01  0.002006
  1 S  1.24100000E+01  0.015343
  1 S  2.82400000E+00  0.075579

  2 S  7.97700000E-01  1.000000

  3 S  2.58100000E-01  1.000000

  4 S  8.98900000E-02  1.000000

  5 P  2.29200000E+00  1.000000

  6 P  8.38000000E-01  1.000000

  7 P  2.92000000E-01  1.000000

  8 D  2.06200000E+00  1.000000

  9 D  6.62000000E-01  1.000000

 10 F  1.39700000E+00  1.000000



 Summary of "ao basis" -> "ao basis" (cartesian)
 ------------------------------------------------------------------------------
       Tag                 Description            Shells   Functions and Types
 ---------------- ------------------------------  ------  ---------------------
 H                          cc-pVQZ                 10       35   4s3p2d1f



                            NWChem Direct MCSCF Module
                            --------------------------


                                        H2


     -----------------------------------
       Basis functions:             70
       Inactive shells:              0
       Active shells:               10
       Active electrons:             2
       Symmetry:                    a       
       Multiplicity:                 1
       Orbital rotations:          600
     -----------------------------------

     -----------------------------------
       E2 extrapolation:             F
       Conjugacy:                    T
       Micro CI relax:               T
       Canonical orbitals:           T
       Maximum iterations:          40
       Converge threshold:    1.00E-04
       Conjugacy resets:            20
       Initial levelshift:        0.10
     -----------------------------------

 Loading old vectors from job with title :

H2


   input molecular orbitals = ./H2.mos
  output molecular orbtials = ./H2.mos

       No. of determinants:           100


  Starting Orbital Energies
    -0.255565    -0.244376    -0.000008    -0.000002    -0.000002    -0.000000
    -0.000000    -0.000000    -0.000000    -0.000000     0.433532     0.587800
     0.803788     1.134525     1.134525     1.735999     1.839625     1.839625
     1.932226     2.051674     2.051674     2.052713     2.052713     2.055352
     2.090522     2.090522     2.090523     2.090523     2.888316     2.931559
     4.369389     4.369389     4.421028     4.427718     4.447793     4.447793
     5.943675     6.056408     6.056408     6.061214     6.070106     6.070106
     6.070824     6.070824     6.070824     6.070824     6.070827     6.070827
     6.070827     6.070827     8.126655     8.133198     8.135441     8.135441
     8.142444     8.142444     8.142861     8.142861     8.142861     8.142861
     9.640987     9.647833     9.711762     9.711762     9.715981     9.721101
     9.721101     9.737084    22.359232    22.455190

  Orbital Symmetry Irreps
a    a    a    a    a    a    a    a    a    a    a    a    a    a    a   
a    a    a    a    a    a    a    a    a    a    a    a    a    a    a   
a    a    a    a    a    a    a    a    a    a    a    a    a    a    a   
a    a    a    a    a    a    a    a    a    a    a    a    a    a    a   
a    a    a    a    a    a    a    a    a    a   

 Integral file          = ./H2.aoints.0
 Record size in doubles =  65536        No. of integs per rec  =  43688
 Max. records in memory =     99        Max. records in file   = 280141
 No. of bits per label  =      8        No. of bits per value  =     64


 #quartets = 1.327D+04 #integrals = 3.017D+05 #direct =  0.0% #cached =100.0%




          %%%%% MacroIteration   1 %%%%%


          Number of sigma calls:       13
                       o<<<<< (aa):             0.00
                       o<<<<< (bb):             0.00
                       o<<<<< (ab):             0.01
                       o<<<<< (total)           0.01
                       o<<<<< (aa) ff           0.00
                       o<<<<< (aa) gop          0.00
                       o<<<<< (aa) dot          0.00
                       o<<<<< (ab) str          0.00
                       o<<<<< (ab) gath         0.00
                       o<<<<< (ab) dotab        0.00
                       o<<<<< (ab) scat         0.00
                       o<<<<< (ab) sync         0.00
                       o<<<<< Density           0.00
                       o<<<<< Density one       0.00
                       o<<<<< Density two       0.00
                       o<<<<< Density ab        0.00
                       o<<<<< Spin adapt        0.00
                       o<<<<< Symm adapt        0.00

                       o<<<<< (ab) max sync:      0.00

           >>>| Valence CI:             -1.124924353580
           >>>| MCSCF energy:           -0.999924353580
           >>>| Gradient norm:          0.146730395D-03
     --- Warning:  480 Hessian diagonals < 0.05 ---

                              ----- Line search ------

        step       energy         lsg     num-lsg   num-lsh   lsrat    time
      ------- ---------------- --------- --------- --------- ------- --------
       0.0000      -0.99992435 -7.80D-09  0.00D+00  0.00D+00 0.0D+00      0.4

          Number of sigma calls:        8
                       o<<<<< (aa):             0.00
                       o<<<<< (bb):             0.00
                       o<<<<< (ab):             0.01
                       o<<<<< (total)           0.01
                       o<<<<< (aa) ff           0.00
                       o<<<<< (aa) gop          0.00
                       o<<<<< (aa) dot          0.00
                       o<<<<< (ab) str          0.00
                       o<<<<< (ab) gath         0.00
                       o<<<<< (ab) dotab        0.00
                       o<<<<< (ab) scat         0.00
                       o<<<<< (ab) sync         0.00
                       o<<<<< Density           0.00
                       o<<<<< Density one       0.00
                       o<<<<< Density two       0.00
                       o<<<<< Density ab        0.00
                       o<<<<< Spin adapt        0.00
                       o<<<<< Symm adapt        0.00

                       o<<<<< (ab) max sync:      0.00
       1.0000      -0.99992436 -1.46D-09 -1.46D-09  6.34D-09 1.9D-01      0.5

          Number of sigma calls:        7
                       o<<<<< (aa):             0.00
                       o<<<<< (bb):             0.00
                       o<<<<< (ab):             0.01
                       o<<<<< (total)           0.01
                       o<<<<< (aa) ff           0.00
                       o<<<<< (aa) gop          0.00
                       o<<<<< (aa) dot          0.00
                       o<<<<< (ab) str          0.00
                       o<<<<< (ab) gath         0.00
                       o<<<<< (ab) dotab        0.00
                       o<<<<< (ab) scat         0.00
                       o<<<<< (ab) sync         0.00
                       o<<<<< Density           0.00
                       o<<<<< Density one       0.00
                       o<<<<< Density two       0.00
                       o<<<<< Density ab        0.00
                       o<<<<< Spin adapt        0.00
                       o<<<<< Symm adapt        0.00

                       o<<<<< (ab) max sync:      0.00
       1.2305      -0.99992436  1.59D-12  1.59D-12  6.34D-09 2.0D-04      0.8
     --- Orbitals canonicalized ---



          %%%%% MacroIteration   2 %%%%%


          Number of sigma calls:       13
                       o<<<<< (aa):             0.00
                       o<<<<< (bb):             0.00
                       o<<<<< (ab):             0.01
                       o<<<<< (total)           0.01
                       o<<<<< (aa) ff           0.00
                       o<<<<< (aa) gop          0.00
                       o<<<<< (aa) dot          0.00
                       o<<<<< (ab) str          0.00
                       o<<<<< (ab) gath         0.00
                       o<<<<< (ab) dotab        0.00
                       o<<<<< (ab) scat         0.00
                       o<<<<< (ab) sync         0.00
                       o<<<<< Density           0.00
                       o<<<<< Density one       0.00
                       o<<<<< Density two       0.00
                       o<<<<< Density ab        0.00
                       o<<<<< Spin adapt        0.00
                       o<<<<< Symm adapt        0.00

                       o<<<<< (ab) max sync:      0.00

           >>>| Valence CI:             -1.124924358380
           >>>| MCSCF energy:           -0.999924358380
           >>>| Gradient norm:          0.245504218D-04




     ==============================
            MCSCF Converged
     ==============================



          Canonical Eigenvalues

              1      
    1   -0.2551
    2   -0.2448
    3   -0.0000
    4   -0.0000
    5   -0.0000
    6   -0.0000
    7   -0.0000
    8   -0.0000
    9   -0.0000
   10   -0.0000
   11    0.4358
   12    0.5853
   13    0.8004
   14    1.1344
   15    1.1344
   16    1.7337
   17    1.8398
   18    1.8398
   19    1.9335
   20    2.0517
   21    2.0517
   22    2.0527
   23    2.0527
   24    2.0549
   25    2.0905
   26    2.0905
   27    2.0905
   28    2.0905
   29    2.8862
   30    2.9323
   31    4.3692
   32    4.3692
   33    4.4230
   34    4.4244
   35    4.4480
   36    4.4480
   37    5.9437
   38    6.0564
   39    6.0564
   40    6.0612
   41    6.0701
   42    6.0701
   43    6.0708
   44    6.0708
   45    6.0708
   46    6.0708
   47    6.0708
   48    6.0708
   49    6.0708
   50    6.0708
   51    8.1266
   52    8.1332
   53    8.1355
   54    8.1355
   55    8.1425
   56    8.1425
   57    8.1429
   58    8.1429
   59    8.1429
   60    8.1429
   61    9.6401
   62    9.6485
   63    9.7117
   64    9.7117
   65    9.7167
   66    9.7212
   67    9.7212
   68    9.7354
   69   22.3473
   70   22.4596


          Converged CI vector

   Index           Coefficient          Config. Occupation
         1          0.71558807          1  1
        12         -0.69851569          2  2

          Number of sigma calls:        1
                       o<<<<< (aa):             0.00
                       o<<<<< (bb):             0.00
                       o<<<<< (ab):             0.00
                       o<<<<< (total)           0.00
                       o<<<<< (aa) ff           0.00
                       o<<<<< (aa) gop          0.00
                       o<<<<< (aa) dot          0.00
                       o<<<<< (ab) str          0.00
                       o<<<<< (ab) gath         0.00
                       o<<<<< (ab) dotab        0.00
                       o<<<<< (ab) scat         0.00
                       o<<<<< (ab) sync         0.00
                       o<<<<< Density           0.00
                       o<<<<< Density one       0.00
                       o<<<<< Density two       0.00
                       o<<<<< Density ab        0.00
                       o<<<<< Spin adapt        0.00
                       o<<<<< Symm adapt        0.00

                       o<<<<< (ab) max sync:      0.00



          Natural orbital occupation numbers

              1      
    1    1.0241
    2    0.9758
    3    0.0000
    4    0.0000
    5    0.0000
    6    0.0000
    7    0.0000
    8    0.0000
    9    0.0000
   10    0.0000


          Number of sigma calls:       13
                       o<<<<< (aa):             0.00
                       o<<<<< (bb):             0.00
                       o<<<<< (ab):             0.01
                       o<<<<< (total)           0.01
                       o<<<<< (aa) ff           0.00
                       o<<<<< (aa) gop          0.00
                       o<<<<< (aa) dot          0.00
                       o<<<<< (ab) str          0.00
                       o<<<<< (ab) gath         0.00
                       o<<<<< (ab) dotab        0.00
                       o<<<<< (ab) scat         0.00
                       o<<<<< (ab) sync         0.00
                       o<<<<< Density           0.00
                       o<<<<< Density one       0.00
                       o<<<<< Density two       0.00
                       o<<<<< Density ab        0.00
                       o<<<<< Spin adapt        0.00
                       o<<<<< Symm adapt        0.00

                       o<<<<< (ab) max sync:      0.00


       Final MCSCF results 
       ------------------- 

       Total MCSCF energy =     -0.999924358380
            Gradient norm =      2.5D-05

    CPU time for solution =      1.2s
   Wall time for solution =      1.3s



                        Analysis of MCSCF natural orbitals
                        ----------------------------------

 Vector    1  Occ=1.024133D+00  E=-2.551328D-01  Symmetry=a
              MO Center=  8.4D-15,  1.1D-12, -5.5D-15, r^2= 5.3D+00
   Bfn.  Coefficient  Atom+Function         Bfn.  Coefficient  Atom+Function  
  ----- ------------  ---------------      ----- ------------  ---------------
     3      0.347417  1 H  s                 38      0.347417  2 H  s          
     4      0.210101  1 H  s                 39      0.210101  2 H  s          
     2      0.179116  1 H  s                 37      0.179116  2 H  s          

 Vector    2  Occ=9.758483D-01  E=-2.448085D-01  Symmetry=a
              MO Center=  3.5D-14, -1.6D-12, -2.3D-14, r^2= 5.3D+00
   Bfn.  Coefficient  Atom+Function         Bfn.  Coefficient  Atom+Function  
  ----- ------------  ---------------      ----- ------------  ---------------
     3      0.352924  1 H  s                 38     -0.352924  2 H  s          
     4      0.209442  1 H  s                 39     -0.209442  2 H  s          
     2      0.181083  1 H  s                 37     -0.181083  2 H  s          

 Vector    3  Occ=1.275945D-05  E=-7.061937D-06  Symmetry=a
              MO Center=  4.8D-13,  4.0D-09, -3.0D-13, r^2= 5.4D+00
   Bfn.  Coefficient  Atom+Function         Bfn.  Coefficient  Atom+Function  
  ----- ------------  ---------------      ----- ------------  ---------------
     9      1.920020  1 H  py                44     -1.920020  2 H  py         
    12     -1.032124  1 H  py                47      1.032124  2 H  py         
    32     -0.807105  1 H  fyyy              67      0.807105  2 H  fyyy       
    27     -0.796473  1 H  fxxy              34     -0.796473  1 H  fyzz       
    62      0.796473  2 H  fxxy              69      0.796473  2 H  fyzz       

 Vector    4  Occ=3.065584D-06  E=-1.753554D-06  Symmetry=a
              MO Center= -2.7D-13, -2.0D-11, -4.7D-13, r^2= 5.4D+00
   Bfn.  Coefficient  Atom+Function         Bfn.  Coefficient  Atom+Function  
  ----- ------------  ---------------      ----- ------------  ---------------
    10      1.418503  1 H  pz                45      1.418503  2 H  pz         
    13     -0.845696  1 H  pz                48     -0.845696  2 H  pz         
     8      0.793594  1 H  px                43      0.793594  2 H  px         
    33     -0.619895  1 H  fyyz              68     -0.619895  2 H  fyyz       
    28     -0.598186  1 H  fxxz              35     -0.598186  1 H  fzzz       

 Vector    5  Occ=3.065584D-06  E=-1.753554D-06  Symmetry=a
              MO Center= -1.1D-13, -2.0D-11,  6.1D-14, r^2= 5.4D+00
   Bfn.  Coefficient  Atom+Function         Bfn.  Coefficient  Atom+Function  
  ----- ------------  ---------------      ----- ------------  ---------------
     8      1.418503  1 H  px                43      1.418503  2 H  px         
    11     -0.845696  1 H  px                46     -0.845696  2 H  px         
    10     -0.793594  1 H  pz                45     -0.793594  2 H  pz         
    29     -0.619895  1 H  fxyy              64     -0.619895  2 H  fxyy       
    26     -0.598186  1 H  fxxx              31     -0.598186  1 H  fxzz       

 Vector    6  Occ=7.355370D-08  E=-6.672729D-08  Symmetry=a
              MO Center= -3.7D-14,  4.5D-14, -5.7D-13, r^2= 4.2D+00
   Bfn.  Coefficient  Atom+Function         Bfn.  Coefficient  Atom+Function  
  ----- ------------  ---------------      ----- ------------  ---------------
    10      1.412654  1 H  pz                45     -1.412654  2 H  pz         
    28     -0.461118  1 H  fxxz              35     -0.461118  1 H  fzzz       
    63      0.461118  2 H  fxxz              70      0.461118  2 H  fzzz       
    24      0.383538  1 H  dyz               59      0.383538  2 H  dyz        
    33     -0.338673  1 H  fyyz              68      0.338673  2 H  fyyz       

 Vector    7  Occ=7.355370D-08  E=-6.672729D-08  Symmetry=a
              MO Center=  1.1D-12, -6.7D-13, -7.1D-14, r^2= 4.2D+00
   Bfn.  Coefficient  Atom+Function         Bfn.  Coefficient  Atom+Function  
  ----- ------------  ---------------      ----- ------------  ---------------
     8      1.412654  1 H  px                43     -1.412654  2 H  px         
    26     -0.461118  1 H  fxxx              31     -0.461118  1 H  fxzz       
    61      0.461118  2 H  fxxx              66      0.461118  2 H  fxzz       
    21      0.383538  1 H  dxy               56      0.383538  2 H  dxy        
    29     -0.338673  1 H  fxyy              64      0.338673  2 H  fxyy       

 Vector    8  Occ=6.613606D-09  E=-5.078928D-09  Symmetry=a
              MO Center=  1.9D-13,  1.7D-08,  1.2D-12, r^2= 4.8D+00
   Bfn.  Coefficient  Atom+Function         Bfn.  Coefficient  Atom+Function  
  ----- ------------  ---------------      ----- ------------  ---------------
     9      1.521523  1 H  py                44     -1.521523  2 H  py         
    27     -0.636607  1 H  fxxy              34     -0.636607  1 H  fyzz       
    62      0.636607  2 H  fxxy              69      0.636607  2 H  fyzz       
     2      0.578084  1 H  s                 37      0.578084  2 H  s          
    32     -0.518263  1 H  fyyy              67      0.518263  2 H  fyyy       

 Vector    9  Occ=5.141053D-09  E=-4.708561D-09  Symmetry=a
              MO Center= -1.5D-12, -1.7D-08,  9.2D-13, r^2= 4.2D+00
   Bfn.  Coefficient  Atom+Function         Bfn.  Coefficient  Atom+Function  
  ----- ------------  ---------------      ----- ------------  ---------------
     9      1.419611  1 H  py                44      1.419611  2 H  py         
     3     -0.911226  1 H  s                 38      0.911226  2 H  s          
     2      0.838984  1 H  s                 37     -0.838984  2 H  s          
    27     -0.518935  1 H  fxxy              34     -0.518935  1 H  fyzz       
    62     -0.518935  2 H  fxxy              69     -0.518935  2 H  fyzz       

 Vector   10  Occ=1.764796D-09  E=-1.944723D-09  Symmetry=a
              MO Center= -3.0D-13,  5.6D-09, -4.2D-13, r^2= 5.6D+00
   Bfn.  Coefficient  Atom+Function         Bfn.  Coefficient  Atom+Function  
  ----- ------------  ---------------      ----- ------------  ---------------
     9      2.885615  1 H  py                44     -2.885615  2 H  py         
    27     -1.274939  1 H  fxxy              34     -1.274939  1 H  fyzz       
    62      1.274939  2 H  fxxy              69      1.274939  2 H  fyzz       
    32     -0.983637  1 H  fyyy              67      0.983637  2 H  fyyy       
     6     -0.713858  1 H  py                41      0.713858  2 H  py         

 Vector   11  Occ=0.000000D+00  E= 4.357706D-01  Symmetry=a
              MO Center=  2.5D-12,  4.2D-10, -1.5D-12, r^2= 9.7D+00
   Bfn.  Coefficient  Atom+Function         Bfn.  Coefficient  Atom+Function  
  ----- ------------  ---------------      ----- ------------  ---------------
     3      2.437800  1 H  s                 38     -2.437800  2 H  s          
     9     -1.597057  1 H  py                44     -1.597057  2 H  py         
     4     -1.415623  1 H  s                 39      1.415623  2 H  s          
    12      0.730356  1 H  py                47      0.730356  2 H  py         
    27      0.633056  1 H  fxxy              34      0.633056  1 H  fyzz       

 Vector   12  Occ=0.000000D+00  E= 5.852620D-01  Symmetry=a
              MO Center= -4.4D-13,  8.8D-09,  2.7D-13, r^2= 7.6D+00
   Bfn.  Coefficient  Atom+Function         Bfn.  Coefficient  Atom+Function  
  ----- ------------  ---------------      ----- ------------  ---------------
     3      2.223350  1 H  s                 38     -2.223350  2 H  s          
     4     -1.211099  1 H  s                 39      1.211099  2 H  s          
     9      0.986076  1 H  py                44      0.986076  2 H  py         
    12     -0.750829  1 H  py                47     -0.750829  2 H  py         
     2     -0.614483  1 H  s                 37      0.614483  2 H  s          

 Vector   13  Occ=0.000000D+00  E= 8.004013D-01  Symmetry=a
              MO Center=  7.5D-14, -2.4D-08, -4.5D-14, r^2= 8.2D+00
   Bfn.  Coefficient  Atom+Function         Bfn.  Coefficient  Atom+Function  
  ----- ------------  ---------------      ----- ------------  ---------------
     3      3.792369  1 H  s                 38      3.792369  2 H  s          
     4     -1.586619  1 H  s                 39     -1.586619  2 H  s          
     2     -1.222506  1 H  s                 37     -1.222506  2 H  s          
    23     -0.628987  1 H  dyy               58     -0.628987  2 H  dyy        
    20     -0.576970  1 H  dxx               25     -0.576970  1 H  dzz        

 Vector   14  Occ=0.000000D+00  E= 1.134367D+00  Symmetry=a
              MO Center= -2.4D-13, -2.9D-11,  2.5D-14, r^2= 6.8D+00
   Bfn.  Coefficient  Atom+Function         Bfn.  Coefficient  Atom+Function  
  ----- ------------  ---------------      ----- ------------  ---------------
     8      4.957887  1 H  px                43     -4.957887  2 H  px         
    26     -1.927988  1 H  fxxx              31     -1.927988  1 H  fxzz       
    61      1.927988  2 H  fxxx              66      1.927988  2 H  fxzz       
    29     -1.910762  1 H  fxyy              64      1.910762  2 H  fxyy       
    11     -1.481246  1 H  px                46      1.481246  2 H  px         

 Vector   15  Occ=0.000000D+00  E= 1.134367D+00  Symmetry=a
              MO Center=  1.5D-14, -2.7D-11,  1.4D-13, r^2= 6.8D+00
   Bfn.  Coefficient  Atom+Function         Bfn.  Coefficient  Atom+Function  
  ----- ------------  ---------------      ----- ------------  ---------------
    10      4.957887  1 H  pz                45     -4.957887  2 H  pz         
    28     -1.927988  1 H  fxxz              35     -1.927988  1 H  fzzz       
    63      1.927988  2 H  fxxz              70      1.927988  2 H  fzzz       
    33     -1.910762  1 H  fyyz              68      1.910762  2 H  fyyz       
    13     -1.481246  1 H  pz                48      1.481246  2 H  pz         

 Vector   16  Occ=0.000000D+00  E= 1.733650D+00  Symmetry=a
              MO Center= -6.2D-13,  6.7D-09,  3.7D-13, r^2= 6.7D+00
   Bfn.  Coefficient  Atom+Function         Bfn.  Coefficient  Atom+Function  
  ----- ------------  ---------------      ----- ------------  ---------------
     9      4.916085  1 H  py                44      4.916085  2 H  py         
     3      2.020318  1 H  s                 38     -2.020318  2 H  s          
    27     -1.901659  1 H  fxxy              32     -1.894697  1 H  fyyy       
    34     -1.901659  1 H  fyzz              62     -1.901659  2 H  fxxy       
    67     -1.894697  2 H  fyyy              69     -1.901659  2 H  fyzz       

 Vector   17  Occ=0.000000D+00  E= 1.839830D+00  Symmetry=a
              MO Center= -7.3D-14,  5.8D-11,  8.2D-15, r^2= 5.7D+00
   Bfn.  Coefficient  Atom+Function         Bfn.  Coefficient  Atom+Function  
  ----- ------------  ---------------      ----- ------------  ---------------
     8      6.189215  1 H  px                43      6.189215  2 H  px         
    26     -2.414798  1 H  fxxx              29     -2.413790  1 H  fxyy       
    31     -2.414798  1 H  fxzz              61     -2.414798  2 H  fxxx       
    64     -2.413790  2 H  fxyy              66     -2.414798  2 H  fxzz       
     5     -1.635764  1 H  px                40     -1.635764  2 H  px         

 Vector   18  Occ=0.000000D+00  E= 1.839830D+00  Symmetry=a
              MO Center=  4.6D-16,  5.8D-11,  3.4D-14, r^2= 5.7D+00
   Bfn.  Coefficient  Atom+Function         Bfn.  Coefficient  Atom+Function  
  ----- ------------  ---------------      ----- ------------  ---------------
    10      6.189215  1 H  pz                45      6.189215  2 H  pz         
    28     -2.414798  1 H  fxxz              33     -2.413790  1 H  fyyz       
    35     -2.414798  1 H  fzzz              63     -2.414798  2 H  fxxz       
    68     -2.413790  2 H  fyyz              70     -2.414798  2 H  fzzz       
     7     -1.635764  1 H  pz                42     -1.635764  2 H  pz         

 Vector   19  Occ=0.000000D+00  E= 1.933544D+00  Symmetry=a
              MO Center= -1.3D-14, -4.1D-09,  1.1D-14, r^2= 6.7D+00
   Bfn.  Coefficient  Atom+Function         Bfn.  Coefficient  Atom+Function  
  ----- ------------  ---------------      ----- ------------  ---------------
     9      4.819265  1 H  py                44     -4.819265  2 H  py         
    32     -1.888230  1 H  fyyy              67      1.888230  2 H  fyyy       
    27     -1.878504  1 H  fxxy              34     -1.878504  1 H  fyzz       
    62      1.878504  2 H  fxxy              69      1.878504  2 H  fyzz       
     6     -1.275233  1 H  py                41      1.275233  2 H  py         

 Vector   20  Occ=0.000000D+00  E= 2.051702D+00  Symmetry=a
              MO Center= -1.5D-14, -7.2D-09,  1.7D-14, r^2= 5.9D+00
   Bfn.  Coefficient  Atom+Function         Bfn.  Coefficient  Atom+Function  
  ----- ------------  ---------------      ----- ------------  ---------------
    24      1.226674  1 H  dyz               59     -1.226674  2 H  dyz        
    10     -0.510637  1 H  pz                45     -0.510637  2 H  pz         
    21     -0.418860  1 H  dxy               56      0.418860  2 H  dxy        
    33      0.200042  1 H  fyyz              68      0.200042  2 H  fyyz       
    28      0.198681  1 H  fxxz              35      0.198681  1 H  fzzz       


 Wrote Lagrangian and 1- and 2-particle density matrices to ./H2.mcpdm


     Multipole analysis of the density
     ---------------------------------

     L   x y z        total        nuclear
     -   - - -        -----        -------
     0   0 0 0     -0.000000      2.000000

     1   1 0 0     -0.000000      0.000000
     1   0 1 0      0.000000      0.000000
     1   0 0 1      0.000000      0.000000

     2   2 0 0     -1.998631      0.000000
     2   1 1 0      0.000000      0.000000
     2   1 0 1     -0.000000      0.000000
     2   0 2 0     -1.991688     32.000000
     2   0 1 1     -0.000000      0.000000
     2   0 0 2     -1.998631      0.000000


  Mulliken analysis of the total density
  --------------------------------------

    Atom       Charge   Shell Charges
 -----------   ------   -------------------------------------------------------
    1 H    1     1.00   0.05  0.22  0.48  0.25  0.00 -0.00  0.00  0.00  0.00  0.00
    2 H    1     1.00   0.05  0.22  0.48  0.25  0.00 -0.00  0.00  0.00  0.00  0.00

    Mulliken analysis of the active space density
    ---------------------------------------------

    Atom       Charge   Shell Charges
 -----------   ------   -------------------------------------------------------
    1 H    1     1.00   0.05  0.22  0.48  0.25  0.00 -0.00  0.00  0.00  0.00  0.00
    2 H    1     1.00   0.05  0.22  0.48  0.25  0.00 -0.00  0.00  0.00  0.00  0.00

 Parallel integral file used       7 records with       0 large values


 Task  times  cpu:        1.2s     wall:        1.3s


                                NWChem Input Module
                                -------------------


                                 NWChem SCF Module
                                 -----------------


                                        H2



  ao basis        = "ao basis"
  functions       =    70
  atoms           =     2
  closed shells   =     1
  open shells     =     0
  charge          =   0.00
  wavefunction    = RHF 
  input vectors   = ./H2.mos
  output vectors  = ./H2-8.00.mos
  use symmetry    = F
  symmetry adapt  = F


 Summary of "ao basis" -> "ao basis" (cartesian)
 ------------------------------------------------------------------------------
       Tag                 Description            Shells   Functions and Types
 ---------------- ------------------------------  ------  ---------------------
 H                          cc-pVQZ                 10       35   4s3p2d1f



 Forming initial guess at       1.4s


 Loading old vectors from job with title :

H2


 Starting SCF solution at       1.4s



 ----------------------------------------------
         Quadratically convergent ROHF

 Convergence threshold     :          1.000E-04
 Maximum no. of iterations :           30
 Final Fock-matrix accuracy:          1.000E-07
 ----------------------------------------------


 Integral file          = ./H2.aoints.0
 Record size in doubles =  65536        No. of integs per rec  =  43688
 Max. records in memory =     99        Max. records in file   = 280167
 No. of bits per label  =      8        No. of bits per value  =     64


 #quartets = 1.224D+04 #integrals = 2.578D+05 #direct =  0.0% #cached =100.0%



       Final RHF  results 
       ------------------ 

         Total SCF energy =     -0.755633448850
      One-electron energy =     -1.253364948521
      Two-electron energy =      0.372731499671
 Nuclear repulsion energy =      0.125000000000

        Time for solution =      0.0s


             Final eigenvalues
             -----------------

              1      
    1   -0.2551
    2   -0.2448
    3   -0.0000
    4   -0.0000
    5   -0.0000
    6   -0.0000
    7   -0.0000
    8   -0.0000
    9   -0.0000
   10   -0.0000
   11    0.4358

                       ROHF Final Molecular Orbital Analysis
                       -------------------------------------

 Vector    1  Occ=2.000000D+00  E=-2.551328D-01
              MO Center=  8.4D-15,  1.1D-12, -5.5D-15, r^2= 5.3D+00
   Bfn.  Coefficient  Atom+Function         Bfn.  Coefficient  Atom+Function  
  ----- ------------  ---------------      ----- ------------  ---------------
     3      0.347417  1 H  s                 38      0.347417  2 H  s          
     4      0.210101  1 H  s                 39      0.210101  2 H  s          
     2      0.179116  1 H  s                 37      0.179116  2 H  s          

 Vector    2  Occ=0.000000D+00  E=-2.448085D-01
              MO Center=  3.5D-14, -1.6D-12, -2.3D-14, r^2= 5.3D+00
   Bfn.  Coefficient  Atom+Function         Bfn.  Coefficient  Atom+Function  
  ----- ------------  ---------------      ----- ------------  ---------------
     3      0.352924  1 H  s                 38     -0.352924  2 H  s          
     4      0.209442  1 H  s                 39     -0.209442  2 H  s          
     2      0.181083  1 H  s                 37     -0.181083  2 H  s          

 Vector    3  Occ=0.000000D+00  E=-7.061937D-06
              MO Center=  4.8D-13,  4.0D-09, -3.0D-13, r^2= 5.4D+00
   Bfn.  Coefficient  Atom+Function         Bfn.  Coefficient  Atom+Function  
  ----- ------------  ---------------      ----- ------------  ---------------
     9      1.920020  1 H  py                44     -1.920020  2 H  py         
    12     -1.032124  1 H  py                47      1.032124  2 H  py         
    32     -0.807105  1 H  fyyy              67      0.807105  2 H  fyyy       
    27     -0.796473  1 H  fxxy              34     -0.796473  1 H  fyzz       
    62      0.796473  2 H  fxxy              69      0.796473  2 H  fyzz       

 Vector    4  Occ=0.000000D+00  E=-1.753554D-06
              MO Center= -2.7D-13, -2.0D-11, -4.7D-13, r^2= 5.4D+00
   Bfn.  Coefficient  Atom+Function         Bfn.  Coefficient  Atom+Function  
  ----- ------------  ---------------      ----- ------------  ---------------
    10      1.418503  1 H  pz                45      1.418503  2 H  pz         
    13     -0.845696  1 H  pz                48     -0.845696  2 H  pz         
     8      0.793594  1 H  px                43      0.793594  2 H  px         
    33     -0.619895  1 H  fyyz              68     -0.619895  2 H  fyyz       
    28     -0.598186  1 H  fxxz              35     -0.598186  1 H  fzzz       

 Vector    5  Occ=0.000000D+00  E=-1.753554D-06
              MO Center= -1.1D-13, -2.0D-11,  6.1D-14, r^2= 5.4D+00
   Bfn.  Coefficient  Atom+Function         Bfn.  Coefficient  Atom+Function  
  ----- ------------  ---------------      ----- ------------  ---------------
     8      1.418503  1 H  px                43      1.418503  2 H  px         
    11     -0.845696  1 H  px                46     -0.845696  2 H  px         
    10     -0.793594  1 H  pz                45     -0.793594  2 H  pz         
    29     -0.619895  1 H  fxyy              64     -0.619895  2 H  fxyy       
    26     -0.598186  1 H  fxxx              31     -0.598186  1 H  fxzz       

 Vector    6  Occ=0.000000D+00  E=-6.672729D-08
              MO Center= -3.7D-14,  4.2D-14, -5.7D-13, r^2= 4.2D+00
   Bfn.  Coefficient  Atom+Function         Bfn.  Coefficient  Atom+Function  
  ----- ------------  ---------------      ----- ------------  ---------------
    10      1.412654  1 H  pz                45     -1.412654  2 H  pz         
    28     -0.461118  1 H  fxxz              35     -0.461118  1 H  fzzz       
    63      0.461118  2 H  fxxz              70      0.461118  2 H  fzzz       
    24      0.383538  1 H  dyz               59      0.383538  2 H  dyz        
    33     -0.338673  1 H  fyyz              68      0.338673  2 H  fyyz       

 Vector    7  Occ=0.000000D+00  E=-6.672729D-08
              MO Center=  1.1D-12, -6.7D-13, -7.1D-14, r^2= 4.2D+00
   Bfn.  Coefficient  Atom+Function         Bfn.  Coefficient  Atom+Function  
  ----- ------------  ---------------      ----- ------------  ---------------
     8      1.412654  1 H  px                43     -1.412654  2 H  px         
    26     -0.461118  1 H  fxxx              31     -0.461118  1 H  fxzz       
    61      0.461118  2 H  fxxx              66      0.461118  2 H  fxzz       
    21      0.383538  1 H  dxy               56      0.383538  2 H  dxy        
    29     -0.338673  1 H  fxyy              64      0.338673  2 H  fxyy       

 Vector    8  Occ=0.000000D+00  E=-5.078928D-09
              MO Center=  1.9D-13,  1.7D-08,  1.2D-12, r^2= 4.8D+00
   Bfn.  Coefficient  Atom+Function         Bfn.  Coefficient  Atom+Function  
  ----- ------------  ---------------      ----- ------------  ---------------
     9      1.521523  1 H  py                44     -1.521523  2 H  py         
    27     -0.636607  1 H  fxxy              34     -0.636607  1 H  fyzz       
    62      0.636607  2 H  fxxy              69      0.636607  2 H  fyzz       
     2      0.578084  1 H  s                 37      0.578084  2 H  s          
    32     -0.518263  1 H  fyyy              67      0.518263  2 H  fyyy       

 Vector    9  Occ=0.000000D+00  E=-4.708561D-09
              MO Center= -1.5D-12, -1.7D-08,  9.2D-13, r^2= 4.2D+00
   Bfn.  Coefficient  Atom+Function         Bfn.  Coefficient  Atom+Function  
  ----- ------------  ---------------      ----- ------------  ---------------
     9      1.419611  1 H  py                44      1.419611  2 H  py         
     3     -0.911226  1 H  s                 38      0.911226  2 H  s          
     2      0.838984  1 H  s                 37     -0.838984  2 H  s          
    27     -0.518935  1 H  fxxy              34     -0.518935  1 H  fyzz       
    62     -0.518935  2 H  fxxy              69     -0.518935  2 H  fyzz       

 Vector   10  Occ=0.000000D+00  E=-1.944723D-09
              MO Center= -3.0D-13,  5.6D-09, -4.2D-13, r^2= 5.6D+00
   Bfn.  Coefficient  Atom+Function         Bfn.  Coefficient  Atom+Function  
  ----- ------------  ---------------      ----- ------------  ---------------
     9      2.885615  1 H  py                44     -2.885615  2 H  py         
    27     -1.274939  1 H  fxxy              34     -1.274939  1 H  fyzz       
    62      1.274939  2 H  fxxy              69      1.274939  2 H  fyzz       
    32     -0.983637  1 H  fyyy              67      0.983637  2 H  fyyy       
     6     -0.713858  1 H  py                41      0.713858  2 H  py         

 Vector   11  Occ=0.000000D+00  E= 4.357706D-01
              MO Center=  2.5D-12,  4.2D-10, -1.5D-12, r^2= 9.7D+00
   Bfn.  Coefficient  Atom+Function         Bfn.  Coefficient  Atom+Function  
  ----- ------------  ---------------      ----- ------------  ---------------
     3      2.437800  1 H  s                 38     -2.437800  2 H  s          
     9     -1.597057  1 H  py                44     -1.597057  2 H  py         
     4     -1.415623  1 H  s                 39      1.415623  2 H  s          
    12      0.730356  1 H  py                47      0.730356  2 H  py         
    27      0.633056  1 H  fxxy              34      0.633056  1 H  fyzz       

 Vector   12  Occ=0.000000D+00  E= 5.852620D-01
              MO Center= -4.4D-13,  8.8D-09,  2.7D-13, r^2= 7.6D+00
   Bfn.  Coefficient  Atom+Function         Bfn.  Coefficient  Atom+Function  
  ----- ------------  ---------------      ----- ------------  ---------------
     3      2.223350  1 H  s                 38     -2.223350  2 H  s          
     4     -1.211099  1 H  s                 39      1.211099  2 H  s          
     9      0.986076  1 H  py                44      0.986076  2 H  py         
    12     -0.750829  1 H  py                47     -0.750829  2 H  py         
     2     -0.614483  1 H  s                 37      0.614483  2 H  s          


 center of mass
 --------------
 x =   0.00000000 y =   0.00000000 z =   0.00000000

 moments of inertia (a.u.)
 ------------------
          32.250400000000           0.000000000000           0.000000000000
           0.000000000000           0.000000000000           0.000000000000
           0.000000000000           0.000000000000          32.250400000000

  Mulliken analysis of the total density
  --------------------------------------

    Atom       Charge   Shell Charges
 -----------   ------   -------------------------------------------------------
    1 H    1     1.00   0.05  0.22  0.48  0.26 -0.00  0.00 -0.00  0.00  0.00 -0.00
    2 H    1     1.00   0.05  0.22  0.48  0.26 -0.00  0.00 -0.00  0.00  0.00 -0.00

       Multipole analysis of the density wrt the origin
       ------------------------------------------------

     L   x y z        total         open         nuclear
     -   - - -        -----         ----         -------
     0   0 0 0     -0.000000      0.000000      2.000000

     1   1 0 0     -0.000000      0.000000      0.000000
     1   0 1 0     -0.000000      0.000000      0.000000
     1   0 0 1      0.000000      0.000000      0.000000

     2   2 0 0     -2.023284      0.000000      0.000000
     2   1 1 0     -0.000000      0.000000      0.000000
     2   1 0 1      0.000000      0.000000      0.000000
     2   0 2 0     -1.774616      0.000000     32.000000
     2   0 1 1      0.000000      0.000000      0.000000
     2   0 0 2     -2.023284      0.000000      0.000000


 Parallel integral file used       6 records with       0 large values

                   NWChem Extensible Many-Electron Theory Module
                   ---------------------------------------------

              ======================================================
                   This portion of the program was automatically
                  generated by a Tensor Contraction Engine (TCE).
                  The development of this portion of the program
                 and TCE was supported by US Department of Energy,
                Office of Science, Office of Basic Energy Science.
                      TCE is a product of Battelle and PNNL.
              Please cite: S.Hirata, J.Phys.Chem.A 107, 9887 (2003).
              ======================================================

                                        H2


            General Information
            -------------------
      Number of processors :     1
         Wavefunction type : Restricted Hartree-Fock
          No. of electrons :     2
           Alpha electrons :     1
            Beta electrons :     1
           No. of orbitals :   140
            Alpha orbitals :    70
             Beta orbitals :    70
        Alpha frozen cores :     0
         Beta frozen cores :     0
     Alpha frozen virtuals :     0
      Beta frozen virtuals :     0
         Spin multiplicity : singlet 
    Number of AO functions :    70
       Number of AO shells :    20
        Use of symmetry is : off
      Symmetry adaption is : off
         Schwarz screening : 0.10D-09

          Correlation Information
          -----------------------
          Calculation type : Coupled-cluster singles & doubles                           
   Perturbative correction : none                                                        
            Max iterations :      300
        Residual threshold : 0.10D-06
     T(0) DIIS level shift : 0.80D+00
     L(0) DIIS level shift : 0.00D+00
     T(1) DIIS level shift : 0.00D+00
     L(1) DIIS level shift : 0.00D+00
     T(R) DIIS level shift : 0.00D+00
     T(I) DIIS level shift : 0.00D+00
   CC-T/L Amplitude update :  5-th order DIIS
                I/O scheme : Global Array Library
        L-threshold :  0.10D-06
        EOM-threshold :  0.10D-06
 no EOMCCSD initial starts read in
 TCE RESTART OPTIONS
 READ_INT:   F
 WRITE_INT:  F
 READ_TA:    F
 WRITE_TA:   F
 READ_XA:    F
 WRITE_XA:   F
 READ_IN3:   F
 WRITE_IN3:  F
 SLICE:      F
 D4D5:       F
 quantumc:   F
 qrotation:  F
 pwtce:      F
 qducc:      T
 nacto:                         0
 nrotv:                         0
 nrot:                          0

            Memory Information
            ------------------
          Available GA space size is    1610607836 doubles
          Available MA space size is    1610610644 doubles

 Maximum block size        32 doubles

 tile_dim =     23

 Block   Spin    Irrep     Size     Offset   Alpha
 -------------------------------------------------
   1    alpha     a      1 doubles       0       1
   2    beta      a      1 doubles       1       1
   3    alpha     a     23 doubles       2       3
   4    alpha     a     23 doubles      25       4
   5    alpha     a     23 doubles      48       5
   6    beta      a     23 doubles      71       3
   7    beta      a     23 doubles      94       4
   8    beta      a     23 doubles     117       5

 Global array virtual files algorithm will be used

 Parallel file system coherency ......... OK

 Integral file          = ./H2.aoints.0
 Record size in doubles =  65536        No. of integs per rec  =  43688
 Max. records in memory =     99        Max. records in file   = 280167
 No. of bits per label  =      8        No. of bits per value  =     64


 #quartets = 1.335D+04 #integrals = 3.100D+05 #direct =  0.0% #cached =100.0%


 Fock matrix recomputed
 1-e file size   =             4900
 1-e file name   = ./H2.f1
 Cpu & wall time / sec            0.0            0.0
 4-electron integrals stored in orbital form

 v2    file size   =          6102085
 4-index algorithm nr.  13 is used
 imaxsize =       30
 imaxsize ichop =        0
 Cpu & wall time / sec            1.9            1.9
 T1-number-of-tasks                    3

 t1 file size   =               69
 t1 file name   = ./H2.t1
 t1 file handle =       -998
 T2-number-of-boxes                   15

 t2 file size   =             7935
 t2 file name   = ./H2.t2
 t2 file handle =       -996
CCSD iterations
 ---------------------------------------------------------
 Iter          Residuum       Correlation     Cpu    Wall 
 ---------------------------------------------------------
NEW TASK SCHEDULING
CCSD_T1_NTS --- OK
CCSD_T2_NTS --- OK
    1  29.7015047403354  -0.6978050444455     0.1     0.1
    2  41.1244561101280  -1.0342782921653     0.1     0.1
    3  24.4009559632059  -0.3647670065337     0.1     0.1
    4  14.0046984439300  -0.4680414836687     0.1     0.1
    5  38.4556484351899   0.4480925911598     0.1     0.1
 MICROCYCLE DIIS UPDATE:                    5                    5
    6  12.9436144121642  -1.3892243183941     0.1     0.1
    7   5.0669082574107  -0.2566760045723     0.1     0.1
    8   4.1169846551871  -0.2452605975034     0.1     0.1
    9   4.7501428370382  -0.2590241380855     0.1     0.1
   10   5.9182269055091  -0.2362469373457     0.1     0.1
 MICROCYCLE DIIS UPDATE:                   10                    5
   11   0.2399730201585  -0.2602653115314     0.1     0.1
   12   0.1710511417791  -0.2602621657501     0.0     0.1
   13   0.1735139329237  -0.2558831508082     0.1     0.1
   14   0.2128614112185  -0.2548724811604     0.1     0.1
   15   0.2767235443685  -0.2510775612701     0.0     0.1
 MICROCYCLE DIIS UPDATE:                   15                    5
   16   0.0163343248580  -0.2491378329427     0.1     0.2
   17   0.0102733176087  -0.2478272546680     0.1     0.1
   18   0.0086412178827  -0.2471894693262     0.1     0.1
   19   0.0089725358497  -0.2461296182012     0.1     0.1
   20   0.0124593913235  -0.2462459175385     0.1     0.1
 MICROCYCLE DIIS UPDATE:                   20                    5
   21   0.0025497058315  -0.2449041600198     0.1     0.1
   22   0.0018918846454  -0.2448322942516     0.1     0.1
   23   0.0018639690108  -0.2446965063455     0.0     0.1
   24   0.0021953856434  -0.2446444394785     0.0     0.1
   25   0.0027233470431  -0.2445376054583     0.1     0.1
 MICROCYCLE DIIS UPDATE:                   25                    5
   26   0.0002663072238  -0.2443670240538     0.1     0.1
   27   0.0001754179378  -0.2443407825547     0.1     0.1
   28   0.0001661221025  -0.2443387437751     0.1     0.1
   29   0.0002301134948  -0.2443174879637     0.1     0.1
   30   0.0003186731161  -0.2443269948922     0.1     0.1
 MICROCYCLE DIIS UPDATE:                   30                    5
   31   0.0000463065124  -0.2443077183051     0.1     0.1
   32   0.0000335821636  -0.2443054837482     0.1     0.1
   33   0.0000294677583  -0.2443034046631     0.1     0.1
   34   0.0000303428461  -0.2443021550179     0.1     0.1
   35   0.0000346619439  -0.2443003779900     0.1     0.1
 MICROCYCLE DIIS UPDATE:                   35                    5
   36   0.0000045571735  -0.2442965007698     0.0     0.2
   37   0.0000027790300  -0.2442962423486     0.1     0.1
   38   0.0000024823222  -0.2442961596570     0.1     0.1
   39   0.0000032299519  -0.2442959065718     0.1     0.1
   40   0.0000044865539  -0.2442960067660     0.1     0.1
 MICROCYCLE DIIS UPDATE:                   40                    5
   41   0.0000006543670  -0.2442957748708     0.1     0.1
   42   0.0000005137231  -0.2442957473691     0.1     0.1
   43   0.0000004550098  -0.2442957099698     0.0     0.1
   44   0.0000004724649  -0.2442956935315     0.0     0.1
   45   0.0000005394735  -0.2442956634974     0.1     0.1
 MICROCYCLE DIIS UPDATE:                   45                    5
   46   0.0000000548739  -0.2442956005719     0.0     0.1
 -----------------------------------------------------------------
 Iterations converged
 CCSD correlation energy / hartree =        -0.244295600571934
 CCSD total energy / hartree       =        -0.999929049422069

 Singles contributions

 Doubles contributions
     2a   (alpha)     2a   (beta ) ---     1a   (alpha)     1a   (beta )       -0.9766225949
 Ground state specification:
 exp(T)|Ref>~(1+T)|Ref>
 ------- a(p)+/a(q) strings ----------

 singles norm

 doubles norm

 Reference string
  0.71541966014713121      :(1a)+ (1b)+ |0>

 Singles strings

 Doubles strings
 -0.69869500490196956      :(2a)+ (2b)+ (1b)  (1a)  (1a)+ (1b)+ |0>
 -------------------------------------
 enrep_tce =   0.12499999999999997     
  EHF(total)         =        -0.75563345
  Shift (HFtot-HFA)  =         0.00000000
 ALL OCCUPIED ORBITALS ARE ACTIVE IN DUCC --> NO SHIFT
 Number of active orbitals                   10
 Number of active alpha electrons                    1
 Number of active beta electrons                    1
  nos                     2
  nvs                   138
 noas                     1
 nobs                     1
 nvas                    69
 nvbs                    69
 nactv                     9
 DUCC MODEL =                     6
 NONHF =  T
 F-T1 correlation    =    1.7609952697889312E-005
 V-T1-T1 correlation =    5.9090535988764994E-010
 V-T2 correlation    =  -0.24431321111553442     
 Total correlation   =  -0.24429560057193117     
 F-T1(Ext) correlation         =   -2.6949838055658596E-007
 V-T1(Ext)-T1(Ext) correlation =    1.2168801485437836E-011
 V-T2(Ext) correlation         =    7.1621949061142741E-005
 Total Ext correlation         =    7.1352462849387646E-005
1-BODY TIME =   31.498 SECONDS.
  HHHH TIME =   24.723 SECONDS.
  PPPP TIME =   35.891 SECONDS.
  HHHP TIME =    2.574 SECONDS.
  PPPH TIME =    2.756 SECONDS.
  HPHP TIME =    4.354 SECONDS.
  HHPP TIME =    2.353 SECONDS.
 ONE-BODY UNITARY CHECK
 TWO-BODY UNITARY CHECK
 TWO-BODY ANTISYMMETRY CHECK
 TRANSFORMED ~FOCK~ MATRIX
    1    1        -0.2538000501
    1    3         0.0146804577
    1    8         0.0812611536
    1    9         0.0000000007
    1   10        -0.0449826995
    2    2        -0.1232054327
    2    8        -0.0000000004
    2    9         0.0798236176
    2   10         0.0000000005
    3    1         0.0146804577
    3    3         0.5322688550
    3    8        -0.1057890892
    3    9         0.0000000003
    3   10        -0.1699049084
    4    4         0.5747222948
    5    5         0.5747222948
    6    6         1.3939027690
    7    7         1.3939027690
    8    1         0.0812611536
    8    2        -0.0000000004
    8    3        -0.1057890892
    8    8         0.9652864049
    8    9        -0.0000000062
    8   10         0.4869413015
    9    1         0.0000000007
    9    2         0.0798236176
    9    3         0.0000000003
    9    8        -0.0000000062
    9    9         1.4005770021
   10    1        -0.0449826995
   10    2         0.0000000005
   10    3        -0.1699049084
   10    8         0.4869413015
   10   10         2.0004139587
 begin_one_electron_integrals
    1    1        -0.6266824743
    1    3         0.0167121995
    1    8        -0.0003424570
    1   10        -0.0003221130
    2    2        -0.6231839074
    2    9        -0.0006865781
    3    1         0.0167121995
    3    3        -0.0173714307
    3    8        -0.0803211903
    3   10        -0.0972585240
    4    4         0.0193628731
    5    5         0.0193628731
    6    6         0.6894620750
    7    7         0.6894620750
    8    1        -0.0003424570
    8    3        -0.0803211903
    8    8         0.3489135737
    8    9        -0.0000000055
    8   10         0.4736517587
    9    2        -0.0006865781
    9    8        -0.0000000055
    9    9         0.7050510030
    9   10        -0.0000000005
   10    1        -0.0003221130
   10    3        -0.0972585240
   10    8         0.4736517587
   10    9        -0.0000000005
   10   10         1.3271992280
 end_one_electron_integrals
 begin_two_electron_integrals
    1    1    1    1        0.3728824242
    1    1    1    3       -0.0020317418
    1    1    1    8        0.0816036106
    1    1    1    9        0.0000000007
    1    1    1   10       -0.0446605865
    1    2    1    2        0.2500813871
    1    2    1    8       -0.0000000004
    1    2    1    9        0.0776343846
    1    2    1   10        0.0000000004
    1    3    1    1       -0.0020317418
    1    3    1    3        0.0391077941
    1    3    1    8       -0.0061098786
    1    3    1   10       -0.0135675979
    1    4    1    4        0.0398320798
    1    5    1    5        0.0398320798
    1    6    1    6        0.0588470457
    1    7    1    7        0.0588470457
    1    8    1    1        0.0816036106
    1    8    1    2       -0.0000000004
    1    8    1    3       -0.0061098786
    1    8    1    8        0.0592114150
    1    8    1   10       -0.0215837313
    1    9    1    1        0.0000000007
    1    9    1    2        0.0776343846
    1    9    1    9        0.0686683852
    1    9    1   10        0.0000000001
    1   10    1    1       -0.0446605865
    1   10    1    2        0.0000000004
    1   10    1    3       -0.0135675979
    1   10    1    8       -0.0215837313
    1   10    1    9        0.0000000001
    1   10    1   10        0.0397184812
    1    1    2    2        0.3749901002
    1    1    2    8       -0.0000000004
    1    1    2    9        0.0791349526
    1    1    2   10        0.0000000005
    1    2    2    1        0.2500017257
    1    2    2    3        0.0150632571
    1    2    2    8        0.0833680315
    1    2    2    9        0.0000000007
    1    2    2   10       -0.0462716978
    1    3    2    2       -0.0011900232
    1    3    2    9       -0.0061789821
    1    3    2   10       -0.0000000002
    1    4    2    6       -0.0416609521
    1    4    2    7       -0.0197409429
    1    5    2    6        0.0197409429
    1    5    2    7       -0.0416609521
    1    6    2    4       -0.0402487921
    1    6    2    5        0.0190717942
    1    7    2    4       -0.0190717942
    1    7    2    5       -0.0402487921
    1    8    2    1       -0.0000000004
    1    8    2    2        0.0829109261
    1    8    2    8       -0.0000000007
    1    8    2    9        0.0632951675
    1    8    2   10        0.0000000005
    1    9    2    1        0.0777597095
    1    9    2    2        0.0000000007
    1    9    2    3       -0.0056533117
    1    9    2    8        0.0631863954
    1    9    2    9        0.0000000009
    1    9    2   10       -0.0259257289
    1   10    2    1        0.0000000004
    1   10    2    2       -0.0456558652
    1   10    2    3       -0.0000000001
    1   10    2    8        0.0000000005
    1   10    2    9       -0.0257798283
    1   10    2   10       -0.0000000002
    1    1    3    1       -0.0020317418
    1    1    3    3        0.2941995005
    1    1    3    8       -0.0157912715
    1    1    3    9        0.0000000002
    1    1    3   10       -0.0430950075
    1    2    3    2        0.0150671293
    1    2    3    3       -0.0000000004
    1    2    3    9       -0.0168846380
    1    2    3   10       -0.0000000006
    1    3    3    1        0.0387587154
    1    3    3    3       -0.0178030077
    1    3    3    8       -0.0022009472
    1    3    3    9       -0.0000000002
    1    3    3   10        0.0320243106
    1    4    3    4       -0.0060991335
    1    5    3    5       -0.0060991335
    1    6    3    6       -0.0109569976
    1    7    3    7       -0.0109569976
    1    8    3    1       -0.0061146442
    1    8    3    3        0.0346736654
    1    8    3    8       -0.0144475981
    1    8    3    9        0.0000000002
    1    8    3   10       -0.0272643229
    1    9    3    2       -0.0056510138
    1    9    3    3        0.0000000001
    1    9    3    9       -0.0128492115
    1    9    3   10       -0.0000000003
    1   10    3    1       -0.0135436306
    1   10    3    2       -0.0000000001
    1   10    3    3        0.0010620588
    1   10    3    8       -0.0051688031
    1   10    3   10       -0.0014883918
    1    1    4    4        0.2975185390
    1    2    4    6       -0.1549762614
    1    2    4    7       -0.0734351322
    1    3    4    4       -0.0141300224
    1    4    4    1        0.0396776563
    1    4    4    3       -0.0060995244
    1    4    4    8       -0.0157173233
    1    4    4   10       -0.0032509882
    1    6    4    2       -0.0402830616
    1    6    4    9        0.0107029120
    1    7    4    2       -0.0190880327
    1    7    4    9        0.0050715494
    1    8    4    4        0.0306206875
    1    8    4    6        0.0000000002
    1    9    4    4        0.0000000003
    1    9    4    6       -0.0361954878
    1    9    4    7       -0.0171511456
    1   10    4    4       -0.0170024923
    1   10    4    6       -0.0000000002
    1   10    4    7       -0.0000000001
    1    1    5    5        0.2975185390
    1    2    5    6        0.0734351322
    1    2    5    7       -0.1549762614
    1    3    5    5       -0.0141300224
    1    5    5    1        0.0396776563
    1    5    5    3       -0.0060995244
    1    5    5    8       -0.0157173233
    1    5    5   10       -0.0032509882
    1    6    5    2        0.0190880327
    1    6    5    9       -0.0050715494
    1    7    5    2       -0.0402830616
    1    7    5    9        0.0107029120
    1    8    5    5        0.0306206875
    1    8    5    7        0.0000000002
    1    9    5    5        0.0000000003
    1    9    5    6        0.0171511456
    1    9    5    7       -0.0361954878
    1   10    5    5       -0.0170024923
    1   10    5    6        0.0000000001
    1   10    5    7       -0.0000000002
    1    1    6    6        0.3820435396
    1    2    6    4       -0.1549789727
    1    2    6    5        0.0734364169
    1    3    6    6       -0.0243023797
    1    4    6    2       -0.0416979094
    1    4    6    9       -0.0001487603
    1    5    6    2        0.0197584550
    1    5    6    9        0.0000704897
    1    6    6    1        0.0596463852
    1    6    6    3       -0.0109540745
    1    6    6    8        0.0143525791
    1    6    6    9        0.0000000002
    1    6    6   10       -0.0137067876
    1    8    6    4        0.0000000002
    1    8    6    6        0.0815621578
    1    9    6    4       -0.0361790994
    1    9    6    5        0.0171433800
    1    9    6    6        0.0000000006
    1   10    6    4       -0.0000000002
    1   10    6    5        0.0000000001
    1   10    6    6       -0.0371469951
    1    1    7    7        0.3820435396
    1    2    7    4       -0.0734364169
    1    2    7    5       -0.1549789727
    1    3    7    7       -0.0243023797
    1    4    7    2       -0.0197584550
    1    4    7    9       -0.0000704897
    1    5    7    2       -0.0416979094
    1    5    7    9       -0.0001487603
    1    7    7    1        0.0596463852
    1    7    7    3       -0.0109540745
    1    7    7    8        0.0143525791
    1    7    7    9        0.0000000002
    1    7    7   10       -0.0137067876
    1    8    7    5        0.0000000002
    1    8    7    7        0.0815621578
    1    9    7    4       -0.0171433800
    1    9    7    5       -0.0361790994
    1    9    7    7        0.0000000006
    1   10    7    4       -0.0000000001
    1   10    7    5       -0.0000000002
    1   10    7    7       -0.0371469951
    1    1    8    1        0.0816036106
    1    1    8    2       -0.0000000004
    1    1    8    3       -0.0157912715
    1    1    8    8        0.3377824259
    1    1    8    9       -0.0000000004
    1    1    8   10       -0.0041628928
    1    2    8    1       -0.0000000004
    1    2    8    2        0.0833652112
    1    2    8    8       -0.0000000022
    1    2    8    9        0.2153972314
    1    2    8   10        0.0000000016
    1    3    8    1       -0.0061146442
    1    3    8    3       -0.0022008790
    1    3    8    8       -0.0273505908
    1    3    8    9        0.0000000002
    1    3    8   10       -0.0269508216
    1    4    8    4       -0.0157189404
    1    5    8    5       -0.0157189404
    1    6    8    6        0.0143668006
    1    7    8    7        0.0143668006
    1    8    8    1        0.0591920206
    1    8    8    2       -0.0000000007
    1    8    8    3       -0.0144525179
    1    8    8    8        0.0772544487
    1    8    8    9       -0.0000000006
    1    8    8   10       -0.0042704249
    1    9    8    2        0.0631892006
    1    9    8    8       -0.0000000004
    1    9    8    9        0.0871668517
    1    9    8   10        0.0000000005
    1   10    8    1       -0.0216153284
    1   10    8    2        0.0000000005
    1   10    8    3       -0.0051669416
    1   10    8    8       -0.0260189274
    1   10    8    9        0.0000000005
    1   10    8   10        0.0294361660
    1    1    9    1        0.0000000007
    1    1    9    2        0.0791349526
    1    1    9    3        0.0000000002
    1    1    9    8       -0.0000000004
    1    1    9    9        0.3820629331
    1    1    9   10        0.0000000003
    1    2    9    1        0.0777597095
    1    2    9    2        0.0000000007
    1    2    9    3       -0.0168944797
    1    2    9    8        0.2153988864
    1    2    9    9        0.0000000022
    1    2    9   10       -0.0379515715
    1    3    9    2       -0.0061865113
    1    3    9    3       -0.0000000002
    1    3    9    8        0.0000000002
    1    3    9    9       -0.0270043657
    1    3    9   10       -0.0000000001
    1    4    9    6       -0.0001538440
    1    4    9    7       -0.0000728986
    1    5    9    6        0.0000728986
    1    5    9    7       -0.0001538440
    1    6    9    4        0.0107142246
    1    6    9    5       -0.0050769098
    1    6    9    6        0.0000000002
    1    7    9    4        0.0050769098
    1    7    9    5        0.0107142246
    1    7    9    7        0.0000000002
    1    8    9    2        0.0632996236
    1    8    9    3        0.0000000002
    1    8    9    8       -0.0000000006
    1    8    9    9        0.1031039412
    1    8    9   10        0.0000000003
    1    9    9    1        0.0685998671
    1    9    9    2        0.0000000009
    1    9    9    3       -0.0128499362
    1    9    9    8        0.0871701296
    1    9    9    9        0.0000000017
    1    9    9   10       -0.0207443253
    1   10    9    1        0.0000000001
    1   10    9    2       -0.0257694407
    1   10    9    8        0.0000000005
    1   10    9    9       -0.0418757708
    1    1   10    1       -0.0446605865
    1    1   10    2        0.0000000005
    1    1   10    3       -0.0430950075
    1    1   10    8       -0.0041628928
    1    1   10    9        0.0000000003
    1    1   10   10        0.3564298742
    1    2   10    1        0.0000000004
    1    2   10    2       -0.0462790766
    1    2   10    3       -0.0000000006
    1    2   10    8        0.0000000016
    1    2   10    9       -0.0379563300
    1    2   10   10       -0.0000000001
    1    3   10    1       -0.0135436306
    1    3   10    2       -0.0000000002
    1    3   10    3        0.0320216647
    1    3   10    8       -0.0269511227
    1    3   10    9       -0.0000000001
    1    3   10   10       -0.0182021806
    1    4   10    4       -0.0032509686
    1    5   10    5       -0.0032509686
    1    6   10    6       -0.0137135965
    1    7   10    7       -0.0137135965
    1    8   10    1       -0.0216153284
    1    8   10    2        0.0000000005
    1    8   10    3       -0.0272627621
    1    8   10    8       -0.0042706453
    1    8   10    9        0.0000000003
    1    8   10   10        0.0832535825
    1    9   10    1        0.0000000001
    1    9   10    2       -0.0259200986
    1    9   10    3       -0.0000000003
    1    9   10    8        0.0000000005
    1    9   10    9       -0.0207402976
    1    9   10   10        0.0000000005
    1   10   10    1        0.0396450176
    1   10   10    2       -0.0000000002
    1   10   10    3       -0.0014901144
    1   10   10    8        0.0294362598
    1   10   10   10       -0.0156785815
    2    1    1    2        0.2500017257
    2    1    1    8       -0.0000000004
    2    1    1    9        0.0777597095
    2    1    1   10        0.0000000004
    2    2    1    1        0.3749901002
    2    2    1    3       -0.0011900232
    2    2    1    8        0.0829109261
    2    2    1    9        0.0000000007
    2    2    1   10       -0.0456558652
    2    3    1    2        0.0150632571
    2    3    1    9       -0.0056533117
    2    3    1   10       -0.0000000001
    2    4    1    6       -0.0402487921
    2    4    1    7       -0.0190717942
    2    5    1    6        0.0190717942
    2    5    1    7       -0.0402487921
    2    6    1    4       -0.0416609521
    2    6    1    5        0.0197409429
    2    7    1    4       -0.0197409429
    2    7    1    5       -0.0416609521
    2    8    1    1       -0.0000000004
    2    8    1    2        0.0833680315
    2    8    1    8       -0.0000000007
    2    8    1    9        0.0631863954
    2    8    1   10        0.0000000005
    2    9    1    1        0.0791349526
    2    9    1    2        0.0000000007
    2    9    1    3       -0.0061789821
    2    9    1    8        0.0632951675
    2    9    1    9        0.0000000009
    2    9    1   10       -0.0257798283
    2   10    1    1        0.0000000005
    2   10    1    2       -0.0462716978
    2   10    1    3       -0.0000000002
    2   10    1    8        0.0000000005
    2   10    1    9       -0.0259257289
    2   10    1   10       -0.0000000002
    2    1    2    1        0.2500813871
    2    1    2    3        0.0150671293
    2    1    2    8        0.0833652112
    2    1    2    9        0.0000000007
    2    1    2   10       -0.0462790766
    2    2    2    2        0.3773296940
    2    2    2    8       -0.0000000004
    2    2    2    9        0.0804261787
    2    2    2   10        0.0000000005
    2    3    2    1        0.0150671293
    2    3    2    3        0.0346529176
    2    3    2    8       -0.0059530967
    2    3    2   10       -0.0133906105
    2    4    2    4        0.0380295737
    2    5    2    5        0.0380295737
    2    6    2    6        0.0615941164
    2    7    2    7        0.0615941164
    2    8    2    1        0.0833652112
    2    8    2    2       -0.0000000004
    2    8    2    3       -0.0059530967
    2    8    2    8        0.0603367569
    2    8    2   10       -0.0222307399
    2    9    2    1        0.0000000007
    2    9    2    2        0.0804261787
    2    9    2    9        0.0699389475
    2    9    2   10        0.0000000001
    2   10    2    1       -0.0462790766
    2   10    2    2        0.0000000005
    2   10    2    3       -0.0133906105
    2   10    2    8       -0.0222307399
    2   10    2    9        0.0000000001
    2   10    2   10        0.0402446381
    2    1    3    2        0.0150632571
    2    1    3    3       -0.0000000004
    2    1    3    9       -0.0168944797
    2    1    3   10       -0.0000000006
    2    2    3    1       -0.0011900232
    2    2    3    3        0.2945720346
    2    2    3    8       -0.0163720587
    2    2    3    9        0.0000000002
    2    2    3   10       -0.0430432330
    2    3    3    2        0.0346529189
    2    3    3    9       -0.0075626194
    2    3    3   10       -0.0000000001
    2    4    3    6        0.0073662243
    2    4    3    7        0.0034904678
    2    5    3    6       -0.0034904678
    2    5    3    7        0.0073662243
    2    6    3    4        0.0073491670
    2    6    3    5       -0.0034823853
    2    7    3    4        0.0034823853
    2    7    3    5        0.0073491670
    2    8    3    2       -0.0059530971
    2    8    3    3       -0.0000000002
    2    8    3    8        0.0000000001
    2    8    3    9       -0.0118361943
    2    9    3    1       -0.0061865113
    2    9    3    3        0.0267540176
    2    9    3    8       -0.0143662570
    2    9    3   10       -0.0255852240
    2   10    3    1       -0.0000000002
    2   10    3    2       -0.0133906106
    2   10    3    3        0.0000000002
    2   10    3    9       -0.0011203560
    2   10    3   10       -0.0000000003
    2    1    4    6       -0.1549789727
    2    1    4    7       -0.0734364169
    2    2    4    4        0.2984335491
    2    3    4    6        0.0030863876
    2    3    4    7        0.0014624774
    2    4    4    2        0.0380295741
    2    4    4    8        0.0000000001
    2    4    4    9       -0.0171361434
    2    6    4    1       -0.0416979094
    2    6    4    3        0.0073491673
    2    6    4    8        0.0084786357
    2    6    4   10        0.0054982853
    2    7    4    1       -0.0197584550
    2    7    4    3        0.0034823854
    2    7    4    8        0.0040175813
    2    7    4   10        0.0026053494
    2    8    4    4       -0.0000000001
    2    8    4    6       -0.0421844378
    2    8    4    7       -0.0199889953
    2    9    4    4        0.0251742994
    2    9    4    6       -0.0000000004
    2    9    4    7       -0.0000000002
    2   10    4    4        0.0000000002
    2   10    4    6        0.0205623381
    2   10    4    7        0.0097434149
    2    1    5    6        0.0734364169
    2    1    5    7       -0.1549789727
    2    2    5    5        0.2984335491
    2    3    5    6       -0.0014624774
    2    3    5    7        0.0030863876
    2    5    5    2        0.0380295741
    2    5    5    8        0.0000000001
    2    5    5    9       -0.0171361434
    2    6    5    1        0.0197584550
    2    6    5    3       -0.0034823854
    2    6    5    8       -0.0040175813
    2    6    5   10       -0.0026053494
    2    7    5    1       -0.0416979094
    2    7    5    3        0.0073491673
    2    7    5    8        0.0084786357
    2    7    5   10        0.0054982853
    2    8    5    5       -0.0000000001
    2    8    5    6        0.0199889953
    2    8    5    7       -0.0421844378
    2    9    5    5        0.0251742994
    2    9    5    6        0.0000000002
    2    9    5    7       -0.0000000004
    2   10    5    5        0.0000000002
    2   10    5    6       -0.0097434149
    2   10    5    7        0.0205623381
    2    1    6    4       -0.1549762614
    2    1    6    5        0.0734351322
    2    2    6    6        0.3840684154
    2    3    6    4        0.0030863885
    2    3    6    5       -0.0014624778
    2    4    6    1       -0.0402830616
    2    4    6    3        0.0073662255
    2    4    6    8       -0.0044000474
    2    4    6   10        0.0084745238
    2    5    6    1        0.0190880327
    2    5    6    3       -0.0034904684
    2    5    6    8        0.0020849520
    2    5    6   10       -0.0040156329
    2    6    6    2        0.0615941210
    2    6    6    9        0.0098942090
    2    6    6   10        0.0000000001
    2    8    6    4       -0.0421844380
    2    8    6    5        0.0199889954
    2    8    6    6       -0.0000000004
    2    9    6    4       -0.0000000004
    2    9    6    5        0.0000000002
    2    9    6    6        0.0770797791
    2   10    6    4        0.0205623382
    2   10    6    5       -0.0097434150
    2   10    6    6        0.0000000005
    2    1    7    4       -0.0734351322
    2    1    7    5       -0.1549762614
    2    2    7    7        0.3840684154
    2    3    7    4        0.0014624778
    2    3    7    5        0.0030863885
    2    4    7    1       -0.0190880327
    2    4    7    3        0.0034904684
    2    4    7    8       -0.0020849520
    2    4    7   10        0.0040156329
    2    5    7    1       -0.0402830616
    2    5    7    3        0.0073662255
    2    5    7    8       -0.0044000474
    2    5    7   10        0.0084745238
    2    7    7    2        0.0615941210
    2    7    7    9        0.0098942090
    2    7    7   10        0.0000000001
    2    8    7    4       -0.0199889954
    2    8    7    5       -0.0421844380
    2    8    7    7       -0.0000000004
    2    9    7    4       -0.0000000002
    2    9    7    5       -0.0000000004
    2    9    7    7        0.0770797791
    2   10    7    4        0.0097434150
    2   10    7    5        0.0205623382
    2   10    7    7        0.0000000005
    2    1    8    1       -0.0000000004
    2    1    8    2        0.0833680315
    2    1    8    8       -0.0000000022
    2    1    8    9        0.2153988864
    2    1    8   10        0.0000000016
    2    2    8    1        0.0829109261
    2    2    8    2       -0.0000000004
    2    2    8    3       -0.0163720587
    2    2    8    8        0.3390748656
    2    2    8    9       -0.0000000004
    2    2    8   10       -0.0048684854
    2    3    8    2       -0.0059530971
    2    3    8    8        0.0000000001
    2    3    8    9       -0.0082147474
    2    4    8    4        0.0000000001
    2    4    8    6       -0.0044000475
    2    4    8    7       -0.0020849520
    2    5    8    5        0.0000000001
    2    5    8    6        0.0020849520
    2    5    8    7       -0.0044000475
    2    6    8    4        0.0084786354
    2    6    8    5       -0.0040175812
    2    7    8    4        0.0040175812
    2    7    8    5        0.0084786354
    2    8    8    1       -0.0000000007
    2    8    8    2        0.0603367572
    2    8    8    3        0.0000000001
    2    8    8    8       -0.0000000013
    2    8    8    9        0.0879410029
    2    8    8   10        0.0000000008
    2    9    8    1        0.0632996236
    2    9    8    3       -0.0143662572
    2    9    8    8        0.0781460287
    2    9    8    9        0.0000000005
    2    9    8   10       -0.0088784505
    2   10    8    1        0.0000000005
    2   10    8    2       -0.0222307398
    2   10    8    8        0.0000000009
    2   10    8    9       -0.0343252510
    2   10    8   10       -0.0000000003
    2    1    9    1        0.0776343846
    2    1    9    2        0.0000000007
    2    1    9    3       -0.0168846380
    2    1    9    8        0.2153972314
    2    1    9    9        0.0000000022
    2    1    9   10       -0.0379563300
    2    2    9    1        0.0000000007
    2    2    9    2        0.0804261787
    2    2    9    3        0.0000000002
[...]
    9   10    9    1       -0.0207402976
    9   10    9    3       -0.0005295413
    9   10    9    8       -0.0252323371
    9   10    9   10        0.0342282106
    9    1   10    1        0.0000000001
    9    1   10    2       -0.0259257289
    9    1   10    3       -0.0000000003
    9    1   10    8        0.0000000005
    9    1   10    9       -0.0207443253
    9    1   10   10        0.0000000005
    9    2   10    1       -0.0257798283
    9    2   10    2        0.0000000001
    9    2   10    3       -0.0255852240
    9    2   10    8       -0.0088784505
    9    2   10   10        0.0781009256
    9    3   10    2       -0.0011203560
    9    3   10    3       -0.0000000001
    9    3   10    9       -0.0005295412
    9    3   10   10        0.0000000002
    9    4   10    6       -0.0020459496
    9    4   10    7       -0.0009694684
    9    5   10    6        0.0009694684
    9    5   10    7       -0.0020459496
    9    6   10    4        0.0004326119
    9    6   10    5       -0.0002049921
    9    7   10    4        0.0002049921
    9    7   10    5        0.0004326119
    9    8   10    1        0.0000000005
    9    8   10    2       -0.0343252510
    9    8   10    3       -0.0000000003
    9    8   10    8        0.0000000014
    9    8   10    9       -0.0252323370
    9    8   10   10       -0.0000000003
    9    9   10    1       -0.0418757708
    9    9   10    2        0.0000000001
    9    9   10    3       -0.0618856698
    9    9   10    8        0.0063142929
    9    9   10   10        0.3748058697
    9   10   10    2        0.0302504617
    9   10   10    3       -0.0000000001
    9   10   10    8       -0.0000000002
    9   10   10    9        0.0342282114
    9   10   10   10        0.0000000007
   10    1    1    1       -0.0446605865
   10    1    1    2        0.0000000004
   10    1    1    3       -0.0135436306
   10    1    1    8       -0.0216153284
   10    1    1    9        0.0000000001
   10    1    1   10        0.0396450176
   10    2    1    1        0.0000000005
   10    2    1    2       -0.0462790766
   10    2    1    3       -0.0000000002
   10    2    1    8        0.0000000005
   10    2    1    9       -0.0259200986
   10    2    1   10       -0.0000000002
   10    3    1    1       -0.0430950075
   10    3    1    2       -0.0000000006
   10    3    1    3        0.0320216647
   10    3    1    8       -0.0272627621
   10    3    1    9       -0.0000000003
   10    3    1   10       -0.0014901144
   10    4    1    4       -0.0032509686
   10    5    1    5       -0.0032509686
   10    6    1    6       -0.0137135965
   10    7    1    7       -0.0137135965
   10    8    1    1       -0.0041628928
   10    8    1    2        0.0000000016
   10    8    1    3       -0.0269511227
   10    8    1    8       -0.0042706453
   10    8    1    9        0.0000000005
   10    8    1   10        0.0294362598
   10    9    1    1        0.0000000003
   10    9    1    2       -0.0379563300
   10    9    1    3       -0.0000000001
   10    9    1    8        0.0000000003
   10    9    1    9       -0.0207402976
   10   10    1    1        0.3564298742
   10   10    1    2       -0.0000000001
   10   10    1    3       -0.0182021806
   10   10    1    8        0.0832535825
   10   10    1    9        0.0000000005
   10   10    1   10       -0.0156785815
   10    1    2    1        0.0000000004
   10    1    2    2       -0.0456558652
   10    1    2    3       -0.0000000001
   10    1    2    8        0.0000000005
   10    1    2    9       -0.0257694407
   10    1    2   10       -0.0000000002
   10    2    2    1       -0.0462716978
   10    2    2    2        0.0000000005
   10    2    2    3       -0.0133906106
   10    2    2    8       -0.0222307398
   10    2    2    9        0.0000000001
   10    2    2   10        0.0402446389
   10    3    2    1       -0.0000000006
   10    3    2    2       -0.0430432330
   10    3    2    3       -0.0000000001
   10    3    2    9       -0.0255852243
   10    3    2   10       -0.0000000003
   10    4    2    6        0.0054982872
   10    4    2    7        0.0026053503
   10    5    2    6       -0.0026053503
   10    5    2    7        0.0054982872
   10    6    2    4        0.0084745256
   10    6    2    5       -0.0040156338
   10    6    2    6        0.0000000001
   10    7    2    4        0.0040156338
   10    7    2    5        0.0084745256
   10    7    2    7        0.0000000001
   10    8    2    1        0.0000000016
   10    8    2    2       -0.0048684854
   10    8    2    8        0.0000000008
   10    8    2    9       -0.0088784505
   10    8    2   10       -0.0000000003
   10    9    2    1       -0.0379515715
   10    9    2    2        0.0000000003
   10    9    2    3       -0.0189784218
   10    9    2    8       -0.0172646636
   10    9    2   10        0.0302504617
   10   10    2    1       -0.0000000001
   10   10    2    2        0.3581395030
   10   10    2    3       -0.0000000004
   10   10    2    8       -0.0000000004
   10   10    2    9        0.0781009256
   10   10    2   10        0.0000000009
   10    1    3    1       -0.0135675979
   10    1    3    2       -0.0000000001
   10    1    3    3        0.0010620588
   10    1    3    8       -0.0051669416
   10    1    3   10       -0.0014901144
   10    2    3    1       -0.0000000002
   10    2    3    2       -0.0133906105
   10    2    3    3        0.0000000002
   10    2    3    9       -0.0011203564
   10    2    3   10       -0.0000000003
   10    3    3    1        0.0320243106
   10    3    3    2       -0.0000000001
   10    3    3    3       -0.0345390460
   10    3    3    8        0.0060145232
   10    3    3    9       -0.0000000001
   10    3    3   10        0.0478210896
   10    4    3    4       -0.0009309667
   10    5    3    5       -0.0009309667
   10    6    3    6       -0.0064074735
   10    7    3    7       -0.0064074735
   10    8    3    1       -0.0269508216
   10    8    3    3        0.0223901503
   10    8    3    8       -0.0066127746
   10    8    3   10       -0.0253967404
   10    9    3    1       -0.0000000001
   10    9    3    2       -0.0189784218
   10    9    3    3        0.0000000002
   10    9    3    9       -0.0005295413
   10    9    3   10       -0.0000000001
   10   10    3    1       -0.0182021806
   10   10    3    2       -0.0000000004
   10   10    3    3        0.3107288716
   10   10    3    8       -0.0245333730
   10   10    3    9        0.0000000002
   10   10    3   10       -0.0601275850
   10    1    4    4       -0.0170024923
   10    1    4    6       -0.0000000002
   10    1    4    7       -0.0000000001
   10    2    4    4        0.0000000002
   10    2    4    6        0.0205623382
   10    2    4    7        0.0097434150
   10    3    4    4       -0.0311701887
   10    3    4    6        0.0000000004
   10    3    4    7        0.0000000002
   10    4    4    1       -0.0032509882
   10    4    4    3       -0.0009309667
   10    4    4    8        0.0010307299
   10    4    4   10        0.0063696274
   10    6    4    2        0.0084745238
   10    6    4    9       -0.0020459493
   10    7    4    2        0.0040156329
   10    7    4    9       -0.0009694682
   10    8    4    4        0.0128539989
   10    8    4    6       -0.0000000010
   10    8    4    7       -0.0000000005
   10    9    4    4        0.0000000002
   10    9    4    6        0.0112042123
   10    9    4    7        0.0053090893
   10   10    4    4        0.2870061899
   10   10    4    6       -0.0000000001
   10    1    5    5       -0.0170024923
   10    1    5    6        0.0000000001
   10    1    5    7       -0.0000000002
   10    2    5    5        0.0000000002
   10    2    5    6       -0.0097434150
   10    2    5    7        0.0205623382
   10    3    5    5       -0.0311701887
   10    3    5    6       -0.0000000002
   10    3    5    7        0.0000000004
   10    5    5    1       -0.0032509882
   10    5    5    3       -0.0009309667
   10    5    5    8        0.0010307299
   10    5    5   10        0.0063696274
   10    6    5    2       -0.0040156329
   10    6    5    9        0.0009694682
   10    7    5    2        0.0084745238
   10    7    5    9       -0.0020459493
   10    8    5    5        0.0128539989
   10    8    5    6        0.0000000005
   10    8    5    7       -0.0000000010
   10    9    5    5        0.0000000002
   10    9    5    6       -0.0053090893
   10    9    5    7        0.0112042123
   10   10    5    5        0.2870061899
   10   10    5    7       -0.0000000001
   10    1    6    4       -0.0000000002
   10    1    6    5        0.0000000001
   10    1    6    6       -0.0371469951
   10    2    6    4        0.0205623381
   10    2    6    5       -0.0097434149
   10    2    6    6        0.0000000005
   10    3    6    4        0.0000000004
   10    3    6    5       -0.0000000002
   10    3    6    6       -0.0604817934
   10    4    6    2        0.0054982853
   10    4    6    9        0.0004326125
   10    5    6    2       -0.0026053494
   10    5    6    9       -0.0002049924
   10    6    6    1       -0.0137067876
   10    6    6    2        0.0000000001
   10    6    6    3       -0.0064074729
   10    6    6    8       -0.0007633481
   10    6    6   10        0.0158779006
   10    8    6    4       -0.0000000010
   10    8    6    5        0.0000000005
   10    8    6    6        0.0148024210
   10    9    6    4        0.0112042126
   10    9    6    5       -0.0053090894
   10    9    6    6        0.0000000004
   10   10    6    4       -0.0000000001
   10   10    6    6        0.3674084126
   10    1    7    4       -0.0000000001
   10    1    7    5       -0.0000000002
   10    1    7    7       -0.0371469951
   10    2    7    4        0.0097434149
   10    2    7    5        0.0205623381
   10    2    7    7        0.0000000005
   10    3    7    4        0.0000000002
   10    3    7    5        0.0000000004
   10    3    7    7       -0.0604817934
   10    4    7    2        0.0026053494
   10    4    7    9        0.0002049924
   10    5    7    2        0.0054982853
   10    5    7    9        0.0004326125
   10    7    7    1       -0.0137067876
   10    7    7    2        0.0000000001
   10    7    7    3       -0.0064074729
   10    7    7    8       -0.0007633481
   10    7    7   10        0.0158779006
   10    8    7    4       -0.0000000005
   10    8    7    5       -0.0000000010
   10    8    7    7        0.0148024210
   10    9    7    4        0.0053090894
   10    9    7    5        0.0112042126
   10    9    7    7        0.0000000004
   10   10    7    5       -0.0000000001
   10   10    7    7        0.3674084126
   10    1    8    1       -0.0215837313
   10    1    8    2        0.0000000005
   10    1    8    3       -0.0051688031
   10    1    8    8       -0.0260189274
   10    1    8    9        0.0000000005
   10    1    8   10        0.0294362598
   10    2    8    1        0.0000000005
   10    2    8    2       -0.0222307399
   10    2    8    8        0.0000000009
   10    2    8    9       -0.0343252507
   10    2    8   10       -0.0000000003
   10    3    8    1       -0.0272643229
   10    3    8    3        0.0060145235
   10    3    8    8       -0.0551896924
   10    3    8    9       -0.0000000003
   10    3    8   10       -0.0253967404
   10    4    8    4        0.0010307299
   10    5    8    5        0.0010307299
   10    6    8    6       -0.0007633474
   10    7    8    7       -0.0007633474
   10    8    8    1       -0.0042704249
   10    8    8    2        0.0000000008
   10    8    8    3       -0.0066127746
   10    8    8    8        0.0150048433
   10    8    8    9        0.0000000014
   10    8    8   10        0.0390898644
   10    9    8    1        0.0000000003
   10    9    8    2       -0.0172646633
   10    9    8    8        0.0000000007
   10    9    8    9       -0.0252323371
   10    9    8   10       -0.0000000002
   10   10    8    1        0.0832535825
   10   10    8    2       -0.0000000004
   10   10    8    3       -0.0245333730
   10   10    8    8        0.3391599986
   10   10    8    9       -0.0000000003
   10   10    8   10        0.0223863467
   10    1    9    1        0.0000000001
   10    1    9    2       -0.0257798283
   10    1    9    8        0.0000000005
   10    1    9    9       -0.0418757708
   10    2    9    1       -0.0259257289
   10    2    9    2        0.0000000001
   10    2    9    3       -0.0011203560
   10    2    9    8       -0.0343252510
   10    2    9    9        0.0000000001
   10    2    9   10        0.0302504617
   10    3    9    1       -0.0000000003
   10    3    9    2       -0.0255852240
   10    3    9    3       -0.0000000001
   10    3    9    8       -0.0000000003
   10    3    9    9       -0.0618856698
   10    3    9   10       -0.0000000001
   10    4    9    6        0.0004326119
   10    4    9    7        0.0002049921
   10    5    9    6       -0.0002049921
   10    5    9    7        0.0004326119
   10    6    9    4       -0.0020459496
   10    6    9    5        0.0009694684
   10    7    9    4       -0.0009694684
   10    7    9    5       -0.0020459496
   10    8    9    1        0.0000000005
   10    8    9    2       -0.0088784505
   10    8    9    8        0.0000000014
   10    8    9    9        0.0063142929
   10    8    9   10       -0.0000000002
   10    9    9    1       -0.0207443253
   10    9    9    3       -0.0005295412
   10    9    9    8       -0.0252323370
   10    9    9   10        0.0342282114
   10   10    9    1        0.0000000005
   10   10    9    2        0.0781009256
   10   10    9    3        0.0000000002
   10   10    9    8       -0.0000000003
   10   10    9    9        0.3748058697
   10   10    9   10        0.0000000007
   10    1   10    1        0.0397184812
   10    1   10    2       -0.0000000002
   10    1   10    3       -0.0014883918
   10    1   10    8        0.0294361660
   10    1   10   10       -0.0156785815
   10    2   10    1       -0.0000000002
   10    2   10    2        0.0402446381
   10    2   10    3       -0.0000000003
   10    2   10    8       -0.0000000003
   10    2   10    9        0.0302504623
   10    2   10   10        0.0000000009
   10    3   10    1       -0.0014883918
   10    3   10    2       -0.0000000003
   10    3   10    3        0.0478210893
   10    3   10    8       -0.0253967404
   10    3   10    9       -0.0000000001
   10    3   10   10       -0.0601275850
   10    4   10    4        0.0063696273
   10    5   10    5        0.0063696273
   10    6   10    6        0.0158778990
   10    7   10    7        0.0158778990
   10    8   10    1        0.0294361660
   10    8   10    2       -0.0000000003
   10    8   10    3       -0.0253967404
   10    8   10    8        0.0390898644
   10    8   10    9       -0.0000000002
   10    8   10   10        0.0223863467
   10    9   10    2        0.0302504623
   10    9   10    3       -0.0000000001
   10    9   10    8       -0.0000000002
   10    9   10    9        0.0342282106
   10    9   10   10        0.0000000007
   10   10   10    1       -0.0156785815
   10   10   10    2        0.0000000009
   10   10   10    3       -0.0601275850
   10   10   10    8        0.0223863467
   10   10   10    9        0.0000000007
   10   10   10   10        0.3835020654
 end_two_electron_integrals

 Parallel integral file used       8 records with       0 large values


 Task  times  cpu:      138.8s     wall:      141.6s


                                NWChem Input Module
                                -------------------


 Summary of allocated global arrays
-----------------------------------
  No active global arrays


MA_summarize_allocated_blocks: starting scan ...
MA_summarize_allocated_blocks: scan completed: 0 heap blocks, 0 stack blocks
MA usage statistics:

	allocation statistics:
					      heap	     stack
					      ----	     -----
	current number of blocks	         0	         0
	maximum number of blocks	        18	        42
	current total bytes		         0	         0
	maximum total bytes		  51983048	9994007128
	maximum total K-bytes		     51984	   9994008
	maximum total M-bytes		        52	      9995


                                     CITATION
                                     --------
                Please cite the following reference when publishing
                           results obtained with NWChem:

          E. Apra, E. J. Bylaska, W. A. de Jong, N. Govind, K. Kowalski,
       T. P. Straatsma, M. Valiev, H. J. J. van Dam, Y. Alexeev, J. Anchell,
       V. Anisimov, F. W. Aquino, R. Atta-Fynn, J. Autschbach, N. P. Bauman,
     J. C. Becca, D. E. Bernholdt, K. Bhaskaran-Nair, S. Bogatko, P. Borowski,
         J. Boschen, J. Brabec, A. Bruner, E. Cauet, Y. Chen, G. N. Chuev,
      C. J. Cramer, J. Daily, M. J. O. Deegan, T. H. Dunning Jr., M. Dupuis,
   K. G. Dyall, G. I. Fann, S. A. Fischer, A. Fonari, H. Fruchtl, L. Gagliardi,
      J. Garza, N. Gawande, S. Ghosh, K. Glaesemann, A. W. Gotz, J. Hammond,
       V. Helms, E. D. Hermes, K. Hirao, S. Hirata, M. Jacquelin, L. Jensen,
   B. G. Johnson, H. Jonsson, R. A. Kendall, M. Klemm, R. Kobayashi, V. Konkov,
      S. Krishnamoorthy, M. Krishnan, Z. Lin, R. D. Lins, R. J. Littlefield,
      A. J. Logsdail, K. Lopata, W. Ma, A. V. Marenich, J. Martin del Campo,
   D. Mejia-Rodriguez, J. E. Moore, J. M. Mullin, T. Nakajima, D. R. Nascimento,
    J. A. Nichols, P. J. Nichols, J. Nieplocha, A. Otero-de-la-Roza, B. Palmer,
    A. Panyala, T. Pirojsirikul, B. Peng, R. Peverati, J. Pittner, L. Pollack,
   R. M. Richard, P. Sadayappan, G. C. Schatz, W. A. Shelton, D. W. Silverstein,
   D. M. A. Smith, T. A. Soares, D. Song, M. Swart, H. L. Taylor, G. S. Thomas,
            V. Tipparaju, D. G. Truhlar, K. Tsemekhman, T. Van Voorhis,
      A. Vazquez-Mayagoitia, P. Verma, O. Villa, A. Vishnu, K. D. Vogiatzis,
        D. Wang, J. H. Weare, M. J. Williamson, T. L. Windus, K. Wolinski,
        A. T. Wong, Q. Wu, C. Yang, Q. Yu, M. Zacharias, Z. Zhang, Y. Zhao,
                                and R. J. Harrison
                        "NWChem: Past, present, and future
                         J. Chem. Phys. 152, 184102 (2020)
                               doi:10.1063/5.0004997

                                      AUTHORS
                                      -------
  E. Apra, E. J. Bylaska, N. Govind, K. Kowalski, M. Valiev, D. Mejia-Rodriguez,
       A. Kunitsa, N. P. Bauman, A. Panyala, W. A. de Jong, T. P. Straatsma,
        H. J. J. van Dam, D. Wang, T. L. Windus, J. Hammond, J. Autschbach,
    K. Bhaskaran-Nair, J. Brabec, K. Lopata, S. A. Fischer, S. Krishnamoorthy,
     M. Jacquelin, W. Ma, M. Klemm, O. Villa, Y. Chen, V. Anisimov, F. Aquino,
    S. Hirata, M. T. Hackler, Eric Hermes, L. Jensen, J. E. Moore, J. C. Becca,
      V. Konjkov, T. Risthaus, M. Malagoli, A. Marenich, A. Otero-de-la-Roza,
        J. Mullin, P. Nichols, R. Peverati, J. Pittner, Y. Zhao, P.-D. Fan,
        A. Fonari, M. J. Williamson, R. J. Harrison, J. R. Rehr, M. Dupuis,
     D. Silverstein, D. M. A. Smith, J. Nieplocha, V. Tipparaju, M. Krishnan,
     B. E. Van Kuiken, A. Vazquez-Mayagoitia, M. Swart, Q. Wu, T. Van Voorhis,
     A. A. Auer, M. Nooijen, L. D. Crosby, E. Brown, G. Cisneros, G. I. Fann,
   H. Fruchtl, J. Garza, K. Hirao, R. A. Kendall, J. A. Nichols, K. Tsemekhman,
    K. Wolinski, J. Anchell, D. E. Bernholdt, P. Borowski, T. Clark, D. Clerc,
   H. Dachsel, M. J. O. Deegan, K. Dyall, D. Elwood, E. Glendening, M. Gutowski,
   A. C. Hess, J. Jaffe, B. G. Johnson, J. Ju, R. Kobayashi, R. Kutteh, Z. Lin,
   R. Littlefield, X. Long, B. Meng, T. Nakajima, S. Niu, L. Pollack, M. Rosing,
   K. Glaesemann, G. Sandrone, M. Stave, H. Taylor, G. Thomas, J. H. van Lenthe,
                               A. T. Wong, Z. Zhang.

 Total times  cpu:      140.0s     wall:      143.0s
