 argument  1 = input.nw
  NWChem w/ OpenMP: maximum threads =    1



============================== echo of input deck ==============================
 echo
 start H2O
 title "H2O"

 memory total 24 gb

 geometry units bohr
 symmetry c1
        O  0.00000000  0.00000000  0.00000000
        H  0.00000000  1.511629  0.00000000
        H  1.72558000 -0.64860000  0.00000000
 end

 basis spherical
   * library cc-pVTZ
 end

 mcscf
   active  8
   actelec 10
   multiplicity 1
   maxiter 40
   vectors input h2o.mos
   vectors output h2o.mos
 end

 task mcscf

 scf
   vectors input h2o.mos
   vectors output h2o-trash.mos
   noscf
 end

 tce
   2eorb
   2emet 13
   ccsd
 end

 set tce:print_integrals T
 set tce:qorb 8
 set tce:qela 5
 set tce:qelb 5

# set tce:qducc T
# set tce:nactv 3
# set tce:nonhf T
# set tce:ducc_model 3

 set tce:printtol 0.02

 task tce
================================================================================


                                         
                                         


             Northwest Computational Chemistry Package (NWChem) 7.0.1
             --------------------------------------------------------


                    Environmental Molecular Sciences Laboratory
                       Pacific Northwest National Laboratory
                                Richland, WA 99352

                              Copyright (c) 1994-2020
                       Pacific Northwest National Laboratory
                            Battelle Memorial Institute

             NWChem is an open-source computational chemistry package
                        distributed under the terms of the
                      Educational Community License (ECL) 2.0
             A copy of the license is included with this distribution
                              in the LICENSE.TXT file

                                  ACKNOWLEDGMENT
                                  --------------

            This software and its documentation were developed at the
            EMSL at Pacific Northwest National Laboratory, a multiprogram
            national laboratory, operated for the U.S. Department of Energy
            by Battelle under Contract Number DE-AC05-76RL01830. Support
            for this work was provided by the Department of Energy Office
            of Biological and Environmental Research, Office of Basic
            Energy Sciences, and the Office of Advanced Scientific Computing.


           Job information
           ---------------

    hostname        = WE46210
    program         = /home/baum612/code/nwchem/bin/LINUX64/nwchem
    date            = Mon Nov  6 12:28:29 2023

    compiled        = Mon_Nov_06_10:06:57_2023
    source          = /home/baum612/code/nwchem
    nwchem branch   = 7.0.0
    nwchem revision = nwchem_on_git-4191-g39d87d64de
    ga revision     = 5.8.1
    use scalapack   = F
    input           = input.nw
    prefix          = H2O.
    data base       = ./H2O.db
    status          = startup
    nproc           =        1
    time left       =     -1s



           Memory information
           ------------------

    heap     =  805306366 doubles =   6144.0 Mbytes
    stack    =  805306363 doubles =   6144.0 Mbytes
    global   = 1610612736 doubles =  12288.0 Mbytes (distinct from heap & stack)
    total    = 3221225465 doubles =  24576.0 Mbytes
    verify   = yes
    hardfail = no 


           Directory information
           ---------------------

  0 permanent = .
  0 scratch   = .




                                NWChem Input Module
                                -------------------


                                        H2O
                                        ---
 Turning off AUTOSYM since
 SYMMETRY directive was detected!


          ------
          auto-z
          ------
  no constraints, skipping    0.0000000000000000     
  no constraints, skipping    0.0000000000000000     


                             Geometry "geometry" -> ""
                             -------------------------

 Output coordinates in a.u. (scale by  1.000000000 to convert to a.u.)

  No.       Tag          Charge          X              Y              Z
 ---- ---------------- ---------- -------------- -------------- --------------
    1 O                    8.0000    -0.17255800    -0.08630290     0.00000000
    2 H                    1.0000    -0.17255800     1.42532610     0.00000000
    3 H                    1.0000     1.55302200    -0.73490290     0.00000000

      Atomic Mass 
      ----------- 

      O                 15.994910
      H                  1.007825


 Effective nuclear repulsion energy (a.u.)       9.9936803126

            Nuclear Dipole moment (a.u.) 
            ----------------------------
        X                 Y               Z
 ---------------- ---------------- ----------------
    -0.0000000000     0.0000000000     0.0000000000



                                Z-matrix (autoz)
                                -------- 

 Units are Angstrom for bonds and degrees for angles

      Type          Name      I     J     K     L     M      Value
      ----------- --------  ----- ----- ----- ----- ----- ----------
    1 Stretch                  1     2                       0.79992
    2 Stretch                  1     3                       0.97551
    3 Bend                     2     1     3               110.59992


            XYZ format geometry
            -------------------
     3
 geometry
 O                    -0.09131377    -0.04566953     0.00000000
 H                    -0.09131377     0.75425014     0.00000000
 H                     0.82182391    -0.38889389     0.00000000

 ==============================================================================
                                internuclear distances
 ------------------------------------------------------------------------------
       center one      |      center two      | atomic units |       a.u.
 ------------------------------------------------------------------------------
    2 H                |   1 O                |     1.51163  |     1.51163
    3 H                |   1 O                |     1.84345  |     1.84345
 ------------------------------------------------------------------------------
                         number of included internuclear distances:          2
 ==============================================================================



 ==============================================================================
                                 internuclear angles
 ------------------------------------------------------------------------------
        center 1       |       center 2       |       center 3       |  degrees
 ------------------------------------------------------------------------------
    2 H                |   1 O                |   3 H                |   110.60
 ------------------------------------------------------------------------------
                            number of included internuclear angles:          1
 ==============================================================================





 Summary of "ao basis" -> "" (spherical)
 ------------------------------------------------------------------------------
       Tag                 Description            Shells   Functions and Types
 ---------------- ------------------------------  ------  ---------------------
 *                          cc-pVTZ                   on all atoms 


                      Basis "ao basis" -> "ao basis" (spherical)
                      -----
  O (Oxygen)
  ----------
            Exponent  Coefficients 
       -------------- ---------------------------------------------------------
  1 S  1.53300000E+04  0.000508
  1 S  2.29900000E+03  0.003929
  1 S  5.22400000E+02  0.020243
  1 S  1.47300000E+02  0.079181
  1 S  4.75500000E+01  0.230687
  1 S  1.67600000E+01  0.433118
  1 S  6.20700000E+00  0.350260
  1 S  6.88200000E-01 -0.008154

  2 S  1.53300000E+04 -0.000115
  2 S  2.29900000E+03 -0.000895
  2 S  5.22400000E+02 -0.004636
  2 S  1.47300000E+02 -0.018724
  2 S  4.75500000E+01 -0.058463
  2 S  1.67600000E+01 -0.136463
  2 S  6.20700000E+00 -0.175740
  2 S  6.88200000E-01  0.603418

  3 S  1.75200000E+00  1.000000

  4 S  2.38400000E-01  1.000000

  5 P  3.44600000E+01  0.015928
  5 P  7.74900000E+00  0.099740
  5 P  2.28000000E+00  0.310492

  6 P  7.15600000E-01  1.000000

  7 P  2.14000000E-01  1.000000

  8 D  2.31400000E+00  1.000000

  9 D  6.45000000E-01  1.000000

 10 F  1.42800000E+00  1.000000

  H (Hydrogen)
  ------------
            Exponent  Coefficients 
       -------------- ---------------------------------------------------------
  1 S  3.38700000E+01  0.006068
  1 S  5.09500000E+00  0.045308
  1 S  1.15900000E+00  0.202822

  2 S  3.25800000E-01  1.000000

  3 S  1.02700000E-01  1.000000

  4 P  1.40700000E+00  1.000000

  5 P  3.88000000E-01  1.000000

  6 D  1.05700000E+00  1.000000



 Summary of "ao basis" -> "ao basis" (spherical)
 ------------------------------------------------------------------------------
       Tag                 Description            Shells   Functions and Types
 ---------------- ------------------------------  ------  ---------------------
 O                          cc-pVTZ                 10       30   4s3p2d1f
 H                          cc-pVTZ                  6       14   3s2p1d



                            NWChem Direct MCSCF Module
                            --------------------------


                                        H2O


     -----------------------------------
       Basis functions:             58
       Inactive shells:              0
       Active shells:                8
       Active electrons:            10
       Symmetry:                    a       
       Multiplicity:                 1
       Orbital rotations:          400
     -----------------------------------

     -----------------------------------
       E2 extrapolation:             F
       Conjugacy:                    T
       Micro CI relax:               T
       Canonical orbitals:           T
       Maximum iterations:          40
       Converge threshold:    1.00E-04
       Conjugacy resets:            20
       Initial levelshift:        0.10
     -----------------------------------

 Loading old vectors from job with title :

H2O


   input molecular orbitals = ./h2o.mos
  output molecular orbtials = ./h2o.mos

       No. of determinants:          3136


  Starting Orbital Energies
   -20.530282    -1.390511    -0.781055    -0.593732    -0.531503    -0.025594
    -0.019767    -0.015961     0.275629     0.334472     0.621053     0.653400
     0.809724     0.858216     0.974015     1.070975     1.213705     1.368640
     1.572316     1.992755     2.010182     2.101473     2.144060     2.185313
     2.632956     2.900598     3.401539     3.524923     3.546219     3.612638
     3.686712     3.865030     3.958021     3.971716     3.989998     4.034732
     4.225542     4.439292     4.515748     4.616839     4.720607     4.881277
     5.331450     5.488070     5.673070     6.144003     6.662244     6.850190
     6.912289     7.007595     7.084754     7.182515     7.498986     7.663017
     7.732374     8.046532     8.501991    14.079973

  Orbital Symmetry Irreps
a    a    a    a    a    a    a    a    a    a    a    a    a    a    a   
a    a    a    a    a    a    a    a    a    a    a    a    a    a    a   
a    a    a    a    a    a    a    a    a    a    a    a    a    a    a   
a    a    a    a    a    a    a    a    a    a    a    a    a   

 Integral file          = ./H2O.aoints.0
 Record size in doubles =  65536        No. of integs per rec  =  43688
 Max. records in memory =     49        Max. records in file   = 280376
 No. of bits per label  =      8        No. of bits per value  =     64


 #quartets = 3.213D+04 #integrals = 6.608D+05 #direct =  0.0% #cached =100.0%




          %%%%% MacroIteration   1 %%%%%


          Number of sigma calls:       15
                       o<<<<< (aa):             0.00
                       o<<<<< (bb):             0.00
                       o<<<<< (ab):             0.07
                       o<<<<< (total)           0.07
                       o<<<<< (aa) ff           0.00
                       o<<<<< (aa) gop          0.00
                       o<<<<< (aa) dot          0.00
                       o<<<<< (ab) str          0.00
                       o<<<<< (ab) gath         0.00
                       o<<<<< (ab) dotab        0.00
                       o<<<<< (ab) scat         0.00
                       o<<<<< (ab) sync         0.00
                       o<<<<< Density           0.01
                       o<<<<< Density one       0.00
                       o<<<<< Density two       0.00
                       o<<<<< Density ab        0.01
                       o<<<<< Spin adapt        0.44
                       o<<<<< Symm adapt        0.00

                       o<<<<< (ab) max sync:      0.00

           >>>| Valence CI:            -86.104745844439
           >>>| MCSCF energy:          -76.111065531833
           >>>| Gradient norm:          0.646544145D-01

                              ----- Line search ------

        step       energy         lsg     num-lsg   num-lsh   lsrat    time
      ------- ---------------- --------- --------- --------- ------- --------
       0.0000     -76.11106553 -3.10D-04  0.00D+00  0.00D+00 0.0D+00      1.4

          Number of sigma calls:       16
                       o<<<<< (aa):             0.00
                       o<<<<< (bb):             0.00
                       o<<<<< (ab):             0.10
                       o<<<<< (total)           0.10
                       o<<<<< (aa) ff           0.00
                       o<<<<< (aa) gop          0.00
                       o<<<<< (aa) dot          0.00
                       o<<<<< (ab) str          0.00
                       o<<<<< (ab) gath         0.00
                       o<<<<< (ab) dotab        0.00
                       o<<<<< (ab) scat         0.00
                       o<<<<< (ab) sync         0.00
                       o<<<<< Density           0.00
                       o<<<<< Density one       0.00
                       o<<<<< Density two       0.00
                       o<<<<< Density ab        0.00
                       o<<<<< Spin adapt        0.50
                       o<<<<< Symm adapt        0.00

                       o<<<<< (ab) max sync:      0.00
       1.0000     -76.11122527 -9.37D-06 -9.46D-06  3.01D-04 3.0D-02      2.1
     --- Orbitals canonicalized ---



          %%%%% MacroIteration   2 %%%%%


          Number of sigma calls:       12
                       o<<<<< (aa):             0.00
                       o<<<<< (bb):             0.01
                       o<<<<< (ab):             0.05
                       o<<<<< (total)           0.06
                       o<<<<< (aa) ff           0.00
                       o<<<<< (aa) gop          0.00
                       o<<<<< (aa) dot          0.00
                       o<<<<< (ab) str          0.00
                       o<<<<< (ab) gath         0.00
                       o<<<<< (ab) dotab        0.00
                       o<<<<< (ab) scat         0.00
                       o<<<<< (ab) sync         0.00
                       o<<<<< Density           0.02
                       o<<<<< Density one       0.01
                       o<<<<< Density two       0.00
                       o<<<<< Density ab        0.01
                       o<<<<< Spin adapt        0.29
                       o<<<<< Symm adapt        0.00

                       o<<<<< (ab) max sync:      0.00

           >>>| Valence CI:            -86.104905580220
           >>>| MCSCF energy:          -76.111225267612
           >>>| Gradient norm:          0.417543837D-02
     --- Warning:    2 Hessian diagonals < 0.05 ---
     --- Conjugacy reset ---

                              ----- Line search ------

        step       energy         lsg     num-lsg   num-lsh   lsrat    time
      ------- ---------------- --------- --------- --------- ------- --------
       0.0000     -76.11122527 -3.56D-06  0.00D+00  0.00D+00 0.0D+00      2.7

          Number of sigma calls:       11
                       o<<<<< (aa):             0.00
                       o<<<<< (bb):             0.01
                       o<<<<< (ab):             0.05
                       o<<<<< (total)           0.06
                       o<<<<< (aa) ff           0.00
                       o<<<<< (aa) gop          0.00
                       o<<<<< (aa) dot          0.00
                       o<<<<< (ab) str          0.00
                       o<<<<< (ab) gath         0.00
                       o<<<<< (ab) dotab        0.00
                       o<<<<< (ab) scat         0.00
                       o<<<<< (ab) sync         0.00
                       o<<<<< Density           0.01
                       o<<<<< Density one       0.00
                       o<<<<< Density two       0.00
                       o<<<<< Density ab        0.01
                       o<<<<< Spin adapt        0.32
                       o<<<<< Symm adapt        0.00

                       o<<<<< (ab) max sync:      0.00
       1.0000     -76.11122784 -1.58D-06 -1.58D-06  1.98D-06 4.4D-01      3.2

          Number of sigma calls:       11
                       o<<<<< (aa):             0.00
                       o<<<<< (bb):             0.00
                       o<<<<< (ab):             0.04
                       o<<<<< (total)           0.05
                       o<<<<< (aa) ff           0.00
                       o<<<<< (aa) gop          0.00
                       o<<<<< (aa) dot          0.00
                       o<<<<< (ab) str          0.00
                       o<<<<< (ab) gath         0.00
                       o<<<<< (ab) dotab        0.00
                       o<<<<< (ab) scat         0.00
                       o<<<<< (ab) sync         0.00
                       o<<<<< Density           0.01
                       o<<<<< Density one       0.01
                       o<<<<< Density two       0.00
                       o<<<<< Density ab        0.00
                       o<<<<< Spin adapt        0.25
                       o<<<<< Symm adapt        0.00

                       o<<<<< (ab) max sync:      0.00
       1.7993     -76.11122847 -1.28D-08 -1.18D-08  1.96D-06 3.6D-03      3.6



          %%%%% MacroIteration   3 %%%%%


          Number of sigma calls:        1
                       o<<<<< (aa):             0.00
                       o<<<<< (bb):             0.00
                       o<<<<< (ab):             0.00
                       o<<<<< (total)           0.00
                       o<<<<< (aa) ff           0.00
                       o<<<<< (aa) gop          0.00
                       o<<<<< (aa) dot          0.00
                       o<<<<< (ab) str          0.00
                       o<<<<< (ab) gath         0.00
                       o<<<<< (ab) dotab        0.00
                       o<<<<< (ab) scat         0.00
                       o<<<<< (ab) sync         0.00
                       o<<<<< Density           0.00
                       o<<<<< Density one       0.00
                       o<<<<< Density two       0.00
                       o<<<<< Density ab        0.00
                       o<<<<< Spin adapt        0.00
                       o<<<<< Symm adapt        0.00

                       o<<<<< (ab) max sync:      0.00

           >>>| Valence CI:            -86.104908783801
           >>>| MCSCF energy:          -76.111228471194
           >>>| Gradient norm:          0.143448327D-02
     --- Warning:    2 Hessian diagonals < 0.05 ---

                              ----- Line search ------

        step       energy         lsg     num-lsg   num-lsh   lsrat    time
      ------- ---------------- --------- --------- --------- ------- --------
       0.0000     -76.11122847 -8.34D-07  0.00D+00  0.00D+00 0.0D+00      3.8

          Number of sigma calls:       11
                       o<<<<< (aa):             0.00
                       o<<<<< (bb):             0.00
                       o<<<<< (ab):             0.05
                       o<<<<< (total)           0.06
                       o<<<<< (aa) ff           0.00
                       o<<<<< (aa) gop          0.00
                       o<<<<< (aa) dot          0.00
                       o<<<<< (ab) str          0.00
                       o<<<<< (ab) gath         0.00
                       o<<<<< (ab) dotab        0.00
                       o<<<<< (ab) scat         0.00
                       o<<<<< (ab) sync         0.00
                       o<<<<< Density           0.00
                       o<<<<< Density one       0.00
                       o<<<<< Density two       0.00
                       o<<<<< Density ab        0.00
                       o<<<<< Spin adapt        0.24
                       o<<<<< Symm adapt        0.00

                       o<<<<< (ab) max sync:      0.00
       1.0000     -76.11122914 -4.96D-07 -4.96D-07  3.38D-07 5.9D-01      4.3

          Number of sigma calls:       11
                       o<<<<< (aa):             0.00
                       o<<<<< (bb):             0.00
                       o<<<<< (ab):             0.05
                       o<<<<< (total)           0.05
                       o<<<<< (aa) ff           0.00
                       o<<<<< (aa) gop          0.00
                       o<<<<< (aa) dot          0.00
                       o<<<<< (ab) str          0.00
                       o<<<<< (ab) gath         0.00
                       o<<<<< (ab) dotab        0.00
                       o<<<<< (ab) scat         0.00
                       o<<<<< (ab) sync         0.00
                       o<<<<< Density           0.00
                       o<<<<< Density one       0.00
                       o<<<<< Density two       0.00
                       o<<<<< Density ab        0.00
                       o<<<<< Spin adapt        0.27
                       o<<<<< Symm adapt        0.00

                       o<<<<< (ab) max sync:      0.00
       2.4657     -76.11122950 -1.54D-09 -1.39D-09  3.37D-07 1.8D-03      4.7



          %%%%% MacroIteration   4 %%%%%


          Number of sigma calls:        1
                       o<<<<< (aa):             0.00
                       o<<<<< (bb):             0.00
                       o<<<<< (ab):             0.01
                       o<<<<< (total)           0.01
                       o<<<<< (aa) ff           0.00
                       o<<<<< (aa) gop          0.00
                       o<<<<< (aa) dot          0.00
                       o<<<<< (ab) str          0.00
                       o<<<<< (ab) gath         0.00
                       o<<<<< (ab) dotab        0.00
                       o<<<<< (ab) scat         0.00
                       o<<<<< (ab) sync         0.00
                       o<<<<< Density           0.01
                       o<<<<< Density one       0.00
                       o<<<<< Density two       0.00
                       o<<<<< Density ab        0.01
                       o<<<<< Spin adapt        0.00
                       o<<<<< Symm adapt        0.00

                       o<<<<< (ab) max sync:      0.00

           >>>| Valence CI:            -86.104909812972
           >>>| MCSCF energy:          -76.111229500366
           >>>| Gradient norm:          0.155390758D-02
     --- Warning:    2 Hessian diagonals < 0.05 ---

                              ----- Line search ------

        step       energy         lsg     num-lsg   num-lsh   lsrat    time
      ------- ---------------- --------- --------- --------- ------- --------
       0.0000     -76.11122950 -5.96D-07  0.00D+00  0.00D+00 0.0D+00      4.9

          Number of sigma calls:       11
                       o<<<<< (aa):             0.00
                       o<<<<< (bb):             0.01
                       o<<<<< (ab):             0.06
                       o<<<<< (total)           0.06
                       o<<<<< (aa) ff           0.00
                       o<<<<< (aa) gop          0.00
                       o<<<<< (aa) dot          0.00
                       o<<<<< (ab) str          0.00
                       o<<<<< (ab) gath         0.00
                       o<<<<< (ab) dotab        0.00
                       o<<<<< (ab) scat         0.00
                       o<<<<< (ab) sync         0.00
                       o<<<<< Density           0.01
                       o<<<<< Density one       0.01
                       o<<<<< Density two       0.00
                       o<<<<< Density ab        0.00
                       o<<<<< Spin adapt        0.30
                       o<<<<< Symm adapt        0.00

                       o<<<<< (ab) max sync:      0.00
       1.0000     -76.11122999 -3.74D-07 -3.74D-07  2.22D-07 6.3D-01      5.4

          Number of sigma calls:       11
                       o<<<<< (aa):             0.01
                       o<<<<< (bb):             0.00
                       o<<<<< (ab):             0.06
                       o<<<<< (total)           0.07
                       o<<<<< (aa) ff           0.00
                       o<<<<< (aa) gop          0.00
                       o<<<<< (aa) dot          0.00
                       o<<<<< (ab) str          0.00
                       o<<<<< (ab) gath         0.00
                       o<<<<< (ab) dotab        0.00
                       o<<<<< (ab) scat         0.00
                       o<<<<< (ab) sync         0.00
                       o<<<<< Density           0.01
                       o<<<<< Density one       0.00
                       o<<<<< Density two       0.00
                       o<<<<< Density ab        0.01
                       o<<<<< Spin adapt        0.36
                       o<<<<< Symm adapt        0.00

                       o<<<<< (ab) max sync:      0.00
       2.6853     -76.11123030 -4.69D-09 -4.20D-09  2.19D-07 7.9D-03      6.0



          %%%%% MacroIteration   5 %%%%%


          Number of sigma calls:        1
                       o<<<<< (aa):             0.00
                       o<<<<< (bb):             0.00
                       o<<<<< (ab):             0.00
                       o<<<<< (total)           0.00
                       o<<<<< (aa) ff           0.00
                       o<<<<< (aa) gop          0.00
                       o<<<<< (aa) dot          0.00
                       o<<<<< (ab) str          0.00
                       o<<<<< (ab) gath         0.00
                       o<<<<< (ab) dotab        0.00
                       o<<<<< (ab) scat         0.00
                       o<<<<< (ab) sync         0.00
                       o<<<<< Density           0.02
                       o<<<<< Density one       0.01
                       o<<<<< Density two       0.00
                       o<<<<< Density ab        0.01
                       o<<<<< Spin adapt        0.00
                       o<<<<< Symm adapt        0.00

                       o<<<<< (ab) max sync:      0.00

           >>>| Valence CI:            -86.104910616048
           >>>| MCSCF energy:          -76.111230303441
           >>>| Gradient norm:          0.852687521D-03
     --- Warning:    2 Hessian diagonals < 0.05 ---

                              ----- Line search ------

        step       energy         lsg     num-lsg   num-lsh   lsrat    time
      ------- ---------------- --------- --------- --------- ------- --------
       0.0000     -76.11123030 -9.23D-08  0.00D+00  0.00D+00 0.0D+00      6.1

          Number of sigma calls:       10
                       o<<<<< (aa):             0.00
                       o<<<<< (bb):             0.00
                       o<<<<< (ab):             0.05
                       o<<<<< (total)           0.05
                       o<<<<< (aa) ff           0.00
                       o<<<<< (aa) gop          0.00
                       o<<<<< (aa) dot          0.00
                       o<<<<< (ab) str          0.00
                       o<<<<< (ab) gath         0.00
                       o<<<<< (ab) dotab        0.00
                       o<<<<< (ab) scat         0.00
                       o<<<<< (ab) sync         0.00
                       o<<<<< Density           0.01
                       o<<<<< Density one       0.00
                       o<<<<< Density two       0.00
                       o<<<<< Density ab        0.01
                       o<<<<< Spin adapt        0.24
                       o<<<<< Symm adapt        0.00

                       o<<<<< (ab) max sync:      0.00
       1.0000     -76.11123036 -2.69D-08 -2.69D-08  6.54D-08 2.9D-01      6.6

          Number of sigma calls:        9
                       o<<<<< (aa):             0.00
                       o<<<<< (bb):             0.00
                       o<<<<< (ab):             0.04
                       o<<<<< (total)           0.04
                       o<<<<< (aa) ff           0.00
                       o<<<<< (aa) gop          0.00
                       o<<<<< (aa) dot          0.00
                       o<<<<< (ab) str          0.00
                       o<<<<< (ab) gath         0.00
                       o<<<<< (ab) dotab        0.00
                       o<<<<< (ab) scat         0.00
                       o<<<<< (ab) sync         0.00
                       o<<<<< Density           0.01
                       o<<<<< Density one       0.01
                       o<<<<< Density two       0.00
                       o<<<<< Density ab        0.00
                       o<<<<< Spin adapt        0.37
                       o<<<<< Symm adapt        0.00

                       o<<<<< (ab) max sync:      0.00
       1.4116     -76.11123037 -2.67D-11 -2.44D-11  6.53D-08 2.9D-04      7.1



          %%%%% MacroIteration   6 %%%%%


          Number of sigma calls:        1
                       o<<<<< (aa):             0.00
                       o<<<<< (bb):             0.00
                       o<<<<< (ab):             0.01
                       o<<<<< (total)           0.01
                       o<<<<< (aa) ff           0.00
                       o<<<<< (aa) gop          0.00
                       o<<<<< (aa) dot          0.00
                       o<<<<< (ab) str          0.00
                       o<<<<< (ab) gath         0.00
                       o<<<<< (ab) dotab        0.00
                       o<<<<< (ab) scat         0.00
                       o<<<<< (ab) sync         0.00
                       o<<<<< Density           0.00
                       o<<<<< Density one       0.00
                       o<<<<< Density two       0.00
                       o<<<<< Density ab        0.00
                       o<<<<< Spin adapt        0.00
                       o<<<<< Symm adapt        0.00

                       o<<<<< (ab) max sync:      0.00

           >>>| Valence CI:            -86.104910681184
           >>>| MCSCF energy:          -76.111230368577
           >>>| Gradient norm:          0.925515644D-04




     ==============================
            MCSCF Converged
     ==============================



          Canonical Eigenvalues

              1      
    1  -20.5284
    2   -1.3983
    3   -0.7869
    4   -0.5953
    5   -0.5327
    6   -0.0256
    7   -0.0191
    8   -0.0159
    9    0.2716
   10    0.3339
   11    0.6248
   12    0.6542
   13    0.8099
   14    0.8599
   15    0.9739
   16    1.0634
   17    1.2193
   18    1.3665
   19    1.6033
   20    1.9902
   21    2.0110
   22    2.1045
   23    2.1441
   24    2.1830
   25    2.6378
   26    2.9044
   27    3.4029
   28    3.5247
   29    3.5516
   30    3.6207
   31    3.6993
   32    3.8632
   33    3.9634
   34    3.9792
   35    3.9901
   36    4.0323
   37    4.2367
   38    4.4530
   39    4.5310
   40    4.6504
   41    4.7342
   42    4.8788
   43    5.3448
   44    5.5180
   45    5.7484
   46    6.1702
   47    6.6836
   48    6.8295
   49    6.9105
   50    7.0080
   51    7.0833
   52    7.2022
   53    7.5002
   54    7.7556
   55    7.8438
   56    8.1036
   57    8.5598
   58   14.3045


          Converged CI vector

   Index           Coefficient          Config. Occupation
         1          0.97970687          1  2  3  4  5  1  2  3  4  5
        22         -0.06627236          1  2  3  4  5  1  2  3  4  8
         3          0.03242919          1  2  3  4  5  1  2  3  5  6
         8          0.02733129          1  2  3  4  5  1  2  3  5  7
         4          0.02631259          1  2  3  4  5  1  2  4  5  6
         9         -0.02848482          1  2  3  4  5  1  2  4  5  7
      1177         -0.06627236          1  2  3  4  8  1  2  3  4  5
      1198         -0.05069181          1  2  3  4  8  1  2  3  4  8
      1179          0.02142941          1  2  3  4  8  1  2  3  5  6
      1180          0.02412767          1  2  3  4  8  1  2  4  5  6
      1185         -0.02481512          1  2  3  4  8  1  2  4  5  7
       113          0.03242919          1  2  3  5  6  1  2  3  4  5
       134          0.02142941          1  2  3  5  6  1  2  3  4  8
       115         -0.03459142          1  2  3  5  6  1  2  3  5  6
       116         -0.02927817          1  2  3  5  6  1  2  4  5  6
       393          0.02733129          1  2  3  5  7  1  2  3  4  5
       169          0.02631259          1  2  4  5  6  1  2  3  4  5
       190          0.02412767          1  2  4  5  6  1  2  3  4  8
       171         -0.02927817          1  2  4  5  6  1  2  3  5  6
       172         -0.04206102          1  2  4  5  6  1  2  4  5  6
       173          0.02108570          1  2  4  5  6  1  3  4  5  6
       449         -0.02848482          1  2  4  5  7  1  2  3  4  5
       470         -0.02481512          1  2  4  5  7  1  2  3  4  8
       457         -0.03236386          1  2  4  5  7  1  2  4  5  7
       228          0.02108570          1  3  4  5  6  1  2  4  5  6

          Number of sigma calls:        1
                       o<<<<< (aa):             0.00
                       o<<<<< (bb):             0.00
                       o<<<<< (ab):             0.00
                       o<<<<< (total)           0.00
                       o<<<<< (aa) ff           0.00
                       o<<<<< (aa) gop          0.00
                       o<<<<< (aa) dot          0.00
                       o<<<<< (ab) str          0.00
                       o<<<<< (ab) gath         0.00
                       o<<<<< (ab) dotab        0.00
                       o<<<<< (ab) scat         0.00
                       o<<<<< (ab) sync         0.00
                       o<<<<< Density           0.02
                       o<<<<< Density one       0.01
                       o<<<<< Density two       0.00
                       o<<<<< Density ab        0.01
                       o<<<<< Spin adapt        0.00
                       o<<<<< Symm adapt        0.00

                       o<<<<< (ab) max sync:      0.00



          Natural orbital occupation numbers

              1      
    1    2.0000
    2    1.9992
    3    1.9850
    4    1.9838
    5    1.9780
    6    0.0227
    7    0.0160
    8    0.0154


          Number of sigma calls:       15
                       o<<<<< (aa):             0.00
                       o<<<<< (bb):             0.01
                       o<<<<< (ab):             0.07
                       o<<<<< (total)           0.08
                       o<<<<< (aa) ff           0.00
                       o<<<<< (aa) gop          0.00
                       o<<<<< (aa) dot          0.00
                       o<<<<< (ab) str          0.00
                       o<<<<< (ab) gath         0.00
                       o<<<<< (ab) dotab        0.00
                       o<<<<< (ab) scat         0.00
                       o<<<<< (ab) sync         0.00
                       o<<<<< Density           0.02
                       o<<<<< Density one       0.01
                       o<<<<< Density two       0.00
                       o<<<<< Density ab        0.01
                       o<<<<< Spin adapt        0.37
                       o<<<<< Symm adapt        0.00

                       o<<<<< (ab) max sync:      0.00


       Final MCSCF results 
       ------------------- 

       Total MCSCF energy =    -76.111230368576
            Gradient norm =      9.3D-05

    CPU time for solution =      7.8s
   Wall time for solution =     13.0s



                        Analysis of MCSCF natural orbitals
                        ----------------------------------

 Vector    1  Occ=1.999987D+00  E=-2.052836D+01  Symmetry=a
              MO Center= -9.2D-02, -4.6D-02, -7.3D-10, r^2= 1.9D-02
   Bfn.  Coefficient  Atom+Function         Bfn.  Coefficient  Atom+Function  
  ----- ------------  ---------------      ----- ------------  ---------------
     1      0.969254  1 O  s          

 Vector    2  Occ=1.999183D+00  E=-1.398259D+00  Symmetry=a
              MO Center= -3.1D-01, -1.4D-01, -1.1D-07, r^2= 4.2D-01
   Bfn.  Coefficient  Atom+Function         Bfn.  Coefficient  Atom+Function  
  ----- ------------  ---------------      ----- ------------  ---------------
     2      0.502991  1 O  s                  4      0.368817  1 O  s          

 Vector    3  Occ=1.984960D+00  E=-7.869404D-01  Symmetry=a
              MO Center= -4.5D-02,  2.8D-01,  2.2D-07, r^2= 5.4D-01
   Bfn.  Coefficient  Atom+Function         Bfn.  Coefficient  Atom+Function  
  ----- ------------  ---------------      ----- ------------  ---------------
     9      0.330841  1 O  py                 6      0.301306  1 O  py         
    32      0.257314  2 H  s                 31      0.215097  2 H  s          
    12      0.171008  1 O  py         

 Vector    4  Occ=1.983783D+00  E=-5.952597D-01  Symmetry=a
              MO Center= -6.4D-02, -2.3D-02, -1.2D-06, r^2= 6.4D-01
   Bfn.  Coefficient  Atom+Function         Bfn.  Coefficient  Atom+Function  
  ----- ------------  ---------------      ----- ------------  ---------------
    10      0.428615  1 O  pz                13      0.381802  1 O  pz         
     7      0.358154  1 O  pz         

 Vector    5  Occ=1.977988D+00  E=-5.326597D-01  Symmetry=a
              MO Center=  3.5D-01, -1.6D-01,  6.9D-08, r^2= 5.8D-01
   Bfn.  Coefficient  Atom+Function         Bfn.  Coefficient  Atom+Function  
  ----- ------------  ---------------      ----- ------------  ---------------
     8      0.328868  1 O  px                 5      0.274268  1 O  px         
    46      0.262959  3 H  s                 11      0.188203  1 O  px         
    45      0.184649  3 H  s          

 Vector    6  Occ=2.269554D-02  E=-2.560172D-02  Symmetry=a
              MO Center=  5.0D-01, -2.1D-01,  1.6D-07, r^2= 6.1D-01
   Bfn.  Coefficient  Atom+Function         Bfn.  Coefficient  Atom+Function  
  ----- ------------  ---------------      ----- ------------  ---------------
    46      0.667350  3 H  s                  5     -0.528347  1 O  px         
     8     -0.419032  1 O  px                 2     -0.324973  1 O  s          
    45      0.303069  3 H  s                  3     -0.172261  1 O  s          
     4     -0.154092  1 O  s          

 Vector    7  Occ=1.601529D-02  E=-1.908811D-02  Symmetry=a
              MO Center= -1.6D-03,  5.7D-03, -1.5D-06, r^2= 1.1D+00
   Bfn.  Coefficient  Atom+Function         Bfn.  Coefficient  Atom+Function  
  ----- ------------  ---------------      ----- ------------  ---------------
    13      0.750084  1 O  pz                 7     -0.672784  1 O  pz         
    10     -0.278808  1 O  pz         

 Vector    8  Occ=1.538832D-02  E=-1.594157D-02  Symmetry=a
              MO Center= -8.3D-03,  4.4D-01,  9.4D-07, r^2= 6.7D-01
   Bfn.  Coefficient  Atom+Function         Bfn.  Coefficient  Atom+Function  
  ----- ------------  ---------------      ----- ------------  ---------------
    32      0.692132  2 H  s                  6     -0.620082  1 O  py         
     9     -0.343666  1 O  py                 4     -0.321904  1 O  s          
    31      0.275046  2 H  s                  2     -0.219265  1 O  s          
    12      0.180640  1 O  py         

 Vector    9  Occ=0.000000D+00  E= 2.716106D-01  Symmetry=a
              MO Center=  2.0D-02,  4.5D-01, -1.8D-07, r^2= 4.6D+00
   Bfn.  Coefficient  Atom+Function         Bfn.  Coefficient  Atom+Function  
  ----- ------------  ---------------      ----- ------------  ---------------
     4      2.895832  1 O  s                 33     -1.574698  2 H  s          
    32     -1.014156  2 H  s                 12      0.836453  1 O  py         
    47     -0.754093  3 H  s                 38      0.646978  2 H  py         
    11      0.611412  1 O  px                51      0.351860  3 H  px         
    46     -0.286972  3 H  s          

 Vector   10  Occ=0.000000D+00  E= 3.339422D-01  Symmetry=a
              MO Center=  8.1D-01, -3.7D-02, -3.5D-08, r^2= 5.3D+00
   Bfn.  Coefficient  Atom+Function         Bfn.  Coefficient  Atom+Function  
  ----- ------------  ---------------      ----- ------------  ---------------
    47      2.312771  3 H  s                 33     -2.000482  2 H  s          
    12      0.771531  1 O  py                11     -0.529327  1 O  px         
    46     -0.374331  3 H  s                 51     -0.350596  3 H  px         
    38      0.333182  2 H  py         

 Vector   11  Occ=0.000000D+00  E= 6.247885D-01  Symmetry=a
              MO Center=  2.3D-01, -9.4D-02,  5.4D-07, r^2= 2.1D+00
   Bfn.  Coefficient  Atom+Function         Bfn.  Coefficient  Atom+Function  
  ----- ------------  ---------------      ----- ------------  ---------------
    32     -3.895876  2 H  s                  4      3.648001  1 O  s          
    12      2.153046  1 O  py                46     -1.072010  3 H  s          
    38      0.633798  2 H  py                11      0.615026  1 O  px         
    47      0.315061  3 H  s                  9      0.270758  1 O  py         
     2      0.238410  1 O  s                 51      0.239256  3 H  px         

 Vector   12  Occ=0.000000D+00  E= 6.541935D-01  Symmetry=a
              MO Center= -3.9D-01,  5.4D-02,  4.1D-08, r^2= 2.4D+00
   Bfn.  Coefficient  Atom+Function         Bfn.  Coefficient  Atom+Function  
  ----- ------------  ---------------      ----- ------------  ---------------
    46      3.068144  3 H  s                 11     -2.436912  1 O  px         
    12      1.731275  1 O  py                 4     -1.452335  1 O  s          
    32     -0.910996  2 H  s                 33     -0.912816  2 H  s          
    51     -0.906946  3 H  px                47      0.802620  3 H  s          
    52      0.329515  3 H  py                38      0.317199  2 H  py         

 Vector   13  Occ=0.000000D+00  E= 8.099028D-01  Symmetry=a
              MO Center= -1.6D-01, -1.7D-01, -3.8D-08, r^2= 2.1D+00
   Bfn.  Coefficient  Atom+Function         Bfn.  Coefficient  Atom+Function  
  ----- ------------  ---------------      ----- ------------  ---------------
     4      1.663691  1 O  s                 32     -1.629444  2 H  s          
    11      1.538497  1 O  px                12      1.266361  1 O  py         
    37     -1.064675  2 H  px                46     -1.033530  3 H  s          
    52     -0.948046  3 H  py                19      0.245292  1 O  d -2       
    38      0.237226  2 H  py                 2      0.188666  1 O  s          

 Vector   14  Occ=0.000000D+00  E= 8.598893D-01  Symmetry=a
              MO Center=  4.4D-01,  8.6D-02, -4.4D-08, r^2= 1.7D+00
   Bfn.  Coefficient  Atom+Function         Bfn.  Coefficient  Atom+Function  
  ----- ------------  ---------------      ----- ------------  ---------------
    53      0.943964  3 H  pz                39     -0.827466  2 H  pz         

 Vector   15  Occ=0.000000D+00  E= 9.739460D-01  Symmetry=a
              MO Center= -1.4D-02,  8.7D-02, -9.8D-07, r^2= 2.0D+00
   Bfn.  Coefficient  Atom+Function         Bfn.  Coefficient  Atom+Function  
  ----- ------------  ---------------      ----- ------------  ---------------
    13      1.444210  1 O  pz                39     -1.290784  2 H  pz         
    53     -0.890019  3 H  pz         

 Vector   16  Occ=0.000000D+00  E= 1.063449D+00  Symmetry=a
              MO Center= -1.6D-01, -1.2D-02,  1.8D-06, r^2= 2.1D+00
   Bfn.  Coefficient  Atom+Function         Bfn.  Coefficient  Atom+Function  
  ----- ------------  ---------------      ----- ------------  ---------------
     4      8.100516  1 O  s                 32     -4.825167  2 H  s          
    46     -2.166153  3 H  s                 38      2.017227  2 H  py         
    12      1.799100  1 O  py                33     -1.094184  2 H  s          
     9      0.957754  1 O  py                11      0.937913  1 O  px         
    51      0.739626  3 H  px                52     -0.684663  3 H  py         

 Vector   17  Occ=0.000000D+00  E= 1.219275D+00  Symmetry=a
              MO Center=  2.5D-01,  1.6D-01,  5.8D-10, r^2= 2.1D+00
   Bfn.  Coefficient  Atom+Function         Bfn.  Coefficient  Atom+Function  
  ----- ------------  ---------------      ----- ------------  ---------------
    37      1.439666  2 H  px                12      1.370108  1 O  py         
    11     -1.297301  1 O  px                46      1.153202  3 H  s          
    52     -0.997326  3 H  py                 4     -0.741810  1 O  s          
    32     -0.564538  2 H  s                 51     -0.544974  3 H  px         
    38     -0.256691  2 H  py                 8     -0.237185  1 O  px         

 Vector   18  Occ=0.000000D+00  E= 1.366521D+00  Symmetry=a
              MO Center=  1.1D+00, -5.2D-01, -2.3D-08, r^2= 1.3D+00
   Bfn.  Coefficient  Atom+Function         Bfn.  Coefficient  Atom+Function  
  ----- ------------  ---------------      ----- ------------  ---------------
    51      2.628812  3 H  px                46     -2.331784  3 H  s          
     4      2.083207  1 O  s                 11      1.274981  1 O  px         
    47     -1.159053  3 H  s                 12     -0.885512  1 O  py         
    52     -0.882524  3 H  py                 8      0.805702  1 O  px         
    32      0.804114  2 H  s                  9     -0.604819  1 O  py         


 Wrote Lagrangian and 1- and 2-particle density matrices to ./H2O.mcpdm


     Multipole analysis of the density
     ---------------------------------

     L   x y z        total        nuclear
     -   - - -        -----        -------
     0   0 0 0     -0.000000     10.000000

     1   1 0 0      0.600864     -0.000000
     1   0 1 0      0.344793      0.000000
     1   0 0 1      0.000004      0.000000

     2   2 0 0     -3.978617      2.679864
     2   1 1 0     -0.777455     -1.268134
     2   1 0 1      0.000000      0.000000
     2   0 2 0     -3.738626      2.631222
     2   0 1 1      0.000001      0.000000
     2   0 0 2     -5.363726      0.000000


  Mulliken analysis of the total density
  --------------------------------------

    Atom       Charge   Shell Charges
 -----------   ------   -------------------------------------------------------
    1 O    8     8.42   1.95  0.98  0.23  0.58  1.33  2.09  1.24  0.00  0.01  0.00
    2 H    1     0.82   0.34  0.34  0.02  0.04  0.07  0.01
    3 H    1     0.76   0.25  0.38  0.05  0.02  0.06  0.01

    Mulliken analysis of the active space density
    ---------------------------------------------

    Atom       Charge   Shell Charges
 -----------   ------   -------------------------------------------------------
    1 O    8     8.42   1.95  0.98  0.23  0.58  1.33  2.09  1.24  0.00  0.01  0.00
    2 H    1     0.82   0.34  0.34  0.02  0.04  0.07  0.01
    3 H    1     0.76   0.25  0.38  0.05  0.02  0.06  0.01

 Parallel integral file used      16 records with       0 large values


 Task  times  cpu:        7.8s     wall:       13.1s


                                NWChem Input Module
                                -------------------


                                 NWChem SCF Module
                                 -----------------


                                        H2O



  ao basis        = "ao basis"
  functions       =    58
  atoms           =     3
  closed shells   =     5
  open shells     =     0
  charge          =   0.00
  wavefunction    = RHF 
  input vectors   = ./h2o.mos
  output vectors  = ./h2o-trash.mos
  use symmetry    = F
  symmetry adapt  = F


 Summary of "ao basis" -> "ao basis" (spherical)
 ------------------------------------------------------------------------------
       Tag                 Description            Shells   Functions and Types
 ---------------- ------------------------------  ------  ---------------------
 O                          cc-pVTZ                 10       30   4s3p2d1f
 H                          cc-pVTZ                  6       14   3s2p1d



 Forming initial guess at      13.1s


 Loading old vectors from job with title :

H2O


 Starting SCF solution at      13.1s



 ----------------------------------------------
         Quadratically convergent ROHF

 Convergence threshold     :          1.000E-04
 Maximum no. of iterations :           30
 Final Fock-matrix accuracy:          1.000E-07
 ----------------------------------------------


 Integral file          = ./H2O.aoints.0
 Record size in doubles =  65536        No. of integs per rec  =  43688
 Max. records in memory =     49        Max. records in file   = 280414
 No. of bits per label  =      8        No. of bits per value  =     64


 #quartets = 3.213D+04 #integrals = 6.608D+05 #direct =  0.0% #cached =100.0%



       Final RHF  results 
       ------------------ 

         Total SCF energy =    -76.024194576810
      One-electron energy =   -124.460166278699
      Two-electron energy =     38.442291389281
 Nuclear repulsion energy =      9.993680312607

        Time for solution =      0.1s


             Final eigenvalues
             -----------------

              1      
    1  -20.5284
    2   -1.3983
    3   -0.7869
    4   -0.5953
    5   -0.5327
    6   -0.0256
    7   -0.0191
    8   -0.0159
    9    0.2716
   10    0.3339
   11    0.6248
   12    0.6542
   13    0.8099
   14    0.8599
   15    0.9739

                       ROHF Final Molecular Orbital Analysis
                       -------------------------------------

 Vector    2  Occ=2.000000D+00  E=-1.398259D+00
              MO Center= -3.1D-01, -1.4D-01, -1.1D-07, r^2= 4.2D-01
   Bfn.  Coefficient  Atom+Function         Bfn.  Coefficient  Atom+Function  
  ----- ------------  ---------------      ----- ------------  ---------------
     2      0.502991  1 O  s                  4      0.368817  1 O  s          

 Vector    3  Occ=2.000000D+00  E=-7.869404D-01
              MO Center= -4.5D-02,  2.8D-01,  2.2D-07, r^2= 5.4D-01
   Bfn.  Coefficient  Atom+Function         Bfn.  Coefficient  Atom+Function  
  ----- ------------  ---------------      ----- ------------  ---------------
     9      0.330841  1 O  py                 6      0.301306  1 O  py         
    32      0.257314  2 H  s                 31      0.215097  2 H  s          
    12      0.171008  1 O  py         

 Vector    4  Occ=2.000000D+00  E=-5.952597D-01
              MO Center= -6.4D-02, -2.3D-02, -1.2D-06, r^2= 6.4D-01
   Bfn.  Coefficient  Atom+Function         Bfn.  Coefficient  Atom+Function  
  ----- ------------  ---------------      ----- ------------  ---------------
    10      0.428615  1 O  pz                13      0.381802  1 O  pz         
     7      0.358154  1 O  pz         

 Vector    5  Occ=2.000000D+00  E=-5.326597D-01
              MO Center=  3.5D-01, -1.6D-01,  6.9D-08, r^2= 5.8D-01
   Bfn.  Coefficient  Atom+Function         Bfn.  Coefficient  Atom+Function  
  ----- ------------  ---------------      ----- ------------  ---------------
     8      0.328868  1 O  px                 5      0.274268  1 O  px         
    46      0.262959  3 H  s                 11      0.188203  1 O  px         
    45      0.184649  3 H  s          

 Vector    6  Occ=0.000000D+00  E=-2.560172D-02
              MO Center=  5.0D-01, -2.1D-01,  1.6D-07, r^2= 6.1D-01
   Bfn.  Coefficient  Atom+Function         Bfn.  Coefficient  Atom+Function  
  ----- ------------  ---------------      ----- ------------  ---------------
    46      0.667350  3 H  s                  5     -0.528347  1 O  px         
     8     -0.419032  1 O  px                 2     -0.324973  1 O  s          
    45      0.303069  3 H  s                  3     -0.172261  1 O  s          
     4     -0.154092  1 O  s          

 Vector    7  Occ=0.000000D+00  E=-1.908811D-02
              MO Center= -1.6D-03,  5.7D-03, -1.5D-06, r^2= 1.1D+00
   Bfn.  Coefficient  Atom+Function         Bfn.  Coefficient  Atom+Function  
  ----- ------------  ---------------      ----- ------------  ---------------
    13      0.750084  1 O  pz                 7     -0.672784  1 O  pz         
    10     -0.278808  1 O  pz         

 Vector    8  Occ=0.000000D+00  E=-1.594157D-02
              MO Center= -8.3D-03,  4.4D-01,  9.4D-07, r^2= 6.7D-01
   Bfn.  Coefficient  Atom+Function         Bfn.  Coefficient  Atom+Function  
  ----- ------------  ---------------      ----- ------------  ---------------
    32      0.692132  2 H  s                  6     -0.620082  1 O  py         
     9     -0.343666  1 O  py                 4     -0.321904  1 O  s          
    31      0.275046  2 H  s                  2     -0.219265  1 O  s          
    12      0.180640  1 O  py         

 Vector    9  Occ=0.000000D+00  E= 2.716106D-01
              MO Center=  2.0D-02,  4.5D-01, -1.8D-07, r^2= 4.6D+00
   Bfn.  Coefficient  Atom+Function         Bfn.  Coefficient  Atom+Function  
  ----- ------------  ---------------      ----- ------------  ---------------
     4      2.895832  1 O  s                 33     -1.574698  2 H  s          
    32     -1.014156  2 H  s                 12      0.836453  1 O  py         
    47     -0.754093  3 H  s                 38      0.646978  2 H  py         
    11      0.611412  1 O  px                51      0.351860  3 H  px         
    46     -0.286972  3 H  s          

 Vector   10  Occ=0.000000D+00  E= 3.339422D-01
              MO Center=  8.1D-01, -3.7D-02, -3.5D-08, r^2= 5.3D+00
   Bfn.  Coefficient  Atom+Function         Bfn.  Coefficient  Atom+Function  
  ----- ------------  ---------------      ----- ------------  ---------------
    47      2.312771  3 H  s                 33     -2.000482  2 H  s          
    12      0.771531  1 O  py                11     -0.529327  1 O  px         
    46     -0.374331  3 H  s                 51     -0.350596  3 H  px         
    38      0.333182  2 H  py         

 Vector   11  Occ=0.000000D+00  E= 6.247885D-01
              MO Center=  2.3D-01, -9.4D-02,  5.4D-07, r^2= 2.1D+00
   Bfn.  Coefficient  Atom+Function         Bfn.  Coefficient  Atom+Function  
  ----- ------------  ---------------      ----- ------------  ---------------
    32     -3.895876  2 H  s                  4      3.648001  1 O  s          
    12      2.153046  1 O  py                46     -1.072010  3 H  s          
    38      0.633798  2 H  py                11      0.615026  1 O  px         
    47      0.315061  3 H  s                  9      0.270758  1 O  py         
     2      0.238410  1 O  s                 51      0.239256  3 H  px         

 Vector   12  Occ=0.000000D+00  E= 6.541935D-01
              MO Center= -3.9D-01,  5.4D-02,  4.1D-08, r^2= 2.4D+00
   Bfn.  Coefficient  Atom+Function         Bfn.  Coefficient  Atom+Function  
  ----- ------------  ---------------      ----- ------------  ---------------
    46      3.068144  3 H  s                 11     -2.436912  1 O  px         
    12      1.731275  1 O  py                 4     -1.452335  1 O  s          
    32     -0.910996  2 H  s                 33     -0.912816  2 H  s          
    51     -0.906946  3 H  px                47      0.802620  3 H  s          
    52      0.329515  3 H  py                38      0.317199  2 H  py         

 Vector   13  Occ=0.000000D+00  E= 8.099028D-01
              MO Center= -1.6D-01, -1.7D-01, -3.8D-08, r^2= 2.1D+00
   Bfn.  Coefficient  Atom+Function         Bfn.  Coefficient  Atom+Function  
  ----- ------------  ---------------      ----- ------------  ---------------
     4      1.663691  1 O  s                 32     -1.629444  2 H  s          
    11      1.538497  1 O  px                12      1.266361  1 O  py         
    37     -1.064675  2 H  px                46     -1.033530  3 H  s          
    52     -0.948046  3 H  py                19      0.245292  1 O  d -2       
    38      0.237226  2 H  py                 2      0.188666  1 O  s          

 Vector   14  Occ=0.000000D+00  E= 8.598893D-01
              MO Center=  4.4D-01,  8.6D-02, -4.4D-08, r^2= 1.7D+00
   Bfn.  Coefficient  Atom+Function         Bfn.  Coefficient  Atom+Function  
  ----- ------------  ---------------      ----- ------------  ---------------
    53      0.943964  3 H  pz                39     -0.827466  2 H  pz         

 Vector   15  Occ=0.000000D+00  E= 9.739460D-01
              MO Center= -1.4D-02,  8.7D-02, -9.8D-07, r^2= 2.0D+00
   Bfn.  Coefficient  Atom+Function         Bfn.  Coefficient  Atom+Function  
  ----- ------------  ---------------      ----- ------------  ---------------
    13      1.444210  1 O  pz                39     -1.290784  2 H  pz         
    53     -0.890019  3 H  pz         


 center of mass
 --------------
 x =  -0.07599894 y =  -0.03801000 z =   0.00000000

 moments of inertia (a.u.)
 ------------------
           2.684872022661           1.211954363497           0.000000000000
           1.211954363497           2.833002082974           0.000000000000
           0.000000000000           0.000000000000           5.517874105635

  Mulliken analysis of the total density
  --------------------------------------

    Atom       Charge   Shell Charges
 -----------   ------   -------------------------------------------------------
    1 O    8     8.43   1.95  0.98  0.23  0.58  1.32  2.11  1.24  0.00  0.01  0.00
    2 H    1     0.82   0.34  0.34  0.02  0.04  0.07  0.01
    3 H    1     0.75   0.25  0.38  0.05  0.02  0.06  0.01

       Multipole analysis of the density wrt the origin
       ------------------------------------------------

     L   x y z        total         open         nuclear
     -   - - -        -----         ----         -------
     0   0 0 0     -0.000000      0.000000     10.000000

     1   1 0 0      0.611233      0.000000     -0.000000
     1   0 1 0      0.348403      0.000000      0.000000
     1   0 0 1      0.000004      0.000000      0.000000

     2   2 0 0     -3.957171      0.000000      2.679864
     2   1 1 0     -0.782547      0.000000     -1.268134
     2   1 0 1      0.000000      0.000000      0.000000
     2   0 2 0     -3.720084      0.000000      2.631222
     2   0 1 1      0.000001      0.000000      0.000000
     2   0 0 2     -5.348141      0.000000      0.000000


 Parallel integral file used      16 records with       0 large values

 ------------------------------------
     Number of active orbitals      8
     Number of active alpha electrons      5
     Number of active beta electrons       5
 ------------------------------------
                   NWChem Extensible Many-Electron Theory Module
                   ---------------------------------------------

              ======================================================
                   This portion of the program was automatically
                  generated by a Tensor Contraction Engine (TCE).
                  The development of this portion of the program
                 and TCE was supported by US Department of Energy,
                Office of Science, Office of Basic Energy Science.
                      TCE is a product of Battelle and PNNL.
              Please cite: S.Hirata, J.Phys.Chem.A 107, 9887 (2003).
              ======================================================

                                        H2O


            General Information
            -------------------
      Number of processors :     1
         Wavefunction type : Restricted Hartree-Fock
          No. of electrons :    10
           Alpha electrons :     5
            Beta electrons :     5
           No. of orbitals :   116
            Alpha orbitals :    58
             Beta orbitals :    58
        Alpha frozen cores :     0
         Beta frozen cores :     0
     Alpha frozen virtuals :    50
      Beta frozen virtuals :    50
         Spin multiplicity : singlet 
    Number of AO functions :    58
       Number of AO shells :    22
        Use of symmetry is : off
      Symmetry adaption is : off
         Schwarz screening : 0.10D-09

          Correlation Information
          -----------------------
          Calculation type : Coupled-cluster singles & doubles                           
   Perturbative correction : none                                                        
            Max iterations :      100
        Residual threshold : 0.10D-06
     T(0) DIIS level shift : 0.00D+00
     L(0) DIIS level shift : 0.00D+00
     T(1) DIIS level shift : 0.00D+00
     L(1) DIIS level shift : 0.00D+00
     T(R) DIIS level shift : 0.00D+00
     T(I) DIIS level shift : 0.00D+00
   CC-T/L Amplitude update :  5-th order DIIS
                I/O scheme : Global Array Library
        L-threshold :  0.10D-06
        EOM-threshold :  0.10D-06
 no EOMCCSD initial starts read in
 TCE RESTART OPTIONS
 READ_INT:   F
 WRITE_INT:  F
 READ_TA:    F
 WRITE_TA:   F
 READ_XA:    F
 WRITE_XA:   F
 READ_IN3:   F
 WRITE_IN3:  F
 SLICE:      F
 D4D5:       F
 quantumc:   T
 qrotation:  F
 pwtce:      F
 qducc:      F
 nacto:                         0
 nrotv:                         0
 nrot:                          0

            Memory Information
            ------------------
          Available GA space size is    1610609372 doubles
          Available MA space size is    1610609780 doubles

 Maximum block size supplied by input
 Maximum block size         1 doubles

 tile_dim =      1

 Block   Spin    Irrep     Size     Offset   Alpha
 -------------------------------------------------
   1    alpha     a      1 doubles       0       1
   2    alpha     a      1 doubles       1       2
   3    alpha     a      1 doubles       2       3
   4    alpha     a      1 doubles       3       4
   5    alpha     a      1 doubles       4       5
   6    beta      a      1 doubles       5       1
   7    beta      a      1 doubles       6       2
   8    beta      a      1 doubles       7       3
   9    beta      a      1 doubles       8       4
  10    beta      a      1 doubles       9       5
  11    alpha     a      1 doubles      10      11
  12    alpha     a      1 doubles      11      12
  13    alpha     a      1 doubles      12      13
  14    beta      a      1 doubles      13      11
  15    beta      a      1 doubles      14      12
  16    beta      a      1 doubles      15      13

 Global array virtual files algorithm will be used

 Parallel file system coherency ......... OK

 Integral file          = ./H2O.aoints.0
 Record size in doubles =  65536        No. of integs per rec  =  43688
 Max. records in memory =     49        Max. records in file   = 280414
 No. of bits per label  =      8        No. of bits per value  =     64


 #quartets = 3.213D+04 #integrals = 6.608D+05 #direct =  0.0% #cached =100.0%


 Fock matrix recomputed
 1-e file size   =               64
 1-e file name   = ./H2O.f1
 Cpu & wall time / sec            0.1            0.1
 4-electron integrals stored in orbital form

 v2    file size   =              666
 4-index algorithm nr.  13 is used
 imaxsize =       30
 imaxsize ichop =        0
 begin_one_electron_integrals
    1    1       -32.8838959466
    2    1        -2.5257609806
    3    1         0.1756449149
    4    1        -0.0000005347
    5    1         0.1896683193
    6    1        -0.2440621982
    7    1         0.0000007751
    8    1        -0.1780339235
    1    2        -2.5257609806
    2    2        -8.0838167994
    3    2        -0.2754611151
    4    2        -0.0000000717
    5    2        -0.2483614064
    6    2         0.0579479541
    7    2        -0.0000005556
    8    2         0.0554090256
    1    3         0.1756449149
    2    3        -0.2754611151
    3    3        -7.2711570157
    4    3         0.0000000836
    5    3        -0.0979786401
    6    3         0.0698952366
    7    3        -0.0000045677
    8    3         2.0902819649
    1    4        -0.0000005347
    2    4        -0.0000000717
    3    4         0.0000000836
    4    4        -7.0929501430
    5    4         0.0000001164
    6    4        -0.0000003102
    7    4         2.2653278614
    8    4         0.0000053670
    1    5         0.1896683193
    2    5        -0.2483614064
    3    5        -0.0979786401
    4    5         0.0000001164
    5    5        -6.8982632347
    6    5         2.0939343401
    7    5         0.0000004173
    8    5        -0.0403970868
    1    6        -0.2440621982
    2    6         0.0579479541
    3    6         0.0698952366
    4    6        -0.0000003102
    5    6         2.0939343401
    6    6        -6.2755828090
    7    6         0.0000002175
    8    6         0.0438344592
    1    7         0.0000007751
    2    7        -0.0000005556
    3    7        -0.0000045677
    4    7         2.2653278614
    5    7         0.0000004173
    6    7         0.0000002175
    7    7        -5.6713921002
    8    7         0.0000023098
    1    8        -0.1780339235
    2    8         0.0554090256
    3    8         2.0902819649
    4    8         0.0000053670
    5    8        -0.0403970868
    6    8         0.0438344592
    7    8         0.0000023098
    8    8        -6.2247481620
 end_one_electron_integrals
 begin_two_electron_integrals
    1    1    1    1        4.8389017838
    2    1    1    1        0.0239318753
    2    1    2    1        0.0140639312
    3    1    1    1       -0.0844291638
    3    1    2    1       -0.0026704724
    3    1    3    1        0.0216487473
    3    1    2    2       -0.0100483494
    4    1    1    1        0.0000000893
    4    1    2    1        0.0000000092
    4    1    3    1        0.0000000084
    4    1    4    1        0.0246345448
    4    1    2    2        0.0000000192
    4    1    3    2        0.0000000082
    4    1    3    3        0.0000000006
    5    1    1    1       -0.1121065141
    5    1    2    1       -0.0026514541
    5    1    3    1        0.0032733945
    5    1    4    1       -0.0000000009
    5    1    5    1        0.0202442024
    5    1    2    2       -0.0124370536
    5    1    3    2        0.0004970079
    5    1    4    2       -0.0000000027
    5    1    3    3       -0.0031464306
    5    1    4    3       -0.0000000023
    5    1    4    4       -0.0040652195
    6    1    1    1        0.1936500053
    6    1    2    1        0.0032429300
    6    1    3    1       -0.0055862311
    6    1    4    1        0.0000000087
    6    1    5    1       -0.0336200974
    6    1    6    1        0.0567595612
    6    1    2    2        0.0224347625
    6    1    3    2        0.0012771421
    6    1    4    2        0.0000000027
    6    1    5    2       -0.0235459685
    6    1    3    3        0.0055991991
    6    1    4    3        0.0000000010
    6    1    5    3       -0.0037218662
    6    1    4    4        0.0048316410
    6    1    5    4        0.0000000073
    6    1    5    5       -0.0153735270
    7    1    1    1       -0.0000006697
    7    1    2    1       -0.0000000124
    7    1    3    1        0.0000000787
    7    1    4    1       -0.0372028633
    7    1    5    1        0.0000000154
    7    1    6    1       -0.0000000366
    7    1    7    1        0.0580505829
    7    1    2    2       -0.0000000820
    7    1    3    2        0.0000000619
    7    1    4    2       -0.0368253442
    7    1    5    2       -0.0000000196
    7    1    6    2        0.0000000143
    7    1    3    3        0.0000000492
    7    1    4    3       -0.0062775657
    7    1    5    3        0.0000000069
    7    1    6    3       -0.0000000134
    7    1    4    4        0.0000000234
    7    1    5    4       -0.0090498540
    7    1    6    4        0.0107820465
    7    1    5    5       -0.0000000132
    7    1    6    5        0.0000000250
    7    1    6    6       -0.0000000419
    8    1    1    1        0.1513182841
    8    1    2    1        0.0025761772
    8    1    3    1       -0.0360986495
    8    1    4    1       -0.0000000922
    8    1    5    1       -0.0040462663
    8    1    6    1        0.0067811729
    8    1    7    1       -0.0000000152
    8    1    8    1        0.0625830804
    8    1    2    2        0.0175569714
    8    1    3    2       -0.0325641644
    8    1    4    2       -0.0000000932
    8    1    5    2        0.0038539603
    8    1    6    2       -0.0046939155
    8    1    7    2        0.0000000069
    8    1    3    3       -0.0173973637
    8    1    4    3        0.0000000045
    8    1    5    3       -0.0060942373
    8    1    6    3        0.0079620501
    8    1    7    3       -0.0000000202
    8    1    4    4        0.0028022315
    8    1    5    4       -0.0000000244
    8    1    6    4        0.0000000285
    8    1    7    4       -0.0058542225
    8    1    5    5        0.0043519076
    8    1    6    5       -0.0048931071
    8    1    7    5       -0.0000000014
    8    1    6    6        0.0094630169
    8    1    7    6       -0.0000000110
    8    1    7    7        0.0068016655
    2    2    1    1        1.0483120005
    2    2    2    1        0.0270738691
    2    2    2    2        0.8447698420
    3    2    1    1       -0.0140908454
    3    2    2    1       -0.0015171551
    3    2    3    1        0.0127155967
    3    2    2    2       -0.0437430703
    3    2    3    2        0.1160631723
    4    2    1    1        0.0000001765
    4    2    2    1        0.0000000101
    4    2    3    1        0.0000000055
    4    2    4    1        0.0168783002
    4    2    2    2        0.0000001716
    4    2    3    2        0.0000000409
    4    2    4    2        0.1307742360
    4    2    3    3       -0.0000000483
    5    2    1    1       -0.0054932678
    5    2    2    1       -0.0009162264
    5    2    3    1        0.0000433323
    5    2    4    1        0.0000000016
    5    2    5    1        0.0108251475
    5    2    2    2       -0.0482571603
    5    2    3    2       -0.0181732767
    5    2    4    2        0.0000000544
    5    2    5    2        0.0790477264
    5    2    3    3       -0.0061482022
    5    2    4    3        0.0000000266
    5    2    4    4        0.0114083374
    6    2    1    1       -0.0045075295
    6    2    2    1        0.0019784153
    6    2    3    1        0.0011307341
    6    2    4    1       -0.0000000008
    6    2    5    1       -0.0135588284
    6    2    6    1        0.0241868647
    6    2    2    2        0.0286966166
    6    2    3    2        0.0133371855
    6    2    4    2       -0.0000000050
    6    2    5    2       -0.0531942723
    6    2    6    2        0.0479288167
    6    2    3    3       -0.0024649543
    6    2    4    3       -0.0000000107
    6    2    5    3       -0.0043517941
    6    2    4    4       -0.0128195181
    6    2    5    4       -0.0000000010
    6    2    5    5       -0.0358586841
    7    2    1    1        0.0000000545
    7    2    2    1       -0.0000000073
    7    2    3    1        0.0000000298
    7    2    4    1       -0.0190589182
    7    2    5    1       -0.0000000122
    7    2    6    1        0.0000000185
    7    2    7    1        0.0289260414
    7    2    2    2       -0.0000000132
    7    2    3    2        0.0000001077
    7    2    4    2       -0.0524217231
    7    2    5    2       -0.0000000801
    7    2    6    2        0.0000000677
    7    2    7    2        0.0463008233
    7    2    3    3        0.0000001083
    7    2    4    3       -0.0039589008
    7    2    5    3        0.0000000087
    7    2    6    3       -0.0000000099
    7    2    4    4        0.0000000553
    7    2    5    4       -0.0081628898
    7    2    6    4        0.0132867893
    7    2    5    5        0.0000000364
    7    2    6    5       -0.0000000190
    7    2    6    6        0.0000000207
    8    2    1    1       -0.0047504136
    8    2    2    1        0.0018734239
    8    2    3    1       -0.0162741866
    8    2    4    1       -0.0000000496
    8    2    5    1        0.0021423252
    8    2    6    1       -0.0042867135
    8    2    7    1        0.0000000040
    8    2    8    1        0.0280354142
    8    2    2    2        0.0117102131
    8    2    3    2       -0.0509198339
    8    2    4    2       -0.0000001050
    8    2    5    2        0.0143058494
    8    2    6    2       -0.0151151311
    8    2    7    2       -0.0000000109
    8    2    8    2        0.0494119557
    8    2    3    3       -0.0184648848
    8    2    4    3       -0.0000000233
    8    2    5    3       -0.0073478871
    8    2    6    3        0.0093549741
    8    2    7    3       -0.0000000898
    8    2    4    4       -0.0113132931
    8    2    5    4       -0.0000000145
    8    2    6    4        0.0000000277
    8    2    7    4        0.0062709378
    8    2    5    5       -0.0015904439
    8    2    6    5        0.0016982510
    8    2    7    5        0.0000000198
    8    2    6    6       -0.0010946741
    8    2    7    6       -0.0000000062
    8    2    7    7       -0.0068938395
    3    3    1    1        0.9698591951
    3    3    2    1        0.0225674940
    3    3    3    1        0.0030075937
    3    3    2    2        0.6857755607
    3    3    3    2        0.0893525613
    3    3    3    3        0.8137950873
    4    3    1    1        0.0000001562
    4    3    2    1        0.0000000071
    4    3    3    1       -0.0000000027
    4    3    4    1        0.0032919545
    4    3    2    2        0.0000001050
    4    3    3    2       -0.0000000962
    4    3    4    2        0.0170689614
    4    3    3    3       -0.0000001027
    4    3    4    3        0.0364775020
    5    3    1    1        0.0163374567
    5    3    2    1        0.0003009630
    5    3    3    1        0.0037222227
    5    3    4    1        0.0000000022
    5    3    5    1        0.0024835200
    5    3    2    2       -0.0130866246
    5    3    3    2        0.0114507516
    5    3    4    2        0.0000000307
    5    3    5    2        0.0048372793
    5    3    3    3        0.0156885090
    5    3    4    3       -0.0000000029
    5    3    5    3        0.0315645778
    5    3    4    4        0.0079012595
    6    3    1    1       -0.0190740752
    6    3    2    1        0.0006033933
    6    3    3    1       -0.0050404394
    6    3    4    1       -0.0000000031
    6    3    5    1       -0.0020889938
    6    3    6    1        0.0034682143
    6    3    2    2        0.0089222421
    6    3    3    2       -0.0113147547
    6    3    4    2       -0.0000000104
    6    3    5    2       -0.0044032137
    6    3    6    2        0.0013952132
    6    3    3    3       -0.0116407485
    6    3    4    3        0.0000000068
    6    3    5    3       -0.0171112931
    6    3    6    3        0.0200344729
    6    3    4    4       -0.0062362499
    6    3    5    4       -0.0000000059
    6    3    5    5       -0.0131210593
    7    3    1    1        0.0000010937
    7    3    2    1        0.0000000432
    7    3    3    1        0.0000000277
    7    3    4    1       -0.0025256103
    7    3    5    1       -0.0000000118
    7    3    6    1        0.0000000145
    7    3    7    1        0.0029312970
    7    3    2    2        0.0000004273
    7    3    3    2       -0.0000000159
    7    3    4    2        0.0005549713
    7    3    5    2        0.0000000145
    7    3    6    2       -0.0000000043
    7    3    7    2        0.0025864564
    7    3    3    3        0.0000002914
    7    3    4    3       -0.0069477248
    7    3    5    3        0.0000000185
    7    3    6    3       -0.0000000324
    7    3    7    3        0.0163077282
    7    3    4    4        0.0000003675
    7    3    5    4       -0.0002758803
    7    3    6    4        0.0017982363
    7    3    5    5        0.0000003520
    7    3    6    5       -0.0000002422
    7    3    6    6        0.0000004221
    8    3    1    1       -0.5079244028
    8    3    2    1       -0.0219281197
    8    3    3    1       -0.0051209648
    8    3    4    1       -0.0000000106
    8    3    5    1        0.0048079843
    8    3    6    1       -0.0066697449
    8    3    7    1        0.0000000217
    8    3    8    1        0.0027359489
    8    3    2    2       -0.1993038562
    8    3    3    2        0.0160247168
    8    3    4    2       -0.0000001131
    8    3    5    2       -0.0050200025
    8    3    6    2        0.0060178465
    8    3    7    2       -0.0000000755
    8    3    8    2        0.0235014041
    8    3    3    3       -0.1406297206
    8    3    4    3       -0.0000001408
    8    3    5    3       -0.0049012680
    8    3    6    3        0.0089957388
    8    3    7    3       -0.0000004785
    8    3    8    3        0.1970161722
    8    3    4    4       -0.1765034179
    8    3    5    4       -0.0000000201
    8    3    6    4       -0.0000000107
    8    3    7    4        0.1303329116
    8    3    5    5       -0.1492072034
    8    3    6    5        0.1151920394
    8    3    7    5        0.0000000287
    8    3    6    6       -0.1841677435
    8    3    7    6       -0.0000000084
    8    3    7    7       -0.1684011506
    4    4    1    1        1.0248180628
    4    4    2    1        0.0260493619
    4    4    3    1       -0.0028825067
    4    4    4    1       -0.0000000067
    4    4    2    2        0.7217640747
    4    4    3    2        0.0081159984
    4    4    4    2       -0.0000001455
    4    4    3    3        0.6598981205
    4    4    4    3        0.0000000197
    4    4    4    4        0.7421958311
    5    4    1    1        0.0000000283
    5    4    2    1        0.0000000003
    5    4    3    1        0.0000000007
    5    4    4    1        0.0046327558
    5    4    5    1       -0.0000000035
    5    4    2    2        0.0000000649
    5    4    3    2        0.0000000217
    5    4    4    2        0.0257704056
    5    4    5    2       -0.0000000149
    5    4    4    3        0.0054720930
    5    4    5    3        0.0000000088
    5    4    4    4       -0.0000000559
    5    4    5    4        0.0376488405
    6    4    1    1        0.0000000692
    6    4    2    1        0.0000000003
    6    4    3    1       -0.0000000033
    6    4    4    1       -0.0069452454
    6    4    5    1       -0.0000000016
    6    4    6    1        0.0000000040
    6    4    2    2        0.0000000268
    6    4    3    2       -0.0000000125
    6    4    4    2       -0.0196156805
    6    4    5    2       -0.0000000292
    6    4    6    2        0.0000000235
    6    4    3    3        0.0000000292
    6    4    4    3       -0.0032348937
    6    4    5    3       -0.0000000148
    6    4    6    3        0.0000000114
[...]
    5    5    4    1       -0.0000000021
    5    5    5    1        0.0042806925
    5    5    2    2        0.6205409595
    5    5    3    2       -0.0067416644
    5    5    4    2        0.0000000383
    5    5    5    2        0.0788432252
    5    5    3    3        0.6044362976
    5    5    4    3        0.0000000537
    5    5    5    3        0.0137104622
    5    5    4    4        0.6277880719
    5    5    5    4       -0.0000000462
    5    5    5    5        0.7749434486
    6    5    1    1       -0.4882939209
    6    5    2    1       -0.0188143836
    6    5    3    1        0.0032240998
    6    5    4    1       -0.0000000048
    6    5    5    1       -0.0048893670
    6    5    6    1        0.0046560844
    6    5    2    2       -0.2069757331
    6    5    3    2       -0.0009609236
    6    5    4    2       -0.0000000583
    6    5    5    2        0.0031642402
    6    5    6    2        0.0194349411
    6    5    3    3       -0.1748646843
    6    5    4    3       -0.0000000382
    6    5    5    3       -0.0062435066
    6    5    6    3        0.0036011222
    6    5    4    4       -0.1840163539
    6    5    5    4       -0.0000000351
    6    5    6    4       -0.0000000229
    6    5    5    5       -0.1134101175
    6    5    6    5        0.2117681050
    7    5    1    1       -0.0000000811
    7    5    2    1       -0.0000000109
    7    5    3    1        0.0000000068
    7    5    4    1       -0.0039385490
    7    5    5    1        0.0000000174
    7    5    6    1       -0.0000000301
    7    5    7    1        0.0050162408
    7    5    2    2       -0.0000001150
    7    5    3    2        0.0000000236
    7    5    4    2       -0.0025417555
    7    5    5    2        0.0000000508
    7    5    6    2       -0.0000000350
    7    5    7    2        0.0059736158
    7    5    3    3       -0.0000000064
    7    5    4    3       -0.0004598143
    7    5    5    3        0.0000000417
    7    5    6    3       -0.0000000387
    7    5    7    3        0.0014368021
    7    5    4    4       -0.0000000563
    7    5    5    4       -0.0046689147
    7    5    6    4        0.0177374404
    7    5    7    4        0.0000000066
    7    5    5    5        0.0000000152
    7    5    6    5        0.0000000024
    7    5    7    5        0.0175907744
    7    5    6    6        0.0000000021
    8    5    1    1        0.0071684497
    8    5    2    1        0.0018942047
    8    5    3    1       -0.0034694626
    8    5    4    1       -0.0000000100
    8    5    5    1       -0.0030889826
    8    5    6    1        0.0051660184
    8    5    7    1       -0.0000000026
    8    5    8    1        0.0056667164
    8    5    2    2        0.0181487010
    8    5    3    2       -0.0083784656
    8    5    4    2        0.0000000109
    8    5    5    2       -0.0074492366
    8    5    6    2        0.0048269944
    8    5    7    2        0.0000000172
    8    5    8    2        0.0030308451
    8    5    3    3       -0.0038638858
    8    5    4    3        0.0000000057
    8    5    5    3       -0.0113803519
    8    5    6    3        0.0173243991
    8    5    7    3        0.0000000084
    8    5    8    3       -0.0018355524
    8    5    4    4        0.0031030185
    8    5    5    4        0.0000000069
    8    5    6    4        0.0000000421
    8    5    7    4       -0.0025686122
    8    5    8    4        0.0000000042
    8    5    5    5       -0.0049804461
    8    5    6    5       -0.0021489143
    8    5    7    5       -0.0000000008
    8    5    8    5        0.0174422023
    8    5    6    6       -0.0044102321
    8    5    7    6        0.0000000431
    8    5    7    7        0.0030693803
    6    6    1    1        1.0988514965
    6    6    2    1        0.0298978341
    6    6    3    1       -0.0043227812
    6    6    4    1        0.0000000052
    6    6    5    1        0.0050121624
    6    6    6    1       -0.0151637432
    6    6    2    2        0.6305165427
    6    6    3    2       -0.0107191963
    6    6    4    2        0.0000000829
    6    6    5    2        0.0711861283
    6    6    6    2       -0.0373410912
    6    6    3    3        0.6084745983
    6    6    4    3        0.0000000702
    6    6    5    3        0.0129743792
    6    6    6    3       -0.0143581508
    6    6    4    4        0.6384589435
    6    6    5    4       -0.0000000335
    6    6    6    4       -0.0000000062
    6    6    5    5        0.7634921813
    6    6    6    5       -0.1349610288
    6    6    6    6        0.8151587009
    7    6    1    1       -0.0000000587
    7    6    2    1        0.0000000067
    7    6    3    1       -0.0000000117
    7    6    4    1        0.0072999766
    7    6    5    1       -0.0000000186
    7    6    6    1        0.0000000306
    7    6    7    1       -0.0128182617
    7    6    2    2        0.0000001027
    7    6    3    2       -0.0000000226
    7    6    4    2        0.0277039454
    7    6    5    2       -0.0000000441
    7    6    6    2        0.0000000344
    7    6    7    2       -0.0111700740
    7    6    3    3       -0.0000000704
    7    6    4    3        0.0054607403
    7    6    5    3       -0.0000000528
    7    6    6    3        0.0000000483
    7    6    7    3       -0.0003463584
    7    6    4    4       -0.0000000813
    7    6    5    4        0.0303196399
    7    6    6    4       -0.0198647834
    7    6    7    4       -0.0000000173
    7    6    5    5       -0.0000000747
    7    6    6    5        0.0000000027
    7    6    7    5       -0.0076925805
    7    6    6    6       -0.0000000691
    7    6    7    6        0.0337004207
    8    6    1    1       -0.0050876276
    8    6    2    1       -0.0024384219
    8    6    3    1        0.0063182497
    8    6    4    1        0.0000000168
    8    6    5    1        0.0041156853
    8    6    6    1       -0.0061809827
    8    6    7    1       -0.0000000062
    8    6    8    1       -0.0109816812
    8    6    2    2       -0.0275654528
    8    6    3    2        0.0203940262
    8    6    4    2        0.0000000688
    8    6    5    2        0.0062625044
    8    6    6    2       -0.0060971703
    8    6    7    2       -0.0000000081
    8    6    8    2       -0.0098030977
    8    6    3    3        0.0151295883
    8    6    4    3       -0.0000000062
    8    6    5    3        0.0263713524
    8    6    6    3       -0.0200824159
    8    6    7    3       -0.0000000030
    8    6    8    3        0.0037175793
    8    6    4    4       -0.0008088173
    8    6    5    4        0.0000000722
    8    6    6    4       -0.0000000517
    8    6    7    4        0.0034410279
    8    6    8    4       -0.0000000158
    8    6    5    5        0.0022973891
    8    6    6    5       -0.0021507118
    8    6    7    5        0.0000000430
    8    6    8    5       -0.0169812697
    8    6    6    6        0.0004080870
    8    6    7    6        0.0000000061
    8    6    8    6        0.0322159257
    8    6    7    7       -0.0005690584
    7    7    1    1        1.0966483123
    7    7    2    1        0.0317467341
    7    7    3    1       -0.0054074894
    7    7    4    1       -0.0000000338
    7    7    5    1       -0.0066862117
    7    7    6    1        0.0090123242
    7    7    7    1        0.0000000477
    7    7    2    2        0.6482891471
    7    7    3    2        0.0049449572
    7    7    4    2       -0.0000001741
    7    7    5    2        0.0098304293
    7    7    6    2       -0.0103510414
    7    7    7    2        0.0000000759
    7    7    3    3        0.6040626370
    7    7    4    3       -0.0000001093
    7    7    5    3        0.0075938930
    7    7    6    3       -0.0058035008
    7    7    7    3        0.0000003859
    7    7    4    4        0.6680483961
    7    7    5    4       -0.0000000522
    7    7    6    4        0.0000000444
    7    7    7    4       -0.2033476469
    7    7    5    5        0.5798049822
    7    7    6    5       -0.1689929828
    7    7    7    5       -0.0000000501
    7    7    6    6        0.6126740839
    7    7    7    6       -0.0000000896
    7    7    7    7        0.6465460596
    8    7    1    1       -0.0000002131
    8    7    2    1       -0.0000000017
    8    7    3    1       -0.0000000278
    8    7    4    1        0.0055715336
    8    7    5    1        0.0000000017
    8    7    6    1       -0.0000000118
    8    7    7    1       -0.0097397675
    8    7    8    1        0.0000000592
    8    7    2    2       -0.0000000656
    8    7    3    2       -0.0000002777
    8    7    4    2        0.0212676258
    8    7    5    2        0.0000000820
    8    7    6    2       -0.0000000333
    8    7    7    2       -0.0077093902
    8    7    8    2        0.0000000124
    8    7    3    3       -0.0000006188
    8    7    4    3        0.0290615009
    8    7    5    3       -0.0000000163
    8    7    6    3        0.0000000158
    8    7    7    3       -0.0086517904
    8    7    8    3       -0.0000001138
    8    7    4    4       -0.0000000578
    8    7    5    4        0.0049479611
    8    7    6    4       -0.0031576035
    8    7    7    4        0.0000000181
    8    7    8    4       -0.0164331392
    8    7    5    5       -0.0000000462
    8    7    6    5        0.0000000971
    8    7    7    5       -0.0002113092
    8    7    8    5        0.0000000173
    8    7    6    6       -0.0000000331
    8    7    7    6        0.0058645717
    8    7    8    6       -0.0000000378
    8    7    7    7       -0.0000001785
    8    7    8    7        0.0324371810
    8    8    1    1        1.1591058874
    8    8    2    1        0.0324879712
    8    8    3    1        0.0033052450
    8    8    4    1        0.0000000402
    8    8    5    1       -0.0070283332
    8    8    6    1        0.0118498989
    8    8    7    1       -0.0000000255
    8    8    8    1       -0.0164229105
    8    8    2    2        0.6710607577
    8    8    3    2        0.0778098861
    8    8    4    2        0.0000001252
    8    8    5    2       -0.0072693254
    8    8    6    2       -0.0025775256
    8    8    7    2        0.0000000303
    8    8    8    2       -0.0177008751
    8    8    3    3        0.7786032485
    8    8    4    3        0.0000000644
    8    8    5    3        0.0141278710
    8    8    6    3       -0.0099152829
    8    8    7    3        0.0000002623
    8    8    8    3       -0.1621929649
    8    8    4    4        0.6548873620
    8    8    5    4        0.0000000341
    8    8    6    4        0.0000000019
    8    8    7    4       -0.1962108804
    8    8    8    4       -0.0000006613
    8    8    5    5        0.5945951471
    8    8    6    5       -0.1946644121
    8    8    7    5       -0.0000000195
    8    8    8    5       -0.0017199258
    8    8    6    6        0.6258444603
    8    8    7    6       -0.0000000297
    8    8    8    6        0.0134988709
    8    8    7    7        0.6269429621
    8    8    8    7       -0.0000004991
    8    8    8    8        0.8135784388
 end_two_electron_integrals
 enrep_tce =    9.9936803126071609     
  EHF(A)             =       -76.02419458
  EHF(total)         =       -76.02419458
  Shift (HFtot-HFA)  =        -0.00000000
 Cpu & wall time / sec            1.5            1.5
 T1-number-of-tasks                   15

 t1 file size   =               15
 t1 file name   = ./H2O.t1
 t1 file handle =       -998
 T2-number-of-boxes                  315

 t2 file size   =              315
 t2 file name   = ./H2O.t2
 t2 file handle =       -996
CCSD iterations
 ---------------------------------------------------------
 Iter          Residuum       Correlation     Cpu    Wall 
 ---------------------------------------------------------
NEW TASK SCHEDULING
CCSD_T1_NTS --- OK
CCSD_T2_NTS --- OK
    1   0.8881372467372  -0.2350745489285     2.6     3.7
    2   1.6381179266331   0.1817743471874     2.6     3.5
    3   3.0565275367342  -0.5888003915868     2.4     3.6
    4   5.8962259256205   0.8388461030878     2.6     3.5
    5  10.4684731550286  -1.8592430970402     2.5     3.5
 MICROCYCLE DIIS UPDATE:                    5                    5
    6   0.0170561994048  -0.0844910950428     2.5     3.5
    7   0.0229606209025  -0.0901333526262     2.6     3.5
    8   0.0393385367463  -0.0801512069518     2.5     3.5
    9   0.0736516752568  -0.0970844236275     2.5     3.5
   10   0.1425243476214  -0.0594692688140     2.6     3.5
 MICROCYCLE DIIS UPDATE:                   10                    5
   11   0.0003187425804  -0.0866826158743     2.5     3.5
   12   0.0003721946745  -0.0866875154085     2.6     3.5
   13   0.0006620928659  -0.0866913758889     2.6     3.5
   14   0.0013709481833  -0.0866613068571     2.7     3.6
   15   0.0029334535761  -0.0867536209670     2.4     3.5
 MICROCYCLE DIIS UPDATE:                   15                    5
   16   0.0000128952752  -0.0866864890472     2.4     3.5
   17   0.0000158020411  -0.0866857500726     2.4     3.5
   18   0.0000332479497  -0.0866872310487     2.5     3.5
   19   0.0000733152068  -0.0866844267268     2.6     3.5
   20   0.0001632373832  -0.0866895909748     2.4     3.5
 MICROCYCLE DIIS UPDATE:                   20                    5
   21   0.0000004972099  -0.0866862252293     2.5     3.5
   22   0.0000005197989  -0.0866863175835     2.3     3.5
   23   0.0000009180256  -0.0866861513835     2.7     3.8
   24   0.0000017554828  -0.0866864557443     2.6     3.4
   25   0.0000034401022  -0.0866858937105     2.4     3.4
 MICROCYCLE DIIS UPDATE:                   25                    5
   26   0.0000000221997  -0.0866862596320     2.4     3.4
 -----------------------------------------------------------------
 Iterations converged
 CCSD correlation energy / hartree =        -0.086686259631953
 CCSD total energy / hartree       =       -76.110880836441893

 Singles contributions

 Doubles contributions
     6a   (alpha)     7a   (alpha) ---     4a   (alpha)     5a   (alpha)        0.0289590275
     6a   (alpha)     8a   (alpha) ---     3a   (alpha)     5a   (alpha)        0.0227393574
     6a   (alpha)     6a   (beta ) ---     5a   (alpha)     5a   (beta )       -0.0823540508
     6a   (alpha)     7a   (beta ) ---     5a   (alpha)     4a   (beta )       -0.0388989703
     6a   (alpha)     8a   (beta ) ---     5a   (alpha)     3a   (beta )       -0.0317508381
     7a   (alpha)     8a   (alpha) ---     3a   (alpha)     4a   (alpha)        0.0279000118
     7a   (alpha)     6a   (beta ) ---     4a   (alpha)     5a   (beta )       -0.0388989703
     7a   (alpha)     7a   (beta ) ---     4a   (alpha)     4a   (beta )       -0.0556718342
     7a   (alpha)     8a   (beta ) ---     4a   (alpha)     3a   (beta )       -0.0363377362
     8a   (alpha)     6a   (beta ) ---     3a   (alpha)     5a   (beta )       -0.0317508381
     8a   (alpha)     7a   (beta ) ---     3a   (alpha)     4a   (beta )       -0.0363377362
     8a   (alpha)     8a   (beta ) ---     3a   (alpha)     3a   (beta )       -0.0593614419
 Ground state specification:
 exp(T)|Ref>~(1+T)|Ref>
 ------- a(p)+/a(q) strings ----------

 singles norm

 doubles norm

 Reference string
   1.0000000000000000      :(1a)+ (2a)+ (3a)+ (4a)+ (5a)+ (1b)+ (2b)+ (3b)+ (4b)+ (5b)+ |0>

 Singles strings

 Doubles strings
 -------------------------------------

 Parallel integral file used      16 records with       0 large values


 Task  times  cpu:       67.9s     wall:       94.0s


                                NWChem Input Module
                                -------------------


 Summary of allocated global arrays
-----------------------------------
  No active global arrays


MA_summarize_allocated_blocks: starting scan ...
MA_summarize_allocated_blocks: scan completed: 0 heap blocks, 0 stack blocks
MA usage statistics:

	allocation statistics:
					      heap	     stack
					      ----	     -----
	current number of blocks	         0	         0
	maximum number of blocks	        18	        42
	current total bytes		         0	         0
	maximum total bytes		  25775928	  38234424
	maximum total K-bytes		     25776	     38235
	maximum total M-bytes		        26	        39


                                     CITATION
                                     --------
                Please cite the following reference when publishing
                           results obtained with NWChem:

          E. Apra, E. J. Bylaska, W. A. de Jong, N. Govind, K. Kowalski,
       T. P. Straatsma, M. Valiev, H. J. J. van Dam, Y. Alexeev, J. Anchell,
       V. Anisimov, F. W. Aquino, R. Atta-Fynn, J. Autschbach, N. P. Bauman,
     J. C. Becca, D. E. Bernholdt, K. Bhaskaran-Nair, S. Bogatko, P. Borowski,
         J. Boschen, J. Brabec, A. Bruner, E. Cauet, Y. Chen, G. N. Chuev,
      C. J. Cramer, J. Daily, M. J. O. Deegan, T. H. Dunning Jr., M. Dupuis,
   K. G. Dyall, G. I. Fann, S. A. Fischer, A. Fonari, H. Fruchtl, L. Gagliardi,
      J. Garza, N. Gawande, S. Ghosh, K. Glaesemann, A. W. Gotz, J. Hammond,
       V. Helms, E. D. Hermes, K. Hirao, S. Hirata, M. Jacquelin, L. Jensen,
   B. G. Johnson, H. Jonsson, R. A. Kendall, M. Klemm, R. Kobayashi, V. Konkov,
      S. Krishnamoorthy, M. Krishnan, Z. Lin, R. D. Lins, R. J. Littlefield,
      A. J. Logsdail, K. Lopata, W. Ma, A. V. Marenich, J. Martin del Campo,
   D. Mejia-Rodriguez, J. E. Moore, J. M. Mullin, T. Nakajima, D. R. Nascimento,
    J. A. Nichols, P. J. Nichols, J. Nieplocha, A. Otero-de-la-Roza, B. Palmer,
    A. Panyala, T. Pirojsirikul, B. Peng, R. Peverati, J. Pittner, L. Pollack,
   R. M. Richard, P. Sadayappan, G. C. Schatz, W. A. Shelton, D. W. Silverstein,
   D. M. A. Smith, T. A. Soares, D. Song, M. Swart, H. L. Taylor, G. S. Thomas,
            V. Tipparaju, D. G. Truhlar, K. Tsemekhman, T. Van Voorhis,
      A. Vazquez-Mayagoitia, P. Verma, O. Villa, A. Vishnu, K. D. Vogiatzis,
        D. Wang, J. H. Weare, M. J. Williamson, T. L. Windus, K. Wolinski,
        A. T. Wong, Q. Wu, C. Yang, Q. Yu, M. Zacharias, Z. Zhang, Y. Zhao,
                                and R. J. Harrison
                        "NWChem: Past, present, and future
                         J. Chem. Phys. 152, 184102 (2020)
                               doi:10.1063/5.0004997

                                      AUTHORS
                                      -------
  E. Apra, E. J. Bylaska, N. Govind, K. Kowalski, M. Valiev, D. Mejia-Rodriguez,
       A. Kunitsa, N. P. Bauman, A. Panyala, W. A. de Jong, T. P. Straatsma,
        H. J. J. van Dam, D. Wang, T. L. Windus, J. Hammond, J. Autschbach,
    K. Bhaskaran-Nair, J. Brabec, K. Lopata, S. A. Fischer, S. Krishnamoorthy,
     M. Jacquelin, W. Ma, M. Klemm, O. Villa, Y. Chen, V. Anisimov, F. Aquino,
    S. Hirata, M. T. Hackler, Eric Hermes, L. Jensen, J. E. Moore, J. C. Becca,
      V. Konjkov, T. Risthaus, M. Malagoli, A. Marenich, A. Otero-de-la-Roza,
        J. Mullin, P. Nichols, R. Peverati, J. Pittner, Y. Zhao, P.-D. Fan,
        A. Fonari, M. J. Williamson, R. J. Harrison, J. R. Rehr, M. Dupuis,
     D. Silverstein, D. M. A. Smith, J. Nieplocha, V. Tipparaju, M. Krishnan,
     B. E. Van Kuiken, A. Vazquez-Mayagoitia, M. Swart, Q. Wu, T. Van Voorhis,
     A. A. Auer, M. Nooijen, L. D. Crosby, E. Brown, G. Cisneros, G. I. Fann,
   H. Fruchtl, J. Garza, K. Hirao, R. A. Kendall, J. A. Nichols, K. Tsemekhman,
    K. Wolinski, J. Anchell, D. E. Bernholdt, P. Borowski, T. Clark, D. Clerc,
   H. Dachsel, M. J. O. Deegan, K. Dyall, D. Elwood, E. Glendening, M. Gutowski,
   A. C. Hess, J. Jaffe, B. G. Johnson, J. Ju, R. Kobayashi, R. Kutteh, Z. Lin,
   R. Littlefield, X. Long, B. Meng, T. Nakajima, S. Niu, L. Pollack, M. Rosing,
   K. Glaesemann, G. Sandrone, M. Stave, H. Taylor, G. Thomas, J. H. van Lenthe,
                               A. T. Wong, Z. Zhang.

 Total times  cpu:       75.7s     wall:      107.1s
