 argument  1 = input.nw
  NWChem w/ OpenMP: maximum threads =    1



============================== echo of input deck ==============================
 echo
 start H2O
 title "H2O"

 memory total 24 gb

 geometry units bohr
 symmetry c1
        O  0.00000000  0.00000000  0.00000000
        H  0.00000000  1.85266725  0.00000000
        H  1.72558000 -0.64860000  0.00000000
 end

 basis spherical
   * library cc-pVTZ
 end

 mcscf
   active  8
   actelec 10
   multiplicity 1
   maxiter 40
   vectors input h2o.mos
   vectors output h2o.mos
 end

 task mcscf

 scf
   vectors input h2o.mos
   vectors output h2o-trash.mos
   noscf
 end

 tce
   2eorb
   2emet 13
   ccsd
 end

 set tce:print_integrals T
 set tce:qorb 8
 set tce:qela 5
 set tce:qelb 5

# set tce:qducc T
# set tce:nactv 3
# set tce:nonhf T
# set tce:ducc_model 3

 set tce:printtol 0.02

 task tce
================================================================================


                                         
                                         


             Northwest Computational Chemistry Package (NWChem) 7.0.1
             --------------------------------------------------------


                    Environmental Molecular Sciences Laboratory
                       Pacific Northwest National Laboratory
                                Richland, WA 99352

                              Copyright (c) 1994-2020
                       Pacific Northwest National Laboratory
                            Battelle Memorial Institute

             NWChem is an open-source computational chemistry package
                        distributed under the terms of the
                      Educational Community License (ECL) 2.0
             A copy of the license is included with this distribution
                              in the LICENSE.TXT file

                                  ACKNOWLEDGMENT
                                  --------------

            This software and its documentation were developed at the
            EMSL at Pacific Northwest National Laboratory, a multiprogram
            national laboratory, operated for the U.S. Department of Energy
            by Battelle under Contract Number DE-AC05-76RL01830. Support
            for this work was provided by the Department of Energy Office
            of Biological and Environmental Research, Office of Basic
            Energy Sciences, and the Office of Advanced Scientific Computing.


           Job information
           ---------------

    hostname        = WE46210
    program         = /home/baum612/code/nwchem/bin/LINUX64/nwchem
    date            = Tue Feb 20 13:04:56 2024

    compiled        = Fri_Feb_16_11:09:52_2024
    source          = /home/baum612/code/nwchem
    nwchem branch   = 7.0.0
    nwchem revision = nwchem_on_git-4191-g39d87d64de
    ga revision     = 5.8.1
    use scalapack   = F
    input           = input.nw
    prefix          = H2O.
    data base       = ./H2O.db
    status          = startup
    nproc           =        1
    time left       =     -1s



           Memory information
           ------------------

    heap     =  805306366 doubles =   6144.0 Mbytes
    stack    =  805306363 doubles =   6144.0 Mbytes
    global   = 1610612736 doubles =  12288.0 Mbytes (distinct from heap & stack)
    total    = 3221225465 doubles =  24576.0 Mbytes
    verify   = yes
    hardfail = no 


           Directory information
           ---------------------

  0 permanent = .
  0 scratch   = .




                                NWChem Input Module
                                -------------------


                                        H2O
                                        ---
 Turning off AUTOSYM since
 SYMMETRY directive was detected!


          ------
          auto-z
          ------
  no constraints, skipping    0.0000000000000000     
  no constraints, skipping    0.0000000000000000     


                             Geometry "geometry" -> ""
                             -------------------------

 Output coordinates in a.u. (scale by  1.000000000 to convert to a.u.)

  No.       Tag          Charge          X              Y              Z
 ---- ---------------- ---------- -------------- -------------- --------------
    1 O                    8.0000    -0.17255800    -0.12040673     0.00000000
    2 H                    1.0000    -0.17255800     1.73226053     0.00000000
    3 H                    1.0000     1.55302200    -0.76900673     0.00000000

      Atomic Mass 
      ----------- 

      O                 15.994910
      H                  1.007825


 Effective nuclear repulsion energy (a.u.)       8.9868709426

            Nuclear Dipole moment (a.u.) 
            ----------------------------
        X                 Y               Z
 ---------------- ---------------- ----------------
    -0.0000000000     0.0000000000     0.0000000000



                                Z-matrix (autoz)
                                -------- 

 Units are Angstrom for bonds and degrees for angles

      Type          Name      I     J     K     L     M      Value
      ----------- --------  ----- ----- ----- ----- ----- ----------
    1 Stretch                  1     2                       0.98039
    2 Stretch                  1     3                       0.97551
    3 Bend                     2     1     3               110.59992


            XYZ format geometry
            -------------------
     3
 geometry
 O                    -0.09131377    -0.06371650     0.00000000
 H                    -0.09131377     0.91667286     0.00000000
 H                     0.82182391    -0.40694086     0.00000000

 ==============================================================================
                                internuclear distances
 ------------------------------------------------------------------------------
       center one      |      center two      | atomic units |       a.u.
 ------------------------------------------------------------------------------
    2 H                |   1 O                |     1.85267  |     1.85267
    3 H                |   1 O                |     1.84345  |     1.84345
 ------------------------------------------------------------------------------
                         number of included internuclear distances:          2
 ==============================================================================



 ==============================================================================
                                 internuclear angles
 ------------------------------------------------------------------------------
        center 1       |       center 2       |       center 3       |  degrees
 ------------------------------------------------------------------------------
    2 H                |   1 O                |   3 H                |   110.60
 ------------------------------------------------------------------------------
                            number of included internuclear angles:          1
 ==============================================================================





 Summary of "ao basis" -> "" (spherical)
 ------------------------------------------------------------------------------
       Tag                 Description            Shells   Functions and Types
 ---------------- ------------------------------  ------  ---------------------
 *                          cc-pVTZ                   on all atoms 


                      Basis "ao basis" -> "ao basis" (spherical)
                      -----
  O (Oxygen)
  ----------
            Exponent  Coefficients 
       -------------- ---------------------------------------------------------
  1 S  1.53300000E+04  0.000508
  1 S  2.29900000E+03  0.003929
  1 S  5.22400000E+02  0.020243
  1 S  1.47300000E+02  0.079181
  1 S  4.75500000E+01  0.230687
  1 S  1.67600000E+01  0.433118
  1 S  6.20700000E+00  0.350260
  1 S  6.88200000E-01 -0.008154

  2 S  1.53300000E+04 -0.000115
  2 S  2.29900000E+03 -0.000895
  2 S  5.22400000E+02 -0.004636
  2 S  1.47300000E+02 -0.018724
  2 S  4.75500000E+01 -0.058463
  2 S  1.67600000E+01 -0.136463
  2 S  6.20700000E+00 -0.175740
  2 S  6.88200000E-01  0.603418

  3 S  1.75200000E+00  1.000000

  4 S  2.38400000E-01  1.000000

  5 P  3.44600000E+01  0.015928
  5 P  7.74900000E+00  0.099740
  5 P  2.28000000E+00  0.310492

  6 P  7.15600000E-01  1.000000

  7 P  2.14000000E-01  1.000000

  8 D  2.31400000E+00  1.000000

  9 D  6.45000000E-01  1.000000

 10 F  1.42800000E+00  1.000000

  H (Hydrogen)
  ------------
            Exponent  Coefficients 
       -------------- ---------------------------------------------------------
  1 S  3.38700000E+01  0.006068
  1 S  5.09500000E+00  0.045308
  1 S  1.15900000E+00  0.202822

  2 S  3.25800000E-01  1.000000

  3 S  1.02700000E-01  1.000000

  4 P  1.40700000E+00  1.000000

  5 P  3.88000000E-01  1.000000

  6 D  1.05700000E+00  1.000000



 Summary of "ao basis" -> "ao basis" (spherical)
 ------------------------------------------------------------------------------
       Tag                 Description            Shells   Functions and Types
 ---------------- ------------------------------  ------  ---------------------
 O                          cc-pVTZ                 10       30   4s3p2d1f
 H                          cc-pVTZ                  6       14   3s2p1d



                            NWChem Direct MCSCF Module
                            --------------------------


                                        H2O


     -----------------------------------
       Basis functions:             58
       Inactive shells:              0
       Active shells:                8
       Active electrons:            10
       Symmetry:                    a       
       Multiplicity:                 1
       Orbital rotations:          400
     -----------------------------------

     -----------------------------------
       E2 extrapolation:             F
       Conjugacy:                    T
       Micro CI relax:               T
       Canonical orbitals:           T
       Maximum iterations:          40
       Converge threshold:    1.00E-04
       Conjugacy resets:            20
       Initial levelshift:        0.10
     -----------------------------------

 Loading old vectors from job with title :

H2O


   input molecular orbitals = ./h2o.mos
  output molecular orbtials = ./h2o.mos

       No. of determinants:          3136


  Starting Orbital Energies
   -20.554679    -1.332031    -0.710576    -0.562357    -0.500860     0.141068
     0.201186     0.547988     0.568905     0.677949     0.788433     0.800968
     0.832593     0.844842     0.978804     1.138795     1.169134     1.525784
     1.526452     1.999652     2.072602     2.084198     2.139732     2.246546
     2.635597     2.927226     3.406292     3.508524     3.522512     3.590012
     3.792557     3.867450     3.876565     3.932647     4.034261     4.090014
     4.157856     4.323585     4.424882     4.441129     4.671015     4.829607
     5.050226     5.249361     5.548544     5.978210     6.396246     6.894548
     6.915334     6.961869     6.988841     7.111322     7.133215     7.181596
     7.491326     7.706967     8.168585    12.614756

  Orbital Symmetry Irreps
a    a    a    a    a    a    a    a    a    a    a    a    a    a    a   
a    a    a    a    a    a    a    a    a    a    a    a    a    a    a   
a    a    a    a    a    a    a    a    a    a    a    a    a    a    a   
a    a    a    a    a    a    a    a    a    a    a    a    a   

 Integral file          = ./H2O.aoints.0
 Record size in doubles =  65536        No. of integs per rec  =  43688
 Max. records in memory =     49        Max. records in file   = 252454
 No. of bits per label  =      8        No. of bits per value  =     64


 #quartets = 3.213D+04 #integrals = 6.608D+05 #direct =  0.0% #cached =100.0%




          %%%%% MacroIteration   1 %%%%%


          Number of sigma calls:       11
                       o<<<<< (aa):             0.01
                       o<<<<< (bb):             0.00
                       o<<<<< (ab):             0.11
                       o<<<<< (total)           0.11
                       o<<<<< (aa) ff           0.00
                       o<<<<< (aa) gop          0.00
                       o<<<<< (aa) dot          0.00
                       o<<<<< (ab) str          0.00
                       o<<<<< (ab) gath         0.00
                       o<<<<< (ab) dotab        0.00
                       o<<<<< (ab) scat         0.00
                       o<<<<< (ab) sync         0.00
                       o<<<<< Density           0.03
                       o<<<<< Density one       0.01
                       o<<<<< Density two       0.00
                       o<<<<< Density ab        0.02
                       o<<<<< Spin adapt        0.25
                       o<<<<< Symm adapt        0.00

                       o<<<<< (ab) max sync:      0.00

           >>>| Valence CI:            -85.049494180713
           >>>| MCSCF energy:          -76.062623238149
           >>>| Gradient norm:          0.426345699D-01
     --- Warning:   96 Hessian diagonals < 0.05 ---
     --- Warning: Precondition failed to converge:Residue: current= 0.4D+00 required= 0.3D-01---
 Increase level shift to     0.24

                              ----- Line search ------

        step       energy         lsg     num-lsg   num-lsh   lsrat    time
      ------- ---------------- --------- --------- --------- ------- --------
       0.0000     -76.06262324 -3.84D-03  0.00D+00  0.00D+00 0.0D+00      2.5

          Number of sigma calls:       13
                       o<<<<< (aa):             0.01
                       o<<<<< (bb):             0.00
                       o<<<<< (ab):             0.12
                       o<<<<< (total)           0.13
                       o<<<<< (aa) ff           0.00
                       o<<<<< (aa) gop          0.00
                       o<<<<< (aa) dot          0.00
                       o<<<<< (ab) str          0.00
                       o<<<<< (ab) gath         0.00
                       o<<<<< (ab) dotab        0.00
                       o<<<<< (ab) scat         0.00
                       o<<<<< (ab) sync         0.00
                       o<<<<< Density           0.01
                       o<<<<< Density one       0.00
                       o<<<<< Density two       0.00
                       o<<<<< Density ab        0.01
                       o<<<<< Spin adapt        0.41
                       o<<<<< Symm adapt        0.00

                       o<<<<< (ab) max sync:      0.00
       1.0000     -76.06698364 -4.85D-03 -4.87D-03 -1.02D-03 1.3D+00      3.2
                     Negative curvature: hessian=-1.02D-03

          Number of sigma calls:       13
                       o<<<<< (aa):             0.01
                       o<<<<< (bb):             0.00
                       o<<<<< (ab):             0.10
                       o<<<<< (total)           0.12
                       o<<<<< (aa) ff           0.00
                       o<<<<< (aa) gop          0.00
                       o<<<<< (aa) dot          0.00
                       o<<<<< (ab) str          0.00
                       o<<<<< (ab) gath         0.00
                       o<<<<< (ab) dotab        0.00
                       o<<<<< (ab) scat         0.00
                       o<<<<< (ab) sync         0.00
                       o<<<<< Density           0.00
                       o<<<<< Density one       0.00
                       o<<<<< Density two       0.00
                       o<<<<< Density ab        0.00
                       o<<<<< Spin adapt        0.35
                       o<<<<< Symm adapt        0.00

                       o<<<<< (ab) max sync:      0.00
       1.5010     -76.06952087 -5.26D-03 -5.27D-03 -8.06D-04 1.4D+00      3.9
                     Negative curvature: hessian=-8.06D-04

          Number of sigma calls:       13
                       o<<<<< (aa):             0.00
                       o<<<<< (bb):             0.00
                       o<<<<< (ab):             0.12
                       o<<<<< (total)           0.12
                       o<<<<< (aa) ff           0.00
                       o<<<<< (aa) gop          0.00
                       o<<<<< (aa) dot          0.00
                       o<<<<< (ab) str          0.00
                       o<<<<< (ab) gath         0.00
                       o<<<<< (ab) dotab        0.00
                       o<<<<< (ab) scat         0.00
                       o<<<<< (ab) sync         0.00
                       o<<<<< Density           0.03
                       o<<<<< Density one       0.01
                       o<<<<< Density two       0.00
                       o<<<<< Density ab        0.02
                       o<<<<< Spin adapt        0.37
                       o<<<<< Symm adapt        0.00

                       o<<<<< (ab) max sync:      0.00
       2.5030     -76.07505791 -5.71D-03 -5.75D-03 -4.47D-04 1.5D+00      4.7
                     Negative curvature: hessian=-4.47D-04

          Number of sigma calls:       14
                       o<<<<< (aa):             0.01
                       o<<<<< (bb):             0.01
                       o<<<<< (ab):             0.12
                       o<<<<< (total)           0.15
                       o<<<<< (aa) ff           0.00
                       o<<<<< (aa) gop          0.00
                       o<<<<< (aa) dot          0.00
                       o<<<<< (ab) str          0.00
                       o<<<<< (ab) gath         0.00
                       o<<<<< (ab) dotab        0.00
                       o<<<<< (ab) scat         0.00
                       o<<<<< (ab) sync         0.00
                       o<<<<< Density           0.00
                       o<<<<< Density one       0.00
                       o<<<<< Density two       0.00
                       o<<<<< Density ab        0.00
                       o<<<<< Spin adapt        0.43
                       o<<<<< Symm adapt        0.00

                       o<<<<< (ab) max sync:      0.00
       4.5070     -76.08612597 -5.01D-03 -5.18D-03  3.47D-04 1.3D+00      5.4
  restricting step size    14.446980651097968     

          Number of sigma calls:       12
                       o<<<<< (aa):             0.00
                       o<<<<< (bb):             0.01
                       o<<<<< (ab):             0.11
                       o<<<<< (total)           0.12
                       o<<<<< (aa) ff           0.00
                       o<<<<< (aa) gop          0.00
                       o<<<<< (aa) dot          0.00
                       o<<<<< (ab) str          0.00
                       o<<<<< (ab) gath         0.00
                       o<<<<< (ab) dotab        0.00
                       o<<<<< (ab) scat         0.00
                       o<<<<< (ab) sync         0.00
                       o<<<<< Density           0.02
                       o<<<<< Density one       0.00
                       o<<<<< Density two       0.00
                       o<<<<< Density ab        0.02
                       o<<<<< Spin adapt        0.42
                       o<<<<< Symm adapt        0.00

                       o<<<<< (ab) max sync:      0.00
       6.7605     -76.09488140 -2.60D-03 -2.68D-03  1.07D-03 6.8D-01      6.2

          Number of sigma calls:       12
                       o<<<<< (aa):             0.00
                       o<<<<< (bb):             0.00
                       o<<<<< (ab):             0.10
                       o<<<<< (total)           0.11
                       o<<<<< (aa) ff           0.00
                       o<<<<< (aa) gop          0.00
                       o<<<<< (aa) dot          0.00
                       o<<<<< (ab) str          0.00
                       o<<<<< (ab) gath         0.00
                       o<<<<< (ab) dotab        0.00
                       o<<<<< (ab) scat         0.00
                       o<<<<< (ab) sync         0.00
                       o<<<<< Density           0.01
                       o<<<<< Density one       0.00
                       o<<<<< Density two       0.00
                       o<<<<< Density ab        0.01
                       o<<<<< Spin adapt        0.39
                       o<<<<< Symm adapt        0.00

                       o<<<<< (ab) max sync:      0.00
       9.1968     -76.09763721  2.85D-04  3.13D-04  1.19D-03 7.4D-02      6.9
     --- Orbitals canonicalized ---



          %%%%% MacroIteration   2 %%%%%


          Number of sigma calls:       11
                       o<<<<< (aa):             0.01
                       o<<<<< (bb):             0.00
                       o<<<<< (ab):             0.09
                       o<<<<< (total)           0.10
                       o<<<<< (aa) ff           0.00
                       o<<<<< (aa) gop          0.00
                       o<<<<< (aa) dot          0.00
                       o<<<<< (ab) str          0.00
                       o<<<<< (ab) gath         0.00
                       o<<<<< (ab) dotab        0.00
                       o<<<<< (ab) scat         0.00
                       o<<<<< (ab) sync         0.00
                       o<<<<< Density           0.02
                       o<<<<< Density one       0.00
                       o<<<<< Density two       0.01
                       o<<<<< Density ab        0.01
                       o<<<<< Spin adapt        0.25
                       o<<<<< Symm adapt        0.00

                       o<<<<< (ab) max sync:      0.00

           >>>| Valence CI:            -85.084508154308
           >>>| MCSCF energy:          -76.097637211744
           >>>| Gradient norm:          0.185854996D+00
     --- Conjugacy reset ---

                              ----- Line search ------

        step       energy         lsg     num-lsg   num-lsh   lsrat    time
      ------- ---------------- --------- --------- --------- ------- --------
       0.0000     -76.09763721 -1.47D-02  0.00D+00  0.00D+00 0.0D+00      7.8

          Number of sigma calls:       13
                       o<<<<< (aa):             0.00
                       o<<<<< (bb):             0.01
                       o<<<<< (ab):             0.14
                       o<<<<< (total)           0.15
                       o<<<<< (aa) ff           0.00
                       o<<<<< (aa) gop          0.00
                       o<<<<< (aa) dot          0.00
                       o<<<<< (ab) str          0.00
                       o<<<<< (ab) gath         0.00
                       o<<<<< (ab) dotab        0.00
                       o<<<<< (ab) scat         0.00
                       o<<<<< (ab) sync         0.00
                       o<<<<< Density           0.01
                       o<<<<< Density one       0.01
                       o<<<<< Density two       0.00
                       o<<<<< Density ab        0.00
                       o<<<<< Spin adapt        0.52
                       o<<<<< Symm adapt        0.00

                       o<<<<< (ab) max sync:      0.00
       1.0000     -76.10827328 -6.03D-03 -6.29D-03  8.69D-03 4.1D-01      8.7

          Number of sigma calls:       12
                       o<<<<< (aa):             0.00
                       o<<<<< (bb):             0.00
                       o<<<<< (ab):             0.11
                       o<<<<< (total)           0.12
                       o<<<<< (aa) ff           0.00
                       o<<<<< (aa) gop          0.00
                       o<<<<< (aa) dot          0.00
                       o<<<<< (ab) str          0.00
                       o<<<<< (ab) gath         0.00
                       o<<<<< (ab) dotab        0.00
                       o<<<<< (ab) scat         0.00
                       o<<<<< (ab) sync         0.00
                       o<<<<< Density           0.01
                       o<<<<< Density one       0.01
                       o<<<<< Density two       0.00
                       o<<<<< Density ab        0.00
                       o<<<<< Spin adapt        0.52
                       o<<<<< Symm adapt        0.00

                       o<<<<< (ab) max sync:      0.00
       1.6934     -76.10991723  1.39D-03  1.34D-03  1.07D-02 9.5D-02      9.5



          %%%%% MacroIteration   3 %%%%%


          Number of sigma calls:        1
                       o<<<<< (aa):             0.00
                       o<<<<< (bb):             0.00
                       o<<<<< (ab):             0.01
                       o<<<<< (total)           0.01
                       o<<<<< (aa) ff           0.00
                       o<<<<< (aa) gop          0.00
                       o<<<<< (aa) dot          0.00
                       o<<<<< (ab) str          0.00
                       o<<<<< (ab) gath         0.00
                       o<<<<< (ab) dotab        0.00
                       o<<<<< (ab) scat         0.00
                       o<<<<< (ab) sync         0.00
                       o<<<<< Density           0.01
                       o<<<<< Density one       0.01
                       o<<<<< Density two       0.00
                       o<<<<< Density ab        0.00
                       o<<<<< Spin adapt        0.00
                       o<<<<< Symm adapt        0.00

                       o<<<<< (ab) max sync:      0.00

           >>>| Valence CI:            -85.096788177353
           >>>| MCSCF energy:          -76.109917234788
           >>>| Gradient norm:          0.119932459D+00

                              ----- Line search ------

        step       energy         lsg     num-lsg   num-lsh   lsrat    time
      ------- ---------------- --------- --------- --------- ------- --------
       0.0000     -76.10991723 -3.27D-03  0.00D+00  0.00D+00 0.0D+00     10.0

          Number of sigma calls:       11
                       o<<<<< (aa):             0.00
                       o<<<<< (bb):             0.01
                       o<<<<< (ab):             0.11
                       o<<<<< (total)           0.12
                       o<<<<< (aa) ff           0.00
                       o<<<<< (aa) gop          0.00
                       o<<<<< (aa) dot          0.00
                       o<<<<< (ab) str          0.00
                       o<<<<< (ab) gath         0.00
                       o<<<<< (ab) dotab        0.00
                       o<<<<< (ab) scat         0.00
                       o<<<<< (ab) sync         0.00
                       o<<<<< Density           0.01
                       o<<<<< Density one       0.00
                       o<<<<< Density two       0.00
                       o<<<<< Density ab        0.01
                       o<<<<< Spin adapt        0.54
                       o<<<<< Symm adapt        0.00

                       o<<<<< (ab) max sync:      0.00
       1.0000     -76.11212233 -1.14D-03 -1.14D-03  2.13D-03 3.5D-01     10.9

          Number of sigma calls:       11
                       o<<<<< (aa):             0.00
                       o<<<<< (bb):             0.00
                       o<<<<< (ab):             0.08
                       o<<<<< (total)           0.09
                       o<<<<< (aa) ff           0.00
                       o<<<<< (aa) gop          0.00
                       o<<<<< (aa) dot          0.00
                       o<<<<< (ab) str          0.00
                       o<<<<< (ab) gath         0.00
                       o<<<<< (ab) dotab        0.00
                       o<<<<< (ab) scat         0.00
                       o<<<<< (ab) sync         0.00
                       o<<<<< Density           0.02
                       o<<<<< Density one       0.00
                       o<<<<< Density two       0.01
                       o<<<<< Density ab        0.01
                       o<<<<< Spin adapt        0.59
                       o<<<<< Symm adapt        0.00

                       o<<<<< (ab) max sync:      0.00
       1.5326     -76.11242329  6.82D-06  6.59D-06  2.15D-03 2.1D-03     11.8



          %%%%% MacroIteration   4 %%%%%


          Number of sigma calls:        1
                       o<<<<< (aa):             0.00
                       o<<<<< (bb):             0.00
                       o<<<<< (ab):             0.01
                       o<<<<< (total)           0.01
                       o<<<<< (aa) ff           0.00
                       o<<<<< (aa) gop          0.00
                       o<<<<< (aa) dot          0.00
                       o<<<<< (ab) str          0.00
                       o<<<<< (ab) gath         0.00
                       o<<<<< (ab) dotab        0.00
                       o<<<<< (ab) scat         0.00
                       o<<<<< (ab) sync         0.00
                       o<<<<< Density           0.02
                       o<<<<< Density one       0.00
                       o<<<<< Density two       0.01
                       o<<<<< Density ab        0.00
                       o<<<<< Spin adapt        0.00
                       o<<<<< Symm adapt        0.00

                       o<<<<< (ab) max sync:      0.00

           >>>| Valence CI:            -85.099294229938
           >>>| MCSCF energy:          -76.112423287375
           >>>| Gradient norm:          0.581566027D-01
     --- Warning:   38 Hessian diagonals < 0.05 ---
     --- Warning: Precondition failed to converge:Residue: current= 0.7D-01 required= 0.3D-01---
 Increase level shift to     0.24

                              ----- Line search ------

        step       energy         lsg     num-lsg   num-lsh   lsrat    time
      ------- ---------------- --------- --------- --------- ------- --------
       0.0000     -76.11242329 -8.26D-04  0.00D+00  0.00D+00 0.0D+00     12.8

          Number of sigma calls:       11
                       o<<<<< (aa):             0.00
                       o<<<<< (bb):             0.00
                       o<<<<< (ab):             0.10
                       o<<<<< (total)           0.10
                       o<<<<< (aa) ff           0.00
                       o<<<<< (aa) gop          0.00
                       o<<<<< (aa) dot          0.00
                       o<<<<< (ab) str          0.00
                       o<<<<< (ab) gath         0.00
                       o<<<<< (ab) dotab        0.00
                       o<<<<< (ab) scat         0.00
                       o<<<<< (ab) sync         0.00
                       o<<<<< Density           0.01
                       o<<<<< Density one       0.00
                       o<<<<< Density two       0.00
                       o<<<<< Density ab        0.01
                       o<<<<< Spin adapt        0.55
                       o<<<<< Symm adapt        0.00

                       o<<<<< (ab) max sync:      0.00
       1.0000     -76.11319726 -7.19D-04 -7.21D-04  1.07D-04 8.7D-01     13.7
  restricting step size    6.7305724562613580     

          Number of sigma calls:       13
                       o<<<<< (aa):             0.00
                       o<<<<< (bb):             0.00
                       o<<<<< (ab):             0.11
                       o<<<<< (total)           0.12
                       o<<<<< (aa) ff           0.00
                       o<<<<< (aa) gop          0.00
                       o<<<<< (aa) dot          0.00
                       o<<<<< (ab) str          0.00
                       o<<<<< (ab) gath         0.00
                       o<<<<< (ab) dotab        0.00
                       o<<<<< (ab) scat         0.00
                       o<<<<< (ab) sync         0.00
                       o<<<<< Density           0.02
                       o<<<<< Density one       0.00
                       o<<<<< Density two       0.00
                       o<<<<< Density ab        0.02
                       o<<<<< Spin adapt        0.74
                       o<<<<< Symm adapt        0.00

                       o<<<<< (ab) max sync:      0.00
       5.0000     -76.11496732 -1.31D-04 -1.49D-04  1.47D-04 1.6D-01     15.0

          Number of sigma calls:       12
                       o<<<<< (aa):             0.01
                       o<<<<< (bb):             0.01
                       o<<<<< (ab):             0.14
                       o<<<<< (total)           0.16
                       o<<<<< (aa) ff           0.00
                       o<<<<< (aa) gop          0.00
                       o<<<<< (aa) dot          0.00
                       o<<<<< (ab) str          0.00
                       o<<<<< (ab) gath         0.00
                       o<<<<< (ab) dotab        0.00
                       o<<<<< (ab) scat         0.00
                       o<<<<< (ab) sync         0.00
                       o<<<<< Density           0.02
                       o<<<<< Density one       0.01
                       o<<<<< Density two       0.00
                       o<<<<< Density ab        0.01
                       o<<<<< Spin adapt        0.81
                       o<<<<< Symm adapt        0.00

                       o<<<<< (ab) max sync:      0.00
       5.8912     -76.11501609  2.23D-05  2.19D-05  1.72D-04 2.7D-02     16.2



          %%%%% MacroIteration   5 %%%%%


          Number of sigma calls:        1
                       o<<<<< (aa):             0.01
                       o<<<<< (bb):             0.00
                       o<<<<< (ab):             0.00
                       o<<<<< (total)           0.01
                       o<<<<< (aa) ff           0.00
                       o<<<<< (aa) gop          0.00
                       o<<<<< (aa) dot          0.00
                       o<<<<< (ab) str          0.00
                       o<<<<< (ab) gath         0.00
                       o<<<<< (ab) dotab        0.00
                       o<<<<< (ab) scat         0.00
                       o<<<<< (ab) sync         0.00
                       o<<<<< Density           0.01
                       o<<<<< Density one       0.00
                       o<<<<< Density two       0.01
                       o<<<<< Density ab        0.00
                       o<<<<< Spin adapt        0.00
                       o<<<<< Symm adapt        0.00

                       o<<<<< (ab) max sync:      0.00

           >>>| Valence CI:            -85.101887029357
           >>>| MCSCF energy:          -76.115016086793
           >>>| Gradient norm:          0.727824078D-01
     --- Warning:   20 Hessian diagonals < 0.05 ---
     --- Warning: Precondition failed to converge:Residue: current= 0.3D-01 required= 0.3D-01---

                              ----- Line search ------

        step       energy         lsg     num-lsg   num-lsh   lsrat    time
      ------- ---------------- --------- --------- --------- ------- --------
       0.0000     -76.11501609 -3.16D-03  0.00D+00  0.00D+00 0.0D+00     17.0

          Number of sigma calls:       15
                       o<<<<< (aa):             0.01
                       o<<<<< (bb):             0.01
                       o<<<<< (ab):             0.12
                       o<<<<< (total)           0.14
                       o<<<<< (aa) ff           0.00
                       o<<<<< (aa) gop          0.00
                       o<<<<< (aa) dot          0.00
                       o<<<<< (ab) str          0.00
                       o<<<<< (ab) gath         0.00
                       o<<<<< (ab) dotab        0.00
                       o<<<<< (ab) scat         0.00
                       o<<<<< (ab) sync         0.00
                       o<<<<< Density           0.01
                       o<<<<< Density one       0.00
                       o<<<<< Density two       0.00
                       o<<<<< Density ab        0.01
                       o<<<<< Spin adapt        0.63
                       o<<<<< Symm adapt        0.00

                       o<<<<< (ab) max sync:      0.00
       1.0000     -76.11722653 -1.21D-03 -1.23D-03  1.95D-03 3.8D-01     18.0

          Number of sigma calls:       15
                       o<<<<< (aa):             0.02
                       o<<<<< (bb):             0.01
                       o<<<<< (ab):             0.13
                       o<<<<< (total)           0.16
                       o<<<<< (aa) ff           0.00
                       o<<<<< (aa) gop          0.00
                       o<<<<< (aa) dot          0.00
                       o<<<<< (ab) str          0.00
                       o<<<<< (ab) gath         0.00
                       o<<<<< (ab) dotab        0.00
                       o<<<<< (ab) scat         0.00
                       o<<<<< (ab) sync         0.00
                       o<<<<< Density           0.02
                       o<<<<< Density one       0.01
                       o<<<<< Density two       0.00
                       o<<<<< Density ab        0.01
                       o<<<<< Spin adapt        0.91
                       o<<<<< Symm adapt        0.00

                       o<<<<< (ab) max sync:      0.00
       1.6174     -76.11758542  3.30D-05  3.86D-05  2.01D-03 1.0D-02     19.4



          %%%%% MacroIteration   6 %%%%%


          Number of sigma calls:        1
                       o<<<<< (aa):             0.00
                       o<<<<< (bb):             0.00
                       o<<<<< (ab):             0.01
                       o<<<<< (total)           0.01
                       o<<<<< (aa) ff           0.00
                       o<<<<< (aa) gop          0.00
                       o<<<<< (aa) dot          0.00
                       o<<<<< (ab) str          0.00
                       o<<<<< (ab) gath         0.00
                       o<<<<< (ab) dotab        0.00
                       o<<<<< (ab) scat         0.00
                       o<<<<< (ab) sync         0.00
                       o<<<<< Density           0.02
                       o<<<<< Density one       0.00
                       o<<<<< Density two       0.00
                       o<<<<< Density ab        0.02
                       o<<<<< Spin adapt        0.00
                       o<<<<< Symm adapt        0.00

                       o<<<<< (ab) max sync:      0.00

           >>>| Valence CI:            -85.104456357721
           >>>| MCSCF energy:          -76.117585415158
           >>>| Gradient norm:          0.471981446D-01
     --- Warning:   18 Hessian diagonals < 0.05 ---

                              ----- Line search ------

        step       energy         lsg     num-lsg   num-lsh   lsrat    time
      ------- ---------------- --------- --------- --------- ------- --------
       0.0000     -76.11758542 -6.52D-04  0.00D+00  0.00D+00 0.0D+00     19.7

          Number of sigma calls:       14
                       o<<<<< (aa):             0.00
                       o<<<<< (bb):             0.00
                       o<<<<< (ab):             0.14
                       o<<<<< (total)           0.15
                       o<<<<< (aa) ff           0.00
                       o<<<<< (aa) gop          0.00
                       o<<<<< (aa) dot          0.00
                       o<<<<< (ab) str          0.00
                       o<<<<< (ab) gath         0.00
                       o<<<<< (ab) dotab        0.00
                       o<<<<< (ab) scat         0.00
                       o<<<<< (ab) sync         0.00
                       o<<<<< Density           0.03
                       o<<<<< Density one       0.01
                       o<<<<< Density two       0.00
                       o<<<<< Density ab        0.02
                       o<<<<< Spin adapt        0.78
                       o<<<<< Symm adapt        0.00

                       o<<<<< (ab) max sync:      0.00
       1.0000     -76.11799795 -1.73D-04 -1.73D-04  4.79D-04 2.7D-01     20.9

          Number of sigma calls:       14
                       o<<<<< (aa):             0.01
                       o<<<<< (bb):             0.00
                       o<<<<< (ab):             0.14
                       o<<<<< (total)           0.15
                       o<<<<< (aa) ff           0.00
                       o<<<<< (aa) gop          0.00
                       o<<<<< (aa) dot          0.00
                       o<<<<< (ab) str          0.00
                       o<<<<< (ab) gath         0.00
                       o<<<<< (ab) dotab        0.00
                       o<<<<< (ab) scat         0.00
                       o<<<<< (ab) sync         0.00
                       o<<<<< Density           0.00
                       o<<<<< Density one       0.00
                       o<<<<< Density two       0.00
                       o<<<<< Density ab        0.00
                       o<<<<< Spin adapt        0.90
                       o<<<<< Symm adapt        0.00

                       o<<<<< (ab) max sync:      0.00
       1.3616     -76.11802935 -5.53D-07 -5.11D-07  4.77D-04 8.5D-04     22.2



          %%%%% MacroIteration   7 %%%%%


          Number of sigma calls:        1
                       o<<<<< (aa):             0.00
                       o<<<<< (bb):             0.00
                       o<<<<< (ab):             0.01
                       o<<<<< (total)           0.01
                       o<<<<< (aa) ff           0.00
                       o<<<<< (aa) gop          0.00
                       o<<<<< (aa) dot          0.00
                       o<<<<< (ab) str          0.00
                       o<<<<< (ab) gath         0.00
                       o<<<<< (ab) dotab        0.00
                       o<<<<< (ab) scat         0.00
                       o<<<<< (ab) sync         0.00
                       o<<<<< Density           0.02
                       o<<<<< Density one       0.01
                       o<<<<< Density two       0.00
                       o<<<<< Density ab        0.01
                       o<<<<< Spin adapt        0.00
                       o<<<<< Symm adapt        0.00

                       o<<<<< (ab) max sync:      0.00

           >>>| Valence CI:            -85.104900295843
           >>>| MCSCF energy:          -76.118029353280
           >>>| Gradient norm:          0.153725876D-01
     --- Warning:   19 Hessian diagonals < 0.05 ---

                              ----- Line search ------

        step       energy         lsg     num-lsg   num-lsh   lsrat    time
      ------- ---------------- --------- --------- --------- ------- --------
       0.0000     -76.11802935 -4.96D-05  0.00D+00  0.00D+00 0.0D+00     22.6

          Number of sigma calls:       13
                       o<<<<< (aa):             0.00
                       o<<<<< (bb):             0.01
                       o<<<<< (ab):             0.11
                       o<<<<< (total)           0.12
                       o<<<<< (aa) ff           0.00
                       o<<<<< (aa) gop          0.00
                       o<<<<< (aa) dot          0.00
                       o<<<<< (ab) str          0.00
                       o<<<<< (ab) gath         0.00
                       o<<<<< (ab) dotab        0.00
                       o<<<<< (ab) scat         0.00
                       o<<<<< (ab) sync         0.00
                       o<<<<< Density           0.01
                       o<<<<< Density one       0.00
                       o<<<<< Density two       0.00
                       o<<<<< Density ab        0.01
                       o<<<<< Spin adapt        0.83
                       o<<<<< Symm adapt        0.00

                       o<<<<< (ab) max sync:      0.00
       1.0000     -76.11806343 -1.85D-05 -1.85D-05  3.11D-05 3.7D-01     23.8

          Number of sigma calls:       13
                       o<<<<< (aa):             0.00
                       o<<<<< (bb):             0.00
                       o<<<<< (ab):             0.12
                       o<<<<< (total)           0.12
                       o<<<<< (aa) ff           0.00
                       o<<<<< (aa) gop          0.00
                       o<<<<< (aa) dot          0.00
                       o<<<<< (ab) str          0.00
                       o<<<<< (ab) gath         0.00
                       o<<<<< (ab) dotab        0.00
                       o<<<<< (ab) scat         0.00
                       o<<<<< (ab) sync         0.00
                       o<<<<< Density           0.01
                       o<<<<< Density one       0.01
                       o<<<<< Density two       0.00
                       o<<<<< Density ab        0.00
                       o<<<<< Spin adapt        0.88
                       o<<<<< Symm adapt        0.00

                       o<<<<< (ab) max sync:      0.00
       1.5970     -76.11806897 -4.16D-08 -3.88D-08  3.10D-05 8.4D-04     25.0



          %%%%% MacroIteration   8 %%%%%


          Number of sigma calls:        1
                       o<<<<< (aa):             0.00
                       o<<<<< (bb):             0.00
                       o<<<<< (ab):             0.01
                       o<<<<< (total)           0.01
                       o<<<<< (aa) ff           0.00
                       o<<<<< (aa) gop          0.00
                       o<<<<< (aa) dot          0.00
                       o<<<<< (ab) str          0.00
                       o<<<<< (ab) gath         0.00
                       o<<<<< (ab) dotab        0.00
                       o<<<<< (ab) scat         0.00
                       o<<<<< (ab) sync         0.00
                       o<<<<< Density           0.01
                       o<<<<< Density one       0.00
                       o<<<<< Density two       0.00
                       o<<<<< Density ab        0.01
                       o<<<<< Spin adapt        0.00
                       o<<<<< Symm adapt        0.00

                       o<<<<< (ab) max sync:      0.00

           >>>| Valence CI:            -85.104939914887
           >>>| MCSCF energy:          -76.118068972324
           >>>| Gradient norm:          0.473569028D-02
     --- Warning:   42 Hessian diagonals < 0.05 ---
     --- Warning: Precondition failed to converge:Residue: current= 0.3D-01 required= 0.3D-01---

                              ----- Line search ------

        step       energy         lsg     num-lsg   num-lsh   lsrat    time
      ------- ---------------- --------- --------- --------- ------- --------
       0.0000     -76.11806897 -1.86D-05  0.00D+00  0.00D+00 0.0D+00     25.8

          Number of sigma calls:       14
                       o<<<<< (aa):             0.01
                       o<<<<< (bb):             0.00
                       o<<<<< (ab):             0.12
                       o<<<<< (total)           0.13
                       o<<<<< (aa) ff           0.00
                       o<<<<< (aa) gop          0.00
                       o<<<<< (aa) dot          0.00
                       o<<<<< (ab) str          0.00
                       o<<<<< (ab) gath         0.00
                       o<<<<< (ab) dotab        0.00
                       o<<<<< (ab) scat         0.00
                       o<<<<< (ab) sync         0.00
                       o<<<<< Density           0.02
                       o<<<<< Density one       0.00
                       o<<<<< Density two       0.01
                       o<<<<< Density ab        0.01
                       o<<<<< Spin adapt        0.74
                       o<<<<< Symm adapt        0.00

                       o<<<<< (ab) max sync:      0.00
       1.0000     -76.11808507 -1.36D-05 -1.36D-05  5.00D-06 7.3D-01     26.9

          Number of sigma calls:       15
                       o<<<<< (aa):             0.00
                       o<<<<< (bb):             0.00
                       o<<<<< (ab):             0.16
                       o<<<<< (total)           0.17
                       o<<<<< (aa) ff           0.00
                       o<<<<< (aa) gop          0.00
                       o<<<<< (aa) dot          0.00
                       o<<<<< (ab) str          0.00
                       o<<<<< (ab) gath         0.00
                       o<<<<< (ab) dotab        0.00
                       o<<<<< (ab) scat         0.00
                       o<<<<< (ab) sync         0.00
                       o<<<<< Density           0.02
                       o<<<<< Density one       0.01
                       o<<<<< Density two       0.00
                       o<<<<< Density ab        0.01
                       o<<<<< Spin adapt        0.88
                       o<<<<< Symm adapt        0.00

                       o<<<<< (ab) max sync:      0.00
       3.7235     -76.11810411 -4.84D-07 -4.29D-07  4.82D-06 2.6D-02     28.2



          %%%%% MacroIteration   9 %%%%%


          Number of sigma calls:        1
                       o<<<<< (aa):             0.00
                       o<<<<< (bb):             0.00
                       o<<<<< (ab):             0.01
                       o<<<<< (total)           0.01
                       o<<<<< (aa) ff           0.00
                       o<<<<< (aa) gop          0.00
                       o<<<<< (aa) dot          0.00
                       o<<<<< (ab) str          0.00
                       o<<<<< (ab) gath         0.00
                       o<<<<< (ab) dotab        0.00
                       o<<<<< (ab) scat         0.00
                       o<<<<< (ab) sync         0.00
                       o<<<<< Density           0.02
                       o<<<<< Density one       0.01
                       o<<<<< Density two       0.00
                       o<<<<< Density ab        0.01
                       o<<<<< Spin adapt        0.00
                       o<<<<< Symm adapt        0.00

                       o<<<<< (ab) max sync:      0.00

           >>>| Valence CI:            -85.104975053693
           >>>| MCSCF energy:          -76.118104111130
           >>>| Gradient norm:          0.778684907D-02
     --- Warning:   43 Hessian diagonals < 0.05 ---
     --- Warning: Precondition failed to converge:Residue: current= 0.1D+00 required= 0.3D-01---
 Increase level shift to     0.20

                              ----- Line search ------

        step       energy         lsg     num-lsg   num-lsh   lsrat    time
      ------- ---------------- --------- --------- --------- ------- --------
       0.0000     -76.11810411 -2.84D-05  0.00D+00  0.00D+00 0.0D+00     29.2

          Number of sigma calls:       15
                       o<<<<< (aa):             0.00
                       o<<<<< (bb):             0.01
                       o<<<<< (ab):             0.17
                       o<<<<< (total)           0.18
                       o<<<<< (aa) ff           0.00
                       o<<<<< (aa) gop          0.00
                       o<<<<< (aa) dot          0.00
                       o<<<<< (ab) str          0.00
                       o<<<<< (ab) gath         0.00
                       o<<<<< (ab) dotab        0.00
                       o<<<<< (ab) scat         0.00
                       o<<<<< (ab) sync         0.00
                       o<<<<< Density           0.02
                       o<<<<< Density one       0.01
                       o<<<<< Density two       0.00
                       o<<<<< Density ab        0.01
                       o<<<<< Spin adapt        0.77
                       o<<<<< Symm adapt        0.00

                       o<<<<< (ab) max sync:      0.00
       1.0000     -76.11813800 -3.94D-05 -3.94D-05 -1.10D-05 1.4D+00     30.4
                     Negative curvature: hessian=-1.10D-05

          Number of sigma calls:       14
                       o<<<<< (aa):             0.00
                       o<<<<< (bb):             0.00
                       o<<<<< (ab):             0.12
                       o<<<<< (total)           0.12
                       o<<<<< (aa) ff           0.00
                       o<<<<< (aa) gop          0.00
                       o<<<<< (aa) dot          0.00
                       o<<<<< (ab) str          0.00
                       o<<<<< (ab) gath         0.00
                       o<<<<< (ab) dotab        0.00
                       o<<<<< (ab) scat         0.00
                       o<<<<< (ab) sync         0.00
                       o<<<<< Density           0.02
                       o<<<<< Density one       0.00
                       o<<<<< Density two       0.00
                       o<<<<< Density ab        0.02
                       o<<<<< Spin adapt        0.71
                       o<<<<< Symm adapt        0.00

                       o<<<<< (ab) max sync:      0.00
       1.5010     -76.11815915 -4.50D-05 -4.50D-05 -1.11D-05 1.6D+00     31.5
                     Negative curvature: hessian=-1.11D-05

          Number of sigma calls:       15
                       o<<<<< (aa):             0.00
                       o<<<<< (bb):             0.01
                       o<<<<< (ab):             0.12
                       o<<<<< (total)           0.14
                       o<<<<< (aa) ff           0.00
                       o<<<<< (aa) gop          0.00
                       o<<<<< (aa) dot          0.00
                       o<<<<< (ab) str          0.00
                       o<<<<< (ab) gath         0.00
                       o<<<<< (ab) dotab        0.00
                       o<<<<< (ab) scat         0.00
                       o<<<<< (ab) sync         0.00
                       o<<<<< Density           0.00
                       o<<<<< Density one       0.00
                       o<<<<< Density two       0.00
                       o<<<<< Density ab        0.00
                       o<<<<< Spin adapt        0.85
                       o<<<<< Symm adapt        0.00

                       o<<<<< (ab) max sync:      0.00
       2.5030     -76.11820982 -5.61D-05 -5.61D-05 -1.11D-05 2.0D+00     32.7
                     Negative curvature: hessian=-1.11D-05

          Number of sigma calls:       16
                       o<<<<< (aa):             0.01
                       o<<<<< (bb):             0.00
                       o<<<<< (ab):             0.14
                       o<<<<< (total)           0.15
                       o<<<<< (aa) ff           0.00
                       o<<<<< (aa) gop          0.00
                       o<<<<< (aa) dot          0.00
                       o<<<<< (ab) str          0.00
                       o<<<<< (ab) gath         0.00
                       o<<<<< (ab) dotab        0.00
                       o<<<<< (ab) scat         0.00
                       o<<<<< (ab) sync         0.00
                       o<<<<< Density           0.02
                       o<<<<< Density one       0.00
                       o<<<<< Density two       0.01
                       o<<<<< Density ab        0.01
                       o<<<<< Spin adapt        0.95
                       o<<<<< Symm adapt        0.00

                       o<<<<< (ab) max sync:      0.00
       4.5070     -76.11834331 -7.66D-05 -7.69D-05 -1.03D-05 2.7D+00     34.0
                     Negative curvature: hessian=-1.03D-05

          Number of sigma calls:       17
                       o<<<<< (aa):             0.00
                       o<<<<< (bb):             0.01
                       o<<<<< (ab):             0.14
                       o<<<<< (total)           0.16
                       o<<<<< (aa) ff           0.00
                       o<<<<< (aa) gop          0.00
                       o<<<<< (aa) dot          0.00
                       o<<<<< (ab) str          0.00
                       o<<<<< (ab) gath         0.00
                       o<<<<< (ab) dotab        0.00
                       o<<<<< (ab) scat         0.00
                       o<<<<< (ab) sync         0.00
                       o<<<<< Density           0.02
                       o<<<<< Density one       0.00
                       o<<<<< Density two       0.01
                       o<<<<< Density ab        0.01
                       o<<<<< Spin adapt        0.94
                       o<<<<< Symm adapt        0.00

                       o<<<<< (ab) max sync:      0.00
       8.5150     -76.11871055 -1.02D-04 -1.04D-04 -6.35D-06 3.6D+00     35.4
                     Negative curvature: hessian=-6.35D-06

          Number of sigma calls:       18
                       o<<<<< (aa):             0.00
                       o<<<<< (bb):             0.02
                       o<<<<< (ab):             0.18
                       o<<<<< (total)           0.21
                       o<<<<< (aa) ff           0.00
                       o<<<<< (aa) gop          0.00
                       o<<<<< (aa) dot          0.00
                       o<<<<< (ab) str          0.00
                       o<<<<< (ab) gath         0.00
                       o<<<<< (ab) dotab        0.00
                       o<<<<< (ab) scat         0.00
                       o<<<<< (ab) sync         0.00
                       o<<<<< Density           0.02
                       o<<<<< Density one       0.01
                       o<<<<< Density two       0.00
                       o<<<<< Density ab        0.01
                       o<<<<< Spin adapt        1.03
                       o<<<<< Symm adapt        0.00

                       o<<<<< (ab) max sync:      0.00
      16.5310     -76.11940127 -4.27D-05 -5.65D-05  7.40D-06 1.5D+00     36.8
  restricting step size    5.7745554663837311     

          Number of sigma calls:       17
                       o<<<<< (aa):             0.01
                       o<<<<< (bb):             0.01
                       o<<<<< (ab):             0.15
                       o<<<<< (total)           0.18
                       o<<<<< (aa) ff           0.00
                       o<<<<< (aa) gop          0.00
                       o<<<<< (aa) dot          0.00
                       o<<<<< (ab) str          0.00
                       o<<<<< (ab) gath         0.00
                       o<<<<< (ab) dotab        0.00
                       o<<<<< (ab) scat         0.00
                       o<<<<< (ab) sync         0.00
                       o<<<<< Density           0.04
                       o<<<<< Density one       0.01
                       o<<<<< Density two       0.01
                       o<<<<< Density ab        0.02
                       o<<<<< Spin adapt        0.93
                       o<<<<< Symm adapt        0.00

                       o<<<<< (ab) max sync:      0.00
      20.5310     -76.11940886  4.39D-05  4.14D-05  2.17D-05 1.5D+00     38.2

          Number of sigma calls:       16
                       o<<<<< (aa):             0.01
                       o<<<<< (bb):             0.00
                       o<<<<< (ab):             0.16
                       o<<<<< (total)           0.18
                       o<<<<< (aa) ff           0.00
                       o<<<<< (aa) gop          0.00
                       o<<<<< (aa) dot          0.00
                       o<<<<< (ab) str          0.00
                       o<<<<< (ab) gath         0.00
                       o<<<<< (ab) dotab        0.00
                       o<<<<< (ab) scat         0.00
                       o<<<<< (ab) sync         0.00
                       o<<<<< Density           0.02
                       o<<<<< Density one       0.00
                       o<<<<< Density two       0.01
                       o<<<<< Density ab        0.01
                       o<<<<< Spin adapt        0.97
                       o<<<<< Symm adapt        0.00

                       o<<<<< (ab) max sync:      0.00
      18.5034     -76.11944849 -3.75D-06 -4.30D-06  2.35D-05 1.3D-01     39.8

          Number of sigma calls:       13
                       o<<<<< (aa):             0.00
                       o<<<<< (bb):             0.01
                       o<<<<< (ab):             0.13
                       o<<<<< (total)           0.14
                       o<<<<< (aa) ff           0.00
                       o<<<<< (aa) gop          0.00
                       o<<<<< (aa) dot          0.00
                       o<<<<< (ab) str          0.00
                       o<<<<< (ab) gath         0.00
                       o<<<<< (ab) dotab        0.00
                       o<<<<< (ab) scat         0.00
                       o<<<<< (ab) sync         0.00
                       o<<<<< Density           0.02
                       o<<<<< Density one       0.01
                       o<<<<< Density two       0.00
                       o<<<<< Density ab        0.01
                       o<<<<< Spin adapt        0.73
                       o<<<<< Symm adapt        0.00

                       o<<<<< (ab) max sync:      0.00
      18.6630     -76.11944881 -2.51D-07 -2.55D-07  2.19D-05 8.9D-03     40.9



          %%%%% MacroIteration  10 %%%%%


          Number of sigma calls:        1
                       o<<<<< (aa):             0.00
                       o<<<<< (bb):             0.00
                       o<<<<< (ab):             0.01
                       o<<<<< (total)           0.01
                       o<<<<< (aa) ff           0.00
                       o<<<<< (aa) gop          0.00
                       o<<<<< (aa) dot          0.00
                       o<<<<< (ab) str          0.00
                       o<<<<< (ab) gath         0.00
                       o<<<<< (ab) dotab        0.00
                       o<<<<< (ab) scat         0.00
                       o<<<<< (ab) sync         0.00
                       o<<<<< Density           0.03
                       o<<<<< Density one       0.01
                       o<<<<< Density two       0.00
                       o<<<<< Density ab        0.02
                       o<<<<< Spin adapt        0.00
                       o<<<<< Symm adapt        0.00

                       o<<<<< (ab) max sync:      0.00

           >>>| Valence CI:            -85.106319754952
           >>>| MCSCF energy:          -76.119448812388
           >>>| Gradient norm:          0.575183771D-01
     --- Warning:   18 Hessian diagonals < 0.05 ---
     --- Warning: Precondition failed to converge:Residue: current= 0.3D-01 required= 0.3D-01---

                              ----- Line search ------

        step       energy         lsg     num-lsg   num-lsh   lsrat    time
      ------- ---------------- --------- --------- --------- ------- --------
       0.0000     -76.11944881 -1.15D-02  0.00D+00  0.00D+00 0.0D+00     41.6

          Number of sigma calls:       18
                       o<<<<< (aa):             0.01
                       o<<<<< (bb):             0.00
                       o<<<<< (ab):             0.13
                       o<<<<< (total)           0.14
                       o<<<<< (aa) ff           0.00
                       o<<<<< (aa) gop          0.00
                       o<<<<< (aa) dot          0.00
                       o<<<<< (ab) str          0.00
                       o<<<<< (ab) gath         0.00
                       o<<<<< (ab) dotab        0.00
                       o<<<<< (ab) scat         0.00
                       o<<<<< (ab) sync         0.00
                       o<<<<< Density           0.02
                       o<<<<< Density one       0.01
                       o<<<<< Density two       0.00
                       o<<<<< Density ab        0.01
                       o<<<<< Spin adapt        1.03
                       o<<<<< Symm adapt        0.00

                       o<<<<< (ab) max sync:      0.00
       1.0000     -76.00402477  2.48D-01  2.45D-01  2.59D-01 2.2D+01     43.0
                    Energy increase :             0.11542404 backtrack

          Number of sigma calls:       18
                       o<<<<< (aa):             0.01
                       o<<<<< (bb):             0.01
                       o<<<<< (ab):             0.15
                       o<<<<< (total)           0.17
                       o<<<<< (aa) ff           0.00
                       o<<<<< (aa) gop          0.00
                       o<<<<< (aa) dot          0.00
                       o<<<<< (ab) str          0.00
                       o<<<<< (ab) gath         0.00
                       o<<<<< (ab) dotab        0.00
                       o<<<<< (ab) scat         0.00
                       o<<<<< (ab) sync         0.00
                       o<<<<< Density           0.00
                       o<<<<< Density one       0.00
                       o<<<<< Density two       0.00
                       o<<<<< Density ab        0.00
                       o<<<<< Spin adapt        1.01
                       o<<<<< Symm adapt        0.00

                       o<<<<< (ab) max sync:      0.00
       0.6667     -76.04521218  1.42D-01  7.04D-02  3.19D-01 1.2D+01     44.5
                    Energy increase :             0.07423663 backtrack

          Number of sigma calls:       16
                       o<<<<< (aa):             0.00
                       o<<<<< (bb):             0.01
                       o<<<<< (ab):             0.14
                       o<<<<< (total)           0.15
                       o<<<<< (aa) ff           0.00
                       o<<<<< (aa) gop          0.00
                       o<<<<< (aa) dot          0.00
                       o<<<<< (ab) str          0.00
                       o<<<<< (ab) gath         0.00
                       o<<<<< (ab) dotab        0.00
                       o<<<<< (ab) scat         0.00
                       o<<<<< (ab) sync         0.00
                       o<<<<< Density           0.01
                       o<<<<< Density one       0.01
                       o<<<<< Density two       0.00
                       o<<<<< Density ab        0.00
                       o<<<<< Spin adapt        0.93
                       o<<<<< Symm adapt        0.00

                       o<<<<< (ab) max sync:      0.00
       0.4444     -76.07135636  4.78D-02  7.07D-02  4.22D-01 4.2D+00     45.8
                    Energy increase :             0.04809245 backtrack

          Number of sigma calls:       18
                       o<<<<< (aa):             0.01
                       o<<<<< (bb):             0.00
                       o<<<<< (ab):             0.14
                       o<<<<< (total)           0.15
                       o<<<<< (aa) ff           0.00
                       o<<<<< (aa) gop          0.00
                       o<<<<< (aa) dot          0.00
                       o<<<<< (ab) str          0.00
                       o<<<<< (ab) gath         0.00
                       o<<<<< (ab) dotab        0.00
                       o<<<<< (ab) scat         0.00
                       o<<<<< (ab) sync         0.00
                       o<<<<< Density           0.03
                       o<<<<< Density one       0.01
                       o<<<<< Density two       0.00
                       o<<<<< Density ab        0.02
                       o<<<<< Spin adapt        1.09
                       o<<<<< Symm adapt        0.00

                       o<<<<< (ab) max sync:      0.00
       0.2963     -76.09281939  1.62D-02  1.29D-01  2.13D-01 1.4D+00     47.3
                    Energy increase :             0.02662942 backtrack

          Number of sigma calls:       18
                       o<<<<< (aa):             0.00
                       o<<<<< (bb):             0.01
                       o<<<<< (ab):             0.16
                       o<<<<< (total)           0.17
                       o<<<<< (aa) ff           0.00
                       o<<<<< (aa) gop          0.00
                       o<<<<< (aa) dot          0.00
                       o<<<<< (ab) str          0.00
                       o<<<<< (ab) gath         0.00
                       o<<<<< (ab) dotab        0.00
                       o<<<<< (ab) scat         0.00
                       o<<<<< (ab) sync         0.00
                       o<<<<< Density           0.04
                       o<<<<< Density one       0.00
                       o<<<<< Density two       0.01
                       o<<<<< Density ab        0.03
                       o<<<<< Spin adapt        1.10
                       o<<<<< Symm adapt        0.00

                       o<<<<< (ab) max sync:      0.00
       0.1975     -76.10642519  2.07D-01  2.33D-01 -1.93D+00 1.8D+01     48.8
                    Energy increase :             0.01302362 backtrack

          Number of sigma calls:       18
                       o<<<<< (aa):             0.00
                       o<<<<< (bb):             0.02
                       o<<<<< (ab):             0.18
                       o<<<<< (total)           0.19
                       o<<<<< (aa) ff           0.00
                       o<<<<< (aa) gop          0.00
                       o<<<<< (aa) dot          0.00
                       o<<<<< (ab) str          0.00
                       o<<<<< (ab) gath         0.00
                       o<<<<< (ab) dotab        0.00
                       o<<<<< (ab) scat         0.00
                       o<<<<< (ab) sync         0.00
                       o<<<<< Density           0.02
                       o<<<<< Density one       0.00
                       o<<<<< Density two       0.01
                       o<<<<< Density ab        0.01
                       o<<<<< Spin adapt        1.07
                       o<<<<< Symm adapt        0.00

                       o<<<<< (ab) max sync:      0.00
       0.1317     -76.11080000 -4.68D-03 -3.92D-02  3.21D+00 4.1D-01     50.4
                    Energy increase :             0.00864881 backtrack

          Number of sigma calls:       15
                       o<<<<< (aa):             0.00
                       o<<<<< (bb):             0.01
                       o<<<<< (ab):             0.14
                       o<<<<< (total)           0.15
                       o<<<<< (aa) ff           0.00
                       o<<<<< (aa) gop          0.00
                       o<<<<< (aa) dot          0.00
                       o<<<<< (ab) str          0.00
                       o<<<<< (ab) gath         0.00
                       o<<<<< (ab) dotab        0.00
                       o<<<<< (ab) scat         0.00
                       o<<<<< (ab) sync         0.00
                       o<<<<< Density           0.02
                       o<<<<< Density one       0.00
                       o<<<<< Density two       0.01
                       o<<<<< Density ab        0.01
                       o<<<<< Spin adapt        0.88
                       o<<<<< Symm adapt        0.00

                       o<<<<< (ab) max sync:      0.00
       0.0878     -76.11218422  7.26D-02  7.01D-02 -1.76D+00 6.3D+00     51.7
                    Energy increase :             0.00726460 backtrack

          Number of sigma calls:       15
                       o<<<<< (aa):             0.00
                       o<<<<< (bb):             0.01
                       o<<<<< (ab):             0.14
                       o<<<<< (total)           0.15
                       o<<<<< (aa) ff           0.00
                       o<<<<< (aa) gop          0.00
                       o<<<<< (aa) dot          0.00
                       o<<<<< (ab) str          0.00
                       o<<<<< (ab) gath         0.00
                       o<<<<< (ab) dotab        0.00
                       o<<<<< (ab) scat         0.00
                       o<<<<< (ab) sync         0.00
                       o<<<<< Density           0.03
                       o<<<<< Density one       0.01
                       o<<<<< Density two       0.00
                       o<<<<< Density ab        0.02
                       o<<<<< Spin adapt        0.86
                       o<<<<< Symm adapt        0.00

                       o<<<<< (ab) max sync:      0.00
       0.0585     -76.11504810  1.19D-01  1.21D-01 -1.59D+00 1.0D+01     53.0
                    Energy increase :             0.00440072 backtrack

          Number of sigma calls:       15
                       o<<<<< (aa):             0.00
                       o<<<<< (bb):             0.00
                       o<<<<< (ab):             0.14
                       o<<<<< (total)           0.15
                       o<<<<< (aa) ff           0.00
                       o<<<<< (aa) gop          0.00
                       o<<<<< (aa) dot          0.00
                       o<<<<< (ab) str          0.00
                       o<<<<< (ab) gath         0.00
                       o<<<<< (ab) dotab        0.00
                       o<<<<< (ab) scat         0.00
                       o<<<<< (ab) sync         0.00
                       o<<<<< Density           0.01
                       o<<<<< Density one       0.01
                       o<<<<< Density two       0.00
                       o<<<<< Density ab        0.00
                       o<<<<< Spin adapt        0.84
                       o<<<<< Symm adapt        0.00

                       o<<<<< (ab) max sync:      0.00
       0.0390     -76.11738338  1.11D-01  1.16D-01  3.94D-01 9.7D+00     54.2
                    Energy increase :             0.00206543 backtrack

          Number of sigma calls:       15
                       o<<<<< (aa):             0.00
                       o<<<<< (bb):             0.01
                       o<<<<< (ab):             0.16
                       o<<<<< (total)           0.17
                       o<<<<< (aa) ff           0.00
                       o<<<<< (aa) gop          0.00
                       o<<<<< (aa) dot          0.00
                       o<<<<< (ab) str          0.00
                       o<<<<< (ab) gath         0.00
                       o<<<<< (ab) dotab        0.00
                       o<<<<< (ab) scat         0.00
                       o<<<<< (ab) sync         0.00
                       o<<<<< Density           0.02
                       o<<<<< Density one       0.01
                       o<<<<< Density two       0.00
                       o<<<<< Density ab        0.01
                       o<<<<< Spin adapt        1.03
                       o<<<<< Symm adapt        0.00

                       o<<<<< (ab) max sync:      0.00
       0.0260     -76.11863135  7.72D-02  7.88D-02  2.63D+00 6.7D+00     55.7
                    Energy increase :             0.00081746 backtrack

          Number of sigma calls:       15
                       o<<<<< (aa):             0.01
                       o<<<<< (bb):             0.00
                       o<<<<< (ab):             0.16
                       o<<<<< (total)           0.17
                       o<<<<< (aa) ff           0.00
                       o<<<<< (aa) gop          0.00
                       o<<<<< (aa) dot          0.00
                       o<<<<< (ab) str          0.00
                       o<<<<< (ab) gath         0.00
                       o<<<<< (ab) dotab        0.00
                       o<<<<< (ab) scat         0.00
                       o<<<<< (ab) sync         0.00
                       o<<<<< Density           0.04
                       o<<<<< Density one       0.01
                       o<<<<< Density two       0.01
                       o<<<<< Density ab        0.02
                       o<<<<< Spin adapt        1.02
                       o<<<<< Symm adapt        0.00

                       o<<<<< (ab) max sync:      0.00
       0.0173     -76.11916989  4.65D-02  4.68D-02  3.54D+00 4.1D+00     57.1

          Number of sigma calls:       17
                       o<<<<< (aa):             0.01
                       o<<<<< (bb):             0.00
                       o<<<<< (ab):             0.17
                       o<<<<< (total)           0.18
                       o<<<<< (aa) ff           0.00
                       o<<<<< (aa) gop          0.00
                       o<<<<< (aa) dot          0.00
                       o<<<<< (ab) str          0.00
                       o<<<<< (ab) gath         0.00
                       o<<<<< (ab) dotab        0.00
                       o<<<<< (ab) scat         0.00
                       o<<<<< (ab) sync         0.00
                       o<<<<< Density           0.02
                       o<<<<< Density one       0.01
                       o<<<<< Density two       0.00
                       o<<<<< Density ab        0.01
                       o<<<<< Spin adapt        0.99
                       o<<<<< Symm adapt        0.00

                       o<<<<< (ab) max sync:      0.00
       0.0042     -76.11947200  6.82D-04  5.21D-05  3.48D+00 5.9D-02     58.6



          %%%%% MacroIteration  11 %%%%%


          Number of sigma calls:        1
                       o<<<<< (aa):             0.00
                       o<<<<< (bb):             0.00
                       o<<<<< (ab):             0.00
                       o<<<<< (total)           0.00
                       o<<<<< (aa) ff           0.00
                       o<<<<< (aa) gop          0.00
                       o<<<<< (aa) dot          0.00
                       o<<<<< (ab) str          0.00
                       o<<<<< (ab) gath         0.00
                       o<<<<< (ab) dotab        0.00
                       o<<<<< (ab) scat         0.00
                       o<<<<< (ab) sync         0.00
                       o<<<<< Density           0.01
                       o<<<<< Density one       0.01
                       o<<<<< Density two       0.00
                       o<<<<< Density ab        0.00
                       o<<<<< Spin adapt        0.00
                       o<<<<< Symm adapt        0.00

                       o<<<<< (ab) max sync:      0.00

           >>>| Valence CI:            -85.106342947460
           >>>| MCSCF energy:          -76.119472004897
           >>>| Gradient norm:          0.650623273D-01
     --- Warning:   18 Hessian diagonals < 0.05 ---
     --- Warning: Precondition failed to converge:Residue: current= 0.3D-01 required= 0.3D-01---

                              ----- Line search ------

        step       energy         lsg     num-lsg   num-lsh   lsrat    time
      ------- ---------------- --------- --------- --------- ------- --------
       0.0000     -76.11947200 -1.24D-02  0.00D+00  0.00D+00 0.0D+00     59.4

          Number of sigma calls:       15
                       o<<<<< (aa):             0.00
                       o<<<<< (bb):             0.02
                       o<<<<< (ab):             0.14
                       o<<<<< (total)           0.17
                       o<<<<< (aa) ff           0.00
                       o<<<<< (aa) gop          0.00
                       o<<<<< (aa) dot          0.00
                       o<<<<< (ab) str          0.00
                       o<<<<< (ab) gath         0.00
                       o<<<<< (ab) dotab        0.00
                       o<<<<< (ab) scat         0.00
                       o<<<<< (ab) sync         0.00
                       o<<<<< Density           0.01
                       o<<<<< Density one       0.01
[...]
    7    5    1    1        0.3990370049
    7    5    2    1        0.0125379714
    7    5    3    1        0.0000016774
    7    5    4    1       -0.0040127304
    7    5    5    1       -0.0013961335
    7    5    6    1        0.0083165352
    7    5    7    1        0.0021486909
    7    5    2    2        0.1895258269
    7    5    3    2       -0.0000072860
    7    5    4    2       -0.0127521216
    7    5    5    2       -0.0049942096
    7    5    6    2       -0.0075248067
    7    5    7    2       -0.0028360123
    7    5    3    3        0.1514455164
    7    5    4    3        0.0000012358
    7    5    5    3        0.0000004667
    7    5    6    3        0.0000047948
    7    5    7    3        0.0000015615
    7    5    4    4        0.0981051741
    7    5    5    4       -0.0051673870
    7    5    6    4       -0.0926068265
    7    5    7    4       -0.0720489125
    7    5    5    5        0.1108513597
    7    5    6    5       -0.0736697890
    7    5    7    5        0.1241923651
    7    5    6    6        0.1057776473
    8    5    1    1       -0.0000103852
    8    5    2    1       -0.0000007929
    8    5    3    1       -0.0015810540
    8    5    4    1       -0.0000000145
    8    5    5    1        0.0000013600
    8    5    6    1       -0.0000011750
    8    5    7    1        0.0000015760
    8    5    8    1        0.0019351799
    8    5    2    2       -0.0000056242
    8    5    3    2       -0.0005590330
    8    5    4    2        0.0000008192
    8    5    5    2       -0.0000012159
    8    5    6    2       -0.0000000092
    8    5    7    2        0.0000008812
    8    5    8    2        0.0021761953
    8    5    3    3       -0.0000037264
    8    5    4    3       -0.0003492538
    8    5    5    3       -0.0042082359
    8    5    6    3        0.0096403283
    8    5    7    3       -0.0121614464
    8    5    8    3        0.0000019378
    8    5    4    4       -0.0000014130
    8    5    5    4       -0.0000024280
    8    5    6    4        0.0000024899
    8    5    7    4        0.0000027818
    8    5    8    4        0.0011083213
    8    5    5    5       -0.0000055364
    8    5    6    5       -0.0000012977
    8    5    7    5       -0.0000021714
    8    5    8    5        0.0154115229
    8    5    6    6       -0.0000047768
    8    5    7    6        0.0000022341
    8    5    7    7       -0.0000028687
    6    6    1    1        1.0760239301
    6    6    2    1        0.0166238980
    6    6    3    1        0.0000034549
    6    6    4    1        0.0055153900
    6    6    5    1        0.0061392822
    6    6    6    1       -0.0149552381
    6    6    2    2        0.6064045020
    6    6    3    2        0.0000024043
    6    6    4    2        0.0456965228
    6    6    5    2        0.0460039281
    6    6    6    2       -0.0379228854
    6    6    3    3        0.6304239421
    6    6    4    3       -0.0000101077
    6    6    5    3       -0.0000087694
    6    6    6    3        0.0000147174
    6    6    4    4        0.6707385281
    6    6    5    4        0.0580309992
    6    6    6    4       -0.1572886956
    6    6    5    5        0.6665711912
    6    6    6    5       -0.0743381677
    6    6    6    6        0.7552581004
    7    6    1    1       -0.0048403952
    7    6    2    1       -0.0016407600
    7    6    3    1        0.0000000633
    7    6    4    1        0.0058855769
    7    6    5    1       -0.0053087760
    7    6    6    1       -0.0015537293
    7    6    7    1       -0.0166592133
    7    6    2    2       -0.0164789581
    7    6    3    2        0.0000021184
    7    6    4    2        0.0244649600
    7    6    5    2       -0.0440195127
    7    6    6    2       -0.0006847826
    7    6    7    2       -0.0208643053
    7    6    3    3       -0.0011609294
    7    6    4    3       -0.0000048316
    7    6    5    3        0.0000077021
    7    6    6    3        0.0000002089
    7    6    7    3        0.0000048426
    7    6    4    4        0.0615886161
    7    6    5    4       -0.0535047046
    7    6    6    4       -0.0061918043
    7    6    7    4        0.0227620049
    7    6    5    5       -0.0523031936
    7    6    6    5       -0.0259878111
    7    6    7    5       -0.0104504334
    7    6    6    6       -0.0280797538
    7    6    7    6        0.0836037829
    8    6    1    1        0.0000057504
    8    6    2    1        0.0000020951
    8    6    3    1        0.0096607214
    8    6    4    1       -0.0000011177
    8    6    5    1       -0.0000010105
    8    6    6    1        0.0000025094
    8    6    7    1       -0.0000003689
    8    6    8    1       -0.0155993897
    8    6    2    2        0.0000171067
    8    6    3    2        0.0346857246
    8    6    4    2        0.0000018349
    8    6    5    2       -0.0000007653
    8    6    6    2        0.0000000160
    8    6    7    2       -0.0000014956
    8    6    8    2       -0.0135193661
    8    6    3    3       -0.0000134265
    8    6    4    3        0.0298025691
    8    6    5    3        0.0163707057
    8    6    6    3       -0.0218785373
    8    6    7    3       -0.0017802685
    8    6    8    3        0.0000025039
    8    6    4    4        0.0000018381
    8    6    5    4        0.0000002645
    8    6    6    4       -0.0000010252
    8    6    7    4       -0.0000005582
    8    6    8    4       -0.0062705064
    8    6    5    5       -0.0000011101
    8    6    6    5       -0.0000007902
    8    6    7    5        0.0000011328
    8    6    8    5       -0.0039547905
    8    6    6    6       -0.0000008607
    8    6    7    6        0.0000004989
    8    6    8    6        0.0370732629
    8    6    7    7        0.0000007881
    7    7    1    1        1.0964038345
    7    7    2    1        0.0222973040
    7    7    3    1        0.0000030611
    7    7    4    1       -0.0043909622
    7    7    5    1       -0.0057676982
    7    7    6    1        0.0090887882
    7    7    7    1       -0.0070580835
    7    7    2    2        0.6639755708
    7    7    3    2       -0.0000057249
    7    7    4    2        0.0355371622
    7    7    5    2       -0.0185580616
    7    7    6    2       -0.0112197621
    7    7    7    2       -0.0150287433
    7    7    3    3        0.6356491001
    7    7    4    3       -0.0000071516
    7    7    5    3        0.0000031101
    7    7    6    3        0.0000090834
    7    7    7    3        0.0000053079
    7    7    4    4        0.6768682174
    7    7    5    4       -0.0395743525
    7    7    6    4       -0.1235442150
    7    7    7    4       -0.0781764609
    7    7    5    5        0.6306958529
    7    7    6    5       -0.1046943533
    7    7    7    5        0.1427665342
    7    7    6    6        0.6485216436
    7    7    7    6        0.0345358222
    7    7    7    7        0.7349735794
    8    7    1    1        0.0000024871
    8    7    2    1        0.0000006014
    8    7    3    1        0.0026220560
    8    7    4    1       -0.0000011331
    8    7    5    1        0.0000020343
    8    7    6    1       -0.0000003456
    8    7    7    1        0.0000040208
    8    7    8    1       -0.0042319097
    8    7    2    2        0.0000049373
    8    7    3    2        0.0094013474
    8    7    4    2       -0.0000015008
    8    7    5    2        0.0000052675
    8    7    6    2       -0.0000015220
    8    7    7    2        0.0000055953
    8    7    8    2       -0.0036547842
    8    7    3    3       -0.0000035056
    8    7    4    3        0.0156807073
    8    7    5    3       -0.0178026387
    8    7    6    3       -0.0017884675
    8    7    7    3       -0.0157283281
    8    7    8    3        0.0000004878
    8    7    4    4       -0.0000015326
    8    7    5    4        0.0000026666
    8    7    6    4       -0.0000003333
    8    7    7    4       -0.0000010042
    8    7    8    4       -0.0039317203
    8    7    5    5        0.0000017308
    8    7    6    5        0.0000000716
    8    7    7    5        0.0000003968
    8    7    8    5        0.0054563179
    8    7    6    6        0.0000019167
    8    7    7    6       -0.0000036289
    8    7    8    6        0.0033081893
    8    7    7    7       -0.0000018335
    8    7    8    7        0.0259185248
    8    8    1    1        1.0677937888
    8    8    2    1        0.0208938358
    8    8    3    1       -0.0000033432
    8    8    4    1       -0.0071753747
    8    8    5    1       -0.0024294987
    8    8    6    1        0.0107106609
    8    8    7    1        0.0028988811
    8    8    8    1        0.0000079144
    8    8    2    2        0.6382185951
    8    8    3    2       -0.0000293002
    8    8    4    2        0.0098907724
    8    8    5    2        0.0033890010
    8    8    6    2       -0.0147809285
    8    8    7    2       -0.0039355044
    8    8    8    2        0.0000104348
    8    8    3    3        0.6566959022
    8    8    4    3       -0.0000073434
    8    8    5    3       -0.0000025431
    8    8    6    3        0.0000138015
    8    8    7    3        0.0000037420
    8    8    8    3       -0.1958675164
    8    8    4    4        0.5775800525
    8    8    5    4        0.0057921591
    8    8    6    4       -0.1373379783
    8    8    7    4       -0.0914355409
    8    8    8    4       -0.0000119304
    8    8    5    5        0.5613773092
    8    8    6    5       -0.0916760785
    8    8    7    5        0.1347378569
    8    8    8    5       -0.0000038234
    8    8    6    6        0.5956422329
    8    8    7    6       -0.0007853816
    8    8    8    6       -0.0000080708
    8    8    7    7        0.5994804032
    8    8    8    7       -0.0000019449
    8    8    8    8        0.6259400808
 end_two_electron_integrals
 enrep_tce =    8.9868709425642628     
  EHF(A)             =       -76.05282454
  EHF(total)         =       -76.05282454
  Shift (HFtot-HFA)  =         0.00000000
 Cpu & wall time / sec            2.4            2.4
 T1-number-of-tasks                   15

 t1 file size   =               15
 t1 file name   = ./H2O.t1
 t1 file handle =       -998
 T2-number-of-boxes                  315

 t2 file size   =              315
 t2 file name   = ./H2O.t2
 t2 file handle =       -996
CCSD iterations
 ---------------------------------------------------------
 Iter          Residuum       Correlation     Cpu    Wall 
 ---------------------------------------------------------
NEW TASK SCHEDULING
CCSD_T1_NTS --- OK
CCSD_T2_NTS --- OK
    1   0.8108634564284  -0.2412005500819     4.3     6.3
    2   1.3899913518167   0.1502418467924     4.6     6.3
    3   2.4190179890181  -0.5191096770773     4.6     6.5
    4   4.3527736044337   0.6321374351106     4.1     6.0
    5   7.2693001220326  -1.3874527766285     4.7     6.6
 MICROCYCLE DIIS UPDATE:                    5                    5
    6   0.0193283294942  -0.0917306940902     4.4     6.2
    7   0.0265009479610  -0.0986804758524     4.6     6.6
    8   0.0461206493187  -0.0863164362613     5.0     6.8
    9   0.0867095143114  -0.1055644911645     4.9     6.8
   10   0.1645343476399  -0.0592417910437     4.8     6.4
 MICROCYCLE DIIS UPDATE:                   10                    5
   11   0.0004375527016  -0.0945135999190     4.7     6.3
   12   0.0005116227291  -0.0945926758781     4.1     5.9
   13   0.0009749048400  -0.0944948439788     4.4     6.0
   14   0.0018685159013  -0.0945952038275     4.9     6.5
   15   0.0035821870889  -0.0945207162175     4.3     6.2
 MICROCYCLE DIIS UPDATE:                   15                    5
   16   0.0000079352097  -0.0945484099249     4.6     6.5
   17   0.0000068702250  -0.0945477869208     4.4     6.2
   18   0.0000099262160  -0.0945493578648     4.7     6.5
   19   0.0000167628493  -0.0945461611211     4.5     6.4
   20   0.0000299377734  -0.0945522339855     4.3     6.0
 MICROCYCLE DIIS UPDATE:                   20                    5
   21   0.0000002129416  -0.0945482656543     4.4     6.1
   22   0.0000003109983  -0.0945483008071     6.0     8.5
   23   0.0000006013905  -0.0945482457332     5.2     7.3
   24   0.0000012091161  -0.0945483385503     4.3     6.0
   25   0.0000024524309  -0.0945481779019     4.7     6.6
 MICROCYCLE DIIS UPDATE:                   25                    5
   26   0.0000000055916  -0.0945482803548     5.1     7.1
 -----------------------------------------------------------------
 Iterations converged
 CCSD correlation energy / hartree =        -0.094548280354810
 CCSD total energy / hartree       =       -76.147372819483465

 Singles contributions

 Doubles contributions
     6a   (alpha)     7a   (alpha) ---     4a   (alpha)     5a   (alpha)        0.0233079943
     6a   (alpha)     8a   (alpha) ---     3a   (alpha)     4a   (alpha)        0.0240472369
     6a   (alpha)     6a   (beta ) ---     4a   (alpha)     4a   (beta )       -0.0490577710
     6a   (alpha)     6a   (beta ) ---     4a   (alpha)     5a   (beta )       -0.0269968522
     6a   (alpha)     6a   (beta ) ---     5a   (alpha)     4a   (beta )       -0.0269968522
     6a   (alpha)     6a   (beta ) ---     5a   (alpha)     5a   (beta )       -0.0440007267
     6a   (alpha)     7a   (beta ) ---     4a   (alpha)     4a   (beta )       -0.0303175030
     6a   (alpha)     7a   (beta ) ---     4a   (alpha)     5a   (beta )        0.0313584193
     6a   (alpha)     7a   (beta ) ---     5a   (alpha)     5a   (beta )        0.0288677312
     6a   (alpha)     8a   (beta ) ---     4a   (alpha)     3a   (beta )       -0.0329167056
     6a   (alpha)     8a   (beta ) ---     5a   (alpha)     3a   (beta )       -0.0222701526
     7a   (alpha)     8a   (alpha) ---     3a   (alpha)     5a   (alpha)       -0.0252050225
     7a   (alpha)     6a   (beta ) ---     4a   (alpha)     4a   (beta )       -0.0303175030
     7a   (alpha)     6a   (beta ) ---     5a   (alpha)     4a   (beta )        0.0313584193
     7a   (alpha)     6a   (beta ) ---     5a   (alpha)     5a   (beta )        0.0288677312
     7a   (alpha)     7a   (beta ) ---     4a   (alpha)     4a   (beta )       -0.0388203359
     7a   (alpha)     7a   (beta ) ---     4a   (alpha)     5a   (beta )        0.0280594899
     7a   (alpha)     7a   (beta ) ---     5a   (alpha)     4a   (beta )        0.0280594899
     7a   (alpha)     7a   (beta ) ---     5a   (alpha)     5a   (beta )       -0.0477571486
     7a   (alpha)     8a   (beta ) ---     4a   (alpha)     3a   (beta )       -0.0222140683
     7a   (alpha)     8a   (beta ) ---     5a   (alpha)     3a   (beta )        0.0331680429
     8a   (alpha)     6a   (beta ) ---     3a   (alpha)     4a   (beta )       -0.0329167056
     8a   (alpha)     6a   (beta ) ---     3a   (alpha)     5a   (beta )       -0.0222701526
     8a   (alpha)     7a   (beta ) ---     3a   (alpha)     4a   (beta )       -0.0222140683
     8a   (alpha)     7a   (beta ) ---     3a   (alpha)     5a   (beta )        0.0331680429
     8a   (alpha)     8a   (beta ) ---     3a   (alpha)     3a   (beta )       -0.0571236151
 Ground state specification:
 exp(T)|Ref>~(1+T)|Ref>
 ------- a(p)+/a(q) strings ----------

 singles norm

 doubles norm

 Reference string
   1.0000000000000000      :(1a)+ (2a)+ (3a)+ (4a)+ (5a)+ (1b)+ (2b)+ (3b)+ (4b)+ (5b)+ |0>

 Singles strings

 Doubles strings
 -------------------------------------

 Parallel integral file used      16 records with       0 large values


 Task  times  cpu:      124.1s     wall:      173.3s


                                NWChem Input Module
                                -------------------


 Summary of allocated global arrays
-----------------------------------
  No active global arrays


MA_summarize_allocated_blocks: starting scan ...
MA_summarize_allocated_blocks: scan completed: 0 heap blocks, 0 stack blocks
MA usage statistics:

	allocation statistics:
					      heap	     stack
					      ----	     -----
	current number of blocks	         0	         0
	maximum number of blocks	        18	        42
	current total bytes		         0	         0
	maximum total bytes		  25775928	  38234424
	maximum total K-bytes		     25776	     38235
	maximum total M-bytes		        26	        39


                                     CITATION
                                     --------
                Please cite the following reference when publishing
                           results obtained with NWChem:

          E. Apra, E. J. Bylaska, W. A. de Jong, N. Govind, K. Kowalski,
       T. P. Straatsma, M. Valiev, H. J. J. van Dam, Y. Alexeev, J. Anchell,
       V. Anisimov, F. W. Aquino, R. Atta-Fynn, J. Autschbach, N. P. Bauman,
     J. C. Becca, D. E. Bernholdt, K. Bhaskaran-Nair, S. Bogatko, P. Borowski,
         J. Boschen, J. Brabec, A. Bruner, E. Cauet, Y. Chen, G. N. Chuev,
      C. J. Cramer, J. Daily, M. J. O. Deegan, T. H. Dunning Jr., M. Dupuis,
   K. G. Dyall, G. I. Fann, S. A. Fischer, A. Fonari, H. Fruchtl, L. Gagliardi,
      J. Garza, N. Gawande, S. Ghosh, K. Glaesemann, A. W. Gotz, J. Hammond,
       V. Helms, E. D. Hermes, K. Hirao, S. Hirata, M. Jacquelin, L. Jensen,
   B. G. Johnson, H. Jonsson, R. A. Kendall, M. Klemm, R. Kobayashi, V. Konkov,
      S. Krishnamoorthy, M. Krishnan, Z. Lin, R. D. Lins, R. J. Littlefield,
      A. J. Logsdail, K. Lopata, W. Ma, A. V. Marenich, J. Martin del Campo,
   D. Mejia-Rodriguez, J. E. Moore, J. M. Mullin, T. Nakajima, D. R. Nascimento,
    J. A. Nichols, P. J. Nichols, J. Nieplocha, A. Otero-de-la-Roza, B. Palmer,
    A. Panyala, T. Pirojsirikul, B. Peng, R. Peverati, J. Pittner, L. Pollack,
   R. M. Richard, P. Sadayappan, G. C. Schatz, W. A. Shelton, D. W. Silverstein,
   D. M. A. Smith, T. A. Soares, D. Song, M. Swart, H. L. Taylor, G. S. Thomas,
            V. Tipparaju, D. G. Truhlar, K. Tsemekhman, T. Van Voorhis,
      A. Vazquez-Mayagoitia, P. Verma, O. Villa, A. Vishnu, K. D. Vogiatzis,
        D. Wang, J. H. Weare, M. J. Williamson, T. L. Windus, K. Wolinski,
        A. T. Wong, Q. Wu, C. Yang, Q. Yu, M. Zacharias, Z. Zhang, Y. Zhao,
                                and R. J. Harrison
                        "NWChem: Past, present, and future
                         J. Chem. Phys. 152, 184102 (2020)
                               doi:10.1063/5.0004997

                                      AUTHORS
                                      -------
  E. Apra, E. J. Bylaska, N. Govind, K. Kowalski, M. Valiev, D. Mejia-Rodriguez,
       A. Kunitsa, N. P. Bauman, A. Panyala, W. A. de Jong, T. P. Straatsma,
        H. J. J. van Dam, D. Wang, T. L. Windus, J. Hammond, J. Autschbach,
    K. Bhaskaran-Nair, J. Brabec, K. Lopata, S. A. Fischer, S. Krishnamoorthy,
     M. Jacquelin, W. Ma, M. Klemm, O. Villa, Y. Chen, V. Anisimov, F. Aquino,
    S. Hirata, M. T. Hackler, Eric Hermes, L. Jensen, J. E. Moore, J. C. Becca,
      V. Konjkov, T. Risthaus, M. Malagoli, A. Marenich, A. Otero-de-la-Roza,
        J. Mullin, P. Nichols, R. Peverati, J. Pittner, Y. Zhao, P.-D. Fan,
        A. Fonari, M. J. Williamson, R. J. Harrison, J. R. Rehr, M. Dupuis,
     D. Silverstein, D. M. A. Smith, J. Nieplocha, V. Tipparaju, M. Krishnan,
     B. E. Van Kuiken, A. Vazquez-Mayagoitia, M. Swart, Q. Wu, T. Van Voorhis,
     A. A. Auer, M. Nooijen, L. D. Crosby, E. Brown, G. Cisneros, G. I. Fann,
   H. Fruchtl, J. Garza, K. Hirao, R. A. Kendall, J. A. Nichols, K. Tsemekhman,
    K. Wolinski, J. Anchell, D. E. Bernholdt, P. Borowski, T. Clark, D. Clerc,
   H. Dachsel, M. J. O. Deegan, K. Dyall, D. Elwood, E. Glendening, M. Gutowski,
   A. C. Hess, J. Jaffe, B. G. Johnson, J. Ju, R. Kobayashi, R. Kutteh, Z. Lin,
   R. Littlefield, X. Long, B. Meng, T. Nakajima, S. Niu, L. Pollack, M. Rosing,
   K. Glaesemann, G. Sandrone, M. Stave, H. Taylor, G. Thomas, J. H. van Lenthe,
                               A. T. Wong, Z. Zhang.

 Total times  cpu:      262.8s     wall:      421.2s
