 argument  1 = input.nw
  NWChem w/ OpenMP: maximum threads =    1



============================== echo of input deck ==============================
 echo
 start H2O
 title "H2O"

 memory total 24 gb

 geometry units bohr
 symmetry c1
        O  0.00000000  0.00000000  0.00000000
        H  0.00000000  2.470223  0.00000000
        H  1.72558000 -0.64860000  0.00000000
 end

 basis spherical
   * library cc-pVTZ
 end

 mcscf
   active  8
   actelec 10
   multiplicity 1
   maxiter 40
   vectors input h2o.mos
   vectors output h2o.mos
 end

 task mcscf

 scf
   vectors input h2o.mos
   vectors output h2o-trash.mos
   noscf
 end

 tce
   2eorb
   2emet 13
   ccsd
 end

 set tce:print_integrals T
 set tce:qorb 8
 set tce:qela 5
 set tce:qelb 5

# set tce:qducc T
# set tce:nactv 3
# set tce:nonhf T
# set tce:ducc_model 3

 set tce:printtol 0.02

 task tce
================================================================================


                                         
                                         


             Northwest Computational Chemistry Package (NWChem) 7.0.1
             --------------------------------------------------------


                    Environmental Molecular Sciences Laboratory
                       Pacific Northwest National Laboratory
                                Richland, WA 99352

                              Copyright (c) 1994-2020
                       Pacific Northwest National Laboratory
                            Battelle Memorial Institute

             NWChem is an open-source computational chemistry package
                        distributed under the terms of the
                      Educational Community License (ECL) 2.0
             A copy of the license is included with this distribution
                              in the LICENSE.TXT file

                                  ACKNOWLEDGMENT
                                  --------------

            This software and its documentation were developed at the
            EMSL at Pacific Northwest National Laboratory, a multiprogram
            national laboratory, operated for the U.S. Department of Energy
            by Battelle under Contract Number DE-AC05-76RL01830. Support
            for this work was provided by the Department of Energy Office
            of Biological and Environmental Research, Office of Basic
            Energy Sciences, and the Office of Advanced Scientific Computing.


           Job information
           ---------------

    hostname        = WE46210
    program         = /home/baum612/code/nwchem/bin/LINUX64/nwchem
    date            = Tue Feb 20 15:22:42 2024

    compiled        = Fri_Feb_16_11:09:52_2024
    source          = /home/baum612/code/nwchem
    nwchem branch   = 7.0.0
    nwchem revision = nwchem_on_git-4191-g39d87d64de
    ga revision     = 5.8.1
    use scalapack   = F
    input           = input.nw
    prefix          = H2O.
    data base       = ./H2O.db
    status          = startup
    nproc           =        1
    time left       =     -1s



           Memory information
           ------------------

    heap     =  805306366 doubles =   6144.0 Mbytes
    stack    =  805306363 doubles =   6144.0 Mbytes
    global   = 1610612736 doubles =  12288.0 Mbytes (distinct from heap & stack)
    total    = 3221225465 doubles =  24576.0 Mbytes
    verify   = yes
    hardfail = no 


           Directory information
           ---------------------

  0 permanent = .
  0 scratch   = .




                                NWChem Input Module
                                -------------------


                                        H2O
                                        ---
 Turning off AUTOSYM since
 SYMMETRY directive was detected!


          ------
          auto-z
          ------
  autoz: The atoms group into disjoint clusters
 cluster   1:    1    3
 cluster   2:    2
 Connecting clusters   1   2 via atoms    1    2 r = 1.31
  autoz: regenerating connections with new bonds
  no constraints, skipping    0.0000000000000000     
  no constraints, skipping    0.0000000000000000     


                             Geometry "geometry" -> ""
                             -------------------------

 Output coordinates in a.u. (scale by  1.000000000 to convert to a.u.)

  No.       Tag          Charge          X              Y              Z
 ---- ---------------- ---------- -------------- -------------- --------------
    1 O                    8.0000    -0.17255800    -0.18216230     0.00000000
    2 H                    1.0000    -0.17255800     2.28806070     0.00000000
    3 H                    1.0000     1.55302200    -0.83076230     0.00000000

      Atomic Mass 
      ----------- 

      O                 15.994910
      H                  1.007825


 Effective nuclear repulsion energy (a.u.)       7.8588179683

            Nuclear Dipole moment (a.u.) 
            ----------------------------
        X                 Y               Z
 ---------------- ---------------- ----------------
    -0.0000000000     0.0000000000     0.0000000000



                                Z-matrix (autoz)
                                -------- 

 Units are Angstrom for bonds and degrees for angles

      Type          Name      I     J     K     L     M      Value
      ----------- --------  ----- ----- ----- ----- ----- ----------
    1 Stretch                  1     2                       1.30719
    2 Stretch                  1     3                       0.97551
    3 Bend                     2     1     3               110.59992


            XYZ format geometry
            -------------------
     3
 geometry
 O                    -0.09131377    -0.09639614     0.00000000
 H                    -0.09131377     1.21078967     0.00000000
 H                     0.82182391    -0.43962051     0.00000000

 ==============================================================================
                                internuclear distances
 ------------------------------------------------------------------------------
       center one      |      center two      | atomic units |       a.u.
 ------------------------------------------------------------------------------
    3 H                |   1 O                |     1.84345  |     1.84345
 ------------------------------------------------------------------------------
                         number of included internuclear distances:          1
 ==============================================================================





 Summary of "ao basis" -> "" (spherical)
 ------------------------------------------------------------------------------
       Tag                 Description            Shells   Functions and Types
 ---------------- ------------------------------  ------  ---------------------
 *                          cc-pVTZ                   on all atoms 


                      Basis "ao basis" -> "ao basis" (spherical)
                      -----
  O (Oxygen)
  ----------
            Exponent  Coefficients 
       -------------- ---------------------------------------------------------
  1 S  1.53300000E+04  0.000508
  1 S  2.29900000E+03  0.003929
  1 S  5.22400000E+02  0.020243
  1 S  1.47300000E+02  0.079181
  1 S  4.75500000E+01  0.230687
  1 S  1.67600000E+01  0.433118
  1 S  6.20700000E+00  0.350260
  1 S  6.88200000E-01 -0.008154

  2 S  1.53300000E+04 -0.000115
  2 S  2.29900000E+03 -0.000895
  2 S  5.22400000E+02 -0.004636
  2 S  1.47300000E+02 -0.018724
  2 S  4.75500000E+01 -0.058463
  2 S  1.67600000E+01 -0.136463
  2 S  6.20700000E+00 -0.175740
  2 S  6.88200000E-01  0.603418

  3 S  1.75200000E+00  1.000000

  4 S  2.38400000E-01  1.000000

  5 P  3.44600000E+01  0.015928
  5 P  7.74900000E+00  0.099740
  5 P  2.28000000E+00  0.310492

  6 P  7.15600000E-01  1.000000

  7 P  2.14000000E-01  1.000000

  8 D  2.31400000E+00  1.000000

  9 D  6.45000000E-01  1.000000

 10 F  1.42800000E+00  1.000000

  H (Hydrogen)
  ------------
            Exponent  Coefficients 
       -------------- ---------------------------------------------------------
  1 S  3.38700000E+01  0.006068
  1 S  5.09500000E+00  0.045308
  1 S  1.15900000E+00  0.202822

  2 S  3.25800000E-01  1.000000

  3 S  1.02700000E-01  1.000000

  4 P  1.40700000E+00  1.000000

  5 P  3.88000000E-01  1.000000

  6 D  1.05700000E+00  1.000000



 Summary of "ao basis" -> "ao basis" (spherical)
 ------------------------------------------------------------------------------
       Tag                 Description            Shells   Functions and Types
 ---------------- ------------------------------  ------  ---------------------
 O                          cc-pVTZ                 10       30   4s3p2d1f
 H                          cc-pVTZ                  6       14   3s2p1d



                            NWChem Direct MCSCF Module
                            --------------------------


                                        H2O


     -----------------------------------
       Basis functions:             58
       Inactive shells:              0
       Active shells:                8
       Active electrons:            10
       Symmetry:                    a       
       Multiplicity:                 1
       Orbital rotations:          400
     -----------------------------------

     -----------------------------------
       E2 extrapolation:             F
       Conjugacy:                    T
       Micro CI relax:               T
       Canonical orbitals:           T
       Maximum iterations:          40
       Converge threshold:    1.00E-04
       Conjugacy resets:            20
       Initial levelshift:        0.10
     -----------------------------------

 Loading old vectors from job with title :

H2O


   input molecular orbitals = ./h2o.mos
  output molecular orbtials = ./h2o.mos

       No. of determinants:          3136


  Starting Orbital Energies
   -20.566860    -1.296591    -0.673011    -0.549848    -0.518786    -0.043101
    -0.026022    -0.015370     0.314960     0.338152     0.607521     0.729387
     0.810495     0.831837     0.967203     1.075967     1.129005     1.263708
     1.411102     1.870101     2.049454     2.051788     2.169827     2.300733
     2.677359     2.787743     3.338235     3.430642     3.442923     3.458201
     3.572043     3.592473     3.679848     3.862080     3.866773     3.991895
     4.027735     4.064563     4.169936     4.212781     4.469288     4.538872
     4.891254     5.051839     5.453115     5.772707     5.930751     6.074569
     6.624392     6.872659     6.947963     6.959079     7.073631     7.113350
     7.115489     7.547518     7.669210    11.063294

  Orbital Symmetry Irreps
a    a    a    a    a    a    a    a    a    a    a    a    a    a    a   
a    a    a    a    a    a    a    a    a    a    a    a    a    a    a   
a    a    a    a    a    a    a    a    a    a    a    a    a    a    a   
a    a    a    a    a    a    a    a    a    a    a    a    a   

 Integral file          = ./H2O.aoints.0
 Record size in doubles =  65536        No. of integs per rec  =  43688
 Max. records in memory =     49        Max. records in file   = 252439
 No. of bits per label  =      8        No. of bits per value  =     64


 #quartets = 3.213D+04 #integrals = 6.608D+05 #direct =  0.0% #cached =100.0%




          %%%%% MacroIteration   1 %%%%%


          Number of sigma calls:       17
                       o<<<<< (aa):             0.00
                       o<<<<< (bb):             0.01
                       o<<<<< (ab):             0.15
                       o<<<<< (total)           0.16
                       o<<<<< (aa) ff           0.00
                       o<<<<< (aa) gop          0.00
                       o<<<<< (aa) dot          0.00
                       o<<<<< (ab) str          0.00
                       o<<<<< (ab) gath         0.00
                       o<<<<< (ab) dotab        0.00
                       o<<<<< (ab) scat         0.00
                       o<<<<< (ab) sync         0.00
                       o<<<<< Density           0.02
                       o<<<<< Density one       0.00
                       o<<<<< Density two       0.01
                       o<<<<< Density ab        0.01
                       o<<<<< Spin adapt        0.50
                       o<<<<< Symm adapt        0.00

                       o<<<<< (ab) max sync:      0.00

           >>>| Valence CI:            -83.950249869881
           >>>| MCSCF energy:          -76.091431901564
           >>>| Gradient norm:          0.120214862D-01

                              ----- Line search ------

        step       energy         lsg     num-lsg   num-lsh   lsrat    time
      ------- ---------------- --------- --------- --------- ------- --------
       0.0000     -76.09143190 -1.87D-05  0.00D+00  0.00D+00 0.0D+00      2.0

          Number of sigma calls:       15
                       o<<<<< (aa):             0.01
                       o<<<<< (bb):             0.00
                       o<<<<< (ab):             0.15
                       o<<<<< (total)           0.17
                       o<<<<< (aa) ff           0.00
                       o<<<<< (aa) gop          0.00
                       o<<<<< (aa) dot          0.00
                       o<<<<< (ab) str          0.00
                       o<<<<< (ab) gath         0.00
                       o<<<<< (ab) dotab        0.00
                       o<<<<< (ab) scat         0.00
                       o<<<<< (ab) sync         0.00
                       o<<<<< Density           0.00
                       o<<<<< Density one       0.00
                       o<<<<< Density two       0.00
                       o<<<<< Density ab        0.00
                       o<<<<< Spin adapt        0.51
                       o<<<<< Symm adapt        0.00

                       o<<<<< (ab) max sync:      0.00
       1.0000     -76.09144206 -1.61D-06 -1.61D-06  1.71D-05 8.6D-02      2.9
     --- Orbitals canonicalized ---



          %%%%% MacroIteration   2 %%%%%


          Number of sigma calls:       14
                       o<<<<< (aa):             0.00
                       o<<<<< (bb):             0.00
                       o<<<<< (ab):             0.13
                       o<<<<< (total)           0.14
                       o<<<<< (aa) ff           0.00
                       o<<<<< (aa) gop          0.00
                       o<<<<< (aa) dot          0.00
                       o<<<<< (ab) str          0.00
                       o<<<<< (ab) gath         0.00
                       o<<<<< (ab) dotab        0.00
                       o<<<<< (ab) scat         0.00
                       o<<<<< (ab) sync         0.00
                       o<<<<< Density           0.00
                       o<<<<< Density one       0.00
                       o<<<<< Density two       0.00
                       o<<<<< Density ab        0.00
                       o<<<<< Spin adapt        0.28
                       o<<<<< Symm adapt        0.00

                       o<<<<< (ab) max sync:      0.00

           >>>| Valence CI:            -83.950260023872
           >>>| MCSCF energy:          -76.091442055556
           >>>| Gradient norm:          0.133625918D-02
     --- Warning:    3 Hessian diagonals < 0.05 ---
     --- Conjugacy reset ---

                              ----- Line search ------

        step       energy         lsg     num-lsg   num-lsh   lsrat    time
      ------- ---------------- --------- --------- --------- ------- --------
       0.0000     -76.09144206 -5.83D-07  0.00D+00  0.00D+00 0.0D+00      3.7

          Number of sigma calls:       12
                       o<<<<< (aa):             0.01
                       o<<<<< (bb):             0.00
                       o<<<<< (ab):             0.07
                       o<<<<< (total)           0.09
                       o<<<<< (aa) ff           0.00
                       o<<<<< (aa) gop          0.00
                       o<<<<< (aa) dot          0.00
                       o<<<<< (ab) str          0.00
                       o<<<<< (ab) gath         0.00
                       o<<<<< (ab) dotab        0.00
                       o<<<<< (ab) scat         0.00
                       o<<<<< (ab) sync         0.00
                       o<<<<< Density           0.03
                       o<<<<< Density one       0.01
                       o<<<<< Density two       0.00
                       o<<<<< Density ab        0.02
                       o<<<<< Spin adapt        0.29
                       o<<<<< Symm adapt        0.00

                       o<<<<< (ab) max sync:      0.00
       1.0000     -76.09144246 -2.22D-07 -2.22D-07  3.61D-07 3.8D-01      4.3

          Number of sigma calls:       12
                       o<<<<< (aa):             0.00
                       o<<<<< (bb):             0.00
                       o<<<<< (ab):             0.12
                       o<<<<< (total)           0.12
                       o<<<<< (aa) ff           0.00
                       o<<<<< (aa) gop          0.00
                       o<<<<< (aa) dot          0.00
                       o<<<<< (ab) str          0.00
                       o<<<<< (ab) gath         0.00
                       o<<<<< (ab) dotab        0.00
                       o<<<<< (ab) scat         0.00
                       o<<<<< (ab) sync         0.00
                       o<<<<< Density           0.01
                       o<<<<< Density one       0.00
                       o<<<<< Density two       0.00
                       o<<<<< Density ab        0.01
                       o<<<<< Spin adapt        0.41
                       o<<<<< Symm adapt        0.00

                       o<<<<< (ab) max sync:      0.00
       1.6142     -76.09144253  6.02D-10  5.65D-10  3.62D-07 1.0D-03      5.1



          %%%%% MacroIteration   3 %%%%%


          Number of sigma calls:        1
                       o<<<<< (aa):             0.00
                       o<<<<< (bb):             0.00
                       o<<<<< (ab):             0.01
                       o<<<<< (total)           0.01
                       o<<<<< (aa) ff           0.00
                       o<<<<< (aa) gop          0.00
                       o<<<<< (aa) dot          0.00
                       o<<<<< (ab) str          0.00
                       o<<<<< (ab) gath         0.00
                       o<<<<< (ab) dotab        0.00
                       o<<<<< (ab) scat         0.00
                       o<<<<< (ab) sync         0.00
                       o<<<<< Density           0.00
                       o<<<<< Density one       0.00
                       o<<<<< Density two       0.00
                       o<<<<< Density ab        0.00
                       o<<<<< Spin adapt        0.00
                       o<<<<< Symm adapt        0.00

                       o<<<<< (ab) max sync:      0.00

           >>>| Valence CI:            -83.950260494284
           >>>| MCSCF energy:          -76.091442525967
           >>>| Gradient norm:          0.195734938D-03
     --- Warning:    3 Hessian diagonals < 0.05 ---

                              ----- Line search ------

        step       energy         lsg     num-lsg   num-lsh   lsrat    time
      ------- ---------------- --------- --------- --------- ------- --------
       0.0000     -76.09144253 -1.32D-08  0.00D+00  0.00D+00 0.0D+00      5.4

          Number of sigma calls:       10
                       o<<<<< (aa):             0.01
                       o<<<<< (bb):             0.00
                       o<<<<< (ab):             0.09
                       o<<<<< (total)           0.11
                       o<<<<< (aa) ff           0.00
                       o<<<<< (aa) gop          0.00
                       o<<<<< (aa) dot          0.00
                       o<<<<< (ab) str          0.00
                       o<<<<< (ab) gath         0.00
                       o<<<<< (ab) dotab        0.00
                       o<<<<< (ab) scat         0.00
                       o<<<<< (ab) sync         0.00
                       o<<<<< Density           0.01
                       o<<<<< Density one       0.01
                       o<<<<< Density two       0.00
                       o<<<<< Density ab        0.00
                       o<<<<< Spin adapt        0.46
                       o<<<<< Symm adapt        0.00

                       o<<<<< (ab) max sync:      0.00
       1.0000     -76.09144253 -1.61D-09 -1.61D-09  1.16D-08 1.2D-01      6.1

          Number of sigma calls:        8
                       o<<<<< (aa):             0.01
                       o<<<<< (bb):             0.01
                       o<<<<< (ab):             0.08
                       o<<<<< (total)           0.10
                       o<<<<< (aa) ff           0.00
                       o<<<<< (aa) gop          0.00
                       o<<<<< (aa) dot          0.00
                       o<<<<< (ab) str          0.00
                       o<<<<< (ab) gath         0.00
                       o<<<<< (ab) dotab        0.00
                       o<<<<< (ab) scat         0.00
                       o<<<<< (ab) sync         0.00
                       o<<<<< Density           0.03
                       o<<<<< Density one       0.01
                       o<<<<< Density two       0.00
                       o<<<<< Density ab        0.02
                       o<<<<< Spin adapt        0.29
                       o<<<<< Symm adapt        0.00

                       o<<<<< (ab) max sync:      0.00
       1.1394     -76.09144253  9.52D-14  1.26D-12  1.16D-08 7.2D-06      6.8



          %%%%% MacroIteration   4 %%%%%


          Number of sigma calls:        1
                       o<<<<< (aa):             0.00
                       o<<<<< (bb):             0.00
                       o<<<<< (ab):             0.01
                       o<<<<< (total)           0.01
                       o<<<<< (aa) ff           0.00
                       o<<<<< (aa) gop          0.00
                       o<<<<< (aa) dot          0.00
                       o<<<<< (ab) str          0.00
                       o<<<<< (ab) gath         0.00
                       o<<<<< (ab) dotab        0.00
                       o<<<<< (ab) scat         0.00
                       o<<<<< (ab) sync         0.00
                       o<<<<< Density           0.02
                       o<<<<< Density one       0.01
                       o<<<<< Density two       0.00
                       o<<<<< Density ab        0.01
                       o<<<<< Spin adapt        0.00
                       o<<<<< Symm adapt        0.00

                       o<<<<< (ab) max sync:      0.00

           >>>| Valence CI:            -83.950260501801
           >>>| MCSCF energy:          -76.091442533484
           >>>| Gradient norm:          0.297290432D-04




     ==============================
            MCSCF Converged
     ==============================



          Canonical Eigenvalues

              1      
    1  -20.5675
    2   -1.2960
    3   -0.6719
    4   -0.5486
    5   -0.5189
    6   -0.0438
    7   -0.0260
    8   -0.0153
    9    0.3152
   10    0.3385
   11    0.6074
   12    0.7316
   13    0.8095
   14    0.8328
   15    0.9668
   16    1.0735
   17    1.1241
   18    1.2657
   19    1.4110
   20    1.8662
   21    2.0472
   22    2.0520
   23    2.1701
   24    2.2969
   25    2.6815
   26    2.7861
   27    3.3385
   28    3.4298
   29    3.4415
   30    3.4546
   31    3.5725
   32    3.5858
   33    3.6728
   34    3.8591
   35    3.8660
   36    3.9903
   37    4.0208
   38    4.0634
   39    4.1666
   40    4.2086
   41    4.4667
   42    4.5339
   43    4.8861
   44    5.0462
   45    5.4474
   46    5.7684
   47    5.9213
   48    6.0598
   49    6.6065
   50    6.8718
   51    6.9448
   52    6.9553
   53    7.0643
   54    7.1068
   55    7.1138
   56    7.5438
   57    7.6686
   58   11.0478


          Converged CI vector

   Index           Coefficient          Config. Occupation
         1         -0.96315381          1  2  3  4  5  1  2  3  4  5
        22          0.07496258          1  2  3  4  5  1  2  3  4  8
         3          0.05988302          1  2  3  4  5  1  2  3  5  6
         8          0.02277038          1  2  3  4  5  1  2  3  5  7
        27         -0.02171397          1  2  3  4  5  1  2  3  6  8
         4          0.02690639          1  2  3  4  5  1  2  4  5  6
         9         -0.04155997          1  2  3  4  5  1  2  4  5  7
        38          0.02277332          1  2  3  4  5  1  2  4  7  8
      1177          0.07496258          1  2  3  4  8  1  2  3  4  5
      1198          0.05161504          1  2  3  4  8  1  2  3  4  8
      1179          0.02934761          1  2  3  4  8  1  2  3  5  6
      1185         -0.02996978          1  2  3  4  8  1  2  4  5  7
       113          0.05988302          1  2  3  5  6  1  2  3  4  5
       134          0.02934761          1  2  3  5  6  1  2  3  4  8
       115          0.10668544          1  2  3  5  6  1  2  3  5  6
       116          0.05846621          1  2  3  5  6  1  2  4  5  6
       121         -0.02091834          1  2  3  5  6  1  2  4  5  7
       117          0.02196980          1  2  3  5  6  1  3  4  5  6
       393          0.02277038          1  2  3  5  7  1  2  3  4  5
       401         -0.02304382          1  2  3  5  7  1  2  4  5  7
      1457         -0.02171397          1  2  3  6  8  1  2  3  4  5
       169          0.02690639          1  2  4  5  6  1  2  3  4  5
       171          0.05846621          1  2  4  5  6  1  2  3  5  6
       172          0.04561387          1  2  4  5  6  1  2  4  5  6
       449         -0.04155997          1  2  4  5  7  1  2  3  4  5
       470         -0.02996978          1  2  4  5  7  1  2  3  4  8
       451         -0.02091834          1  2  4  5  7  1  2  3  5  6
       456         -0.02304382          1  2  4  5  7  1  2  3  5  7
       457          0.05785969          1  2  4  5  7  1  2  4  5  7
       458         -0.02625039          1  2  4  5  7  1  3  4  5  7
      2073          0.02277332          1  2  4  7  8  1  2  3  4  5
       227          0.02196980          1  3  4  5  6  1  2  3  5  6
       229          0.02246687          1  3  4  5  6  1  3  4  5  6
       513         -0.02625039          1  3  4  5  7  1  2  4  5  7
       514          0.02527060          1  3  4  5  7  1  3  4  5  7

          Number of sigma calls:        1
                       o<<<<< (aa):             0.01
                       o<<<<< (bb):             0.00
                       o<<<<< (ab):             0.01
                       o<<<<< (total)           0.02
                       o<<<<< (aa) ff           0.00
                       o<<<<< (aa) gop          0.00
                       o<<<<< (aa) dot          0.00
                       o<<<<< (ab) str          0.00
                       o<<<<< (ab) gath         0.00
                       o<<<<< (ab) dotab        0.00
                       o<<<<< (ab) scat         0.00
                       o<<<<< (ab) sync         0.00
                       o<<<<< Density           0.02
                       o<<<<< Density one       0.01
                       o<<<<< Density two       0.00
                       o<<<<< Density ab        0.01
                       o<<<<< Spin adapt        0.00
                       o<<<<< Symm adapt        0.00

                       o<<<<< (ab) max sync:      0.00



          Natural orbital occupation numbers

              1      
    1    2.0000
    2    1.9983
    3    1.9803
    4    1.9746
    5    1.9408
    6    0.0608
    7    0.0262
    8    0.0191


          Number of sigma calls:       17
                       o<<<<< (aa):             0.00
                       o<<<<< (bb):             0.01
                       o<<<<< (ab):             0.19
                       o<<<<< (total)           0.20
                       o<<<<< (aa) ff           0.00
                       o<<<<< (aa) gop          0.00
                       o<<<<< (aa) dot          0.00
                       o<<<<< (ab) str          0.00
                       o<<<<< (ab) gath         0.00
                       o<<<<< (ab) dotab        0.00
                       o<<<<< (ab) scat         0.00
                       o<<<<< (ab) sync         0.00
                       o<<<<< Density           0.02
                       o<<<<< Density one       0.01
                       o<<<<< Density two       0.00
                       o<<<<< Density ab        0.01
                       o<<<<< Spin adapt        0.72
                       o<<<<< Symm adapt        0.00

                       o<<<<< (ab) max sync:      0.00


       Final MCSCF results 
       ------------------- 

       Total MCSCF energy =    -76.091442533484
            Gradient norm =      3.0D-05

    CPU time for solution =      8.1s
   Wall time for solution =     13.6s



                        Analysis of MCSCF natural orbitals
                        ----------------------------------

 Vector    1  Occ=1.999990D+00  E=-2.056752D+01  Symmetry=a
              MO Center= -9.1D-02, -9.6D-02, -2.2D-13, r^2= 1.5D-02
   Bfn.  Coefficient  Atom+Function         Bfn.  Coefficient  Atom+Function  
  ----- ------------  ---------------      ----- ------------  ---------------
     1      0.974133  1 O  s          

 Vector    2  Occ=1.998264D+00  E=-1.296024D+00  Symmetry=a
              MO Center= -2.9D-01, -1.9D-01,  1.6D-10, r^2= 4.2D-01
   Bfn.  Coefficient  Atom+Function         Bfn.  Coefficient  Atom+Function  
  ----- ------------  ---------------      ----- ------------  ---------------
     2      0.534207  1 O  s                  4      0.396202  1 O  s          

 Vector    3  Occ=1.980291D+00  E=-6.719115D-01  Symmetry=a
              MO Center= -6.3D-02, -8.8D-02, -1.6D-10, r^2= 6.5D-01
   Bfn.  Coefficient  Atom+Function         Bfn.  Coefficient  Atom+Function  
  ----- ------------  ---------------      ----- ------------  ---------------
    10      0.434062  1 O  pz                13      0.394694  1 O  pz         
     7      0.362775  1 O  pz         

 Vector    4  Occ=1.974557D+00  E=-5.485874D-01  Symmetry=a
              MO Center=  3.4D-01, -2.1D-01,  2.9D-14, r^2= 6.0D-01
   Bfn.  Coefficient  Atom+Function         Bfn.  Coefficient  Atom+Function  
  ----- ------------  ---------------      ----- ------------  ---------------
     8      0.344049  1 O  px                 5      0.286949  1 O  px         
    46      0.266442  3 H  s                 11      0.205141  1 O  px         
    45      0.184596  3 H  s          

 Vector    5  Occ=1.940782D+00  E=-5.188759D-01  Symmetry=a
              MO Center= -4.4D-02,  4.6D-01, -7.4D-13, r^2= 8.6D-01
   Bfn.  Coefficient  Atom+Function         Bfn.  Coefficient  Atom+Function  
  ----- ------------  ---------------      ----- ------------  ---------------
     9      0.334962  1 O  py                32      0.275755  2 H  s          
     6      0.266181  1 O  py                12      0.213595  1 O  py         
    31      0.153047  2 H  s          

 Vector    6  Occ=6.083807D-02  E=-4.381894D-02  Symmetry=a
              MO Center= -5.1D-02,  6.9D-01, -5.2D-12, r^2= 8.4D-01
   Bfn.  Coefficient  Atom+Function         Bfn.  Coefficient  Atom+Function  
  ----- ------------  ---------------      ----- ------------  ---------------
    32      0.526306  2 H  s                  9     -0.456116  1 O  py         
     6     -0.415411  1 O  py                31      0.242109  2 H  s          
     2     -0.208456  1 O  s                 33      0.179910  2 H  s          

 Vector    7  Occ=2.619747D-02  E=-2.603330D-02  Symmetry=a
              MO Center=  5.1D-01, -2.7D-01, -1.0D-11, r^2= 6.6D-01
   Bfn.  Coefficient  Atom+Function         Bfn.  Coefficient  Atom+Function  
  ----- ------------  ---------------      ----- ------------  ---------------
    46      0.655682  3 H  s                  5     -0.510647  1 O  px         
     8     -0.436131  1 O  px                45      0.299139  3 H  s          
     2     -0.283372  1 O  s                  4     -0.211850  1 O  s          

 Vector    8  Occ=1.908089D-02  E=-1.533691D-02  Symmetry=a
              MO Center= -1.3D-03, -5.3D-02, -1.9D-10, r^2= 1.3D+00
   Bfn.  Coefficient  Atom+Function         Bfn.  Coefficient  Atom+Function  
  ----- ------------  ---------------      ----- ------------  ---------------
    13      0.827814  1 O  pz                 7     -0.617378  1 O  pz         
    10     -0.329826  1 O  pz         

 Vector    9  Occ=0.000000D+00  E= 3.152117D-01  Symmetry=a
              MO Center=  8.2D-01, -3.5D-01,  6.2D-11, r^2= 4.3D+00
   Bfn.  Coefficient  Atom+Function         Bfn.  Coefficient  Atom+Function  
  ----- ------------  ---------------      ----- ------------  ---------------
    47     -1.757374  3 H  s                  4      1.608918  1 O  s          
    11      0.731087  1 O  px                51      0.494482  3 H  px         
    33     -0.463593  2 H  s                 32      0.296475  2 H  s          
    52     -0.197120  3 H  py         

 Vector   10  Occ=0.000000D+00  E= 3.384531D-01  Symmetry=a
              MO Center=  6.8D-02,  1.2D+00, -1.6D-12, r^2= 4.8D+00
   Bfn.  Coefficient  Atom+Function         Bfn.  Coefficient  Atom+Function  
  ----- ------------  ---------------      ----- ------------  ---------------
    33      1.987835  2 H  s                 47     -1.323557  3 H  s          
    32     -0.887494  2 H  s                 12     -0.479505  1 O  py         
    46      0.303464  3 H  s                 11      0.228033  1 O  px         
    38     -0.182333  2 H  py                51      0.172908  3 H  px         

 Vector   11  Occ=0.000000D+00  E= 6.073721D-01  Symmetry=a
              MO Center= -1.9D-01,  4.1D-01, -1.9D-11, r^2= 2.0D+00
   Bfn.  Coefficient  Atom+Function         Bfn.  Coefficient  Atom+Function  
  ----- ------------  ---------------      ----- ------------  ---------------
    46      2.452478  3 H  s                  4     -2.005378  1 O  s          
    11     -1.819355  1 O  px                51     -0.691448  3 H  px         
    32      0.403266  2 H  s                 37     -0.343331  2 H  px         
    12      0.330138  1 O  py                33     -0.244686  2 H  s          
    47      0.213252  3 H  s                  9      0.179644  1 O  py         

 Vector   12  Occ=0.000000D+00  E= 7.316334D-01  Symmetry=a
              MO Center=  5.4D-02, -4.3D-01,  2.8D-12, r^2= 2.3D+00
   Bfn.  Coefficient  Atom+Function         Bfn.  Coefficient  Atom+Function  
  ----- ------------  ---------------      ----- ------------  ---------------
    12      1.881021  1 O  py                46      1.274738  3 H  s          
    11     -1.059592  1 O  px                32     -0.937699  2 H  s          
    47      0.671846  3 H  s                  4     -0.651596  1 O  s          
    33     -0.541857  2 H  s                 52      0.460967  3 H  py         
     9     -0.415884  1 O  py                38      0.390040  2 H  py         

 Vector   13  Occ=0.000000D+00  E= 8.095315D-01  Symmetry=a
              MO Center=  2.2D-01,  6.1D-01, -1.9D-12, r^2= 1.8D+00
   Bfn.  Coefficient  Atom+Function         Bfn.  Coefficient  Atom+Function  
  ----- ------------  ---------------      ----- ------------  ---------------
    39      0.858774  2 H  pz                53     -0.670960  3 H  pz         

 Vector   14  Occ=0.000000D+00  E= 8.328011D-01  Symmetry=a
              MO Center= -3.0D-01, -4.1D-02, -1.1D-11, r^2= 2.3D+00
   Bfn.  Coefficient  Atom+Function         Bfn.  Coefficient  Atom+Function  
  ----- ------------  ---------------      ----- ------------  ---------------
    46     -1.571501  3 H  s                 11      1.546577  1 O  px         
     4      1.369119  1 O  s                 12      1.054498  1 O  py         
    52     -0.916668  3 H  py                32     -0.908179  2 H  s          
    37     -0.786391  2 H  px                38      0.458988  2 H  py         
     2      0.228924  1 O  s                 47      0.222537  3 H  s          

 Vector   15  Occ=0.000000D+00  E= 9.668488D-01  Symmetry=a
              MO Center=  2.2D-01,  1.9D-02, -1.7D-11, r^2= 2.2D+00
   Bfn.  Coefficient  Atom+Function         Bfn.  Coefficient  Atom+Function  
  ----- ------------  ---------------      ----- ------------  ---------------
    13      1.103317  1 O  pz                53     -1.099780  3 H  pz         
    39     -0.729426  2 H  pz         

 Vector   16  Occ=0.000000D+00  E= 1.073512D+00  Symmetry=a
              MO Center=  2.8D-01,  1.6D-01,  1.7D-11, r^2= 2.4D+00
   Bfn.  Coefficient  Atom+Function         Bfn.  Coefficient  Atom+Function  
  ----- ------------  ---------------      ----- ------------  ---------------
    46     -1.918305  3 H  s                  4      1.855010  1 O  s          
    12     -1.318054  1 O  py                11      1.268744  1 O  px         
    51      1.018242  3 H  px                37     -0.879873  2 H  px         
    52      0.702079  3 H  py                32      0.395857  2 H  s          
    47     -0.385256  3 H  s                  2     -0.257907  1 O  s          

 Vector   17  Occ=0.000000D+00  E= 1.124127D+00  Symmetry=a
              MO Center=  3.2D-03,  1.1D+00,  6.7D-11, r^2= 1.6D+00
   Bfn.  Coefficient  Atom+Function         Bfn.  Coefficient  Atom+Function  
  ----- ------------  ---------------      ----- ------------  ---------------
    38      1.230124  2 H  py                 4     -1.038588  1 O  s          
    46      0.782684  3 H  s                  2      0.681146  1 O  s          
    33     -0.524303  2 H  s                 11     -0.509192  1 O  px         
    47      0.508750  3 H  s                 52      0.404542  3 H  py         
     9      0.353771  1 O  py                 8     -0.250395  1 O  px         

 Vector   18  Occ=0.000000D+00  E= 1.265672D+00  Symmetry=a
              MO Center= -2.3D-02,  1.7D-01,  1.0D-10, r^2= 2.3D+00
   Bfn.  Coefficient  Atom+Function         Bfn.  Coefficient  Atom+Function  
  ----- ------------  ---------------      ----- ------------  ---------------
     4      5.744090  1 O  s                 46     -3.042909  3 H  s          
    51      1.766983  3 H  px                38      1.350679  2 H  py         
    11      1.323195  1 O  px                32     -1.148327  2 H  s          
    52     -1.082749  3 H  py                 8      0.953018  1 O  px         
    12      0.818808  1 O  py                 2     -0.748542  1 O  s          


 Wrote Lagrangian and 1- and 2-particle density matrices to ./H2O.mcpdm


     Multipole analysis of the density
     ---------------------------------

     L   x y z        total        nuclear
     -   - - -        -----        -------
     0   0 0 0     -0.000000     10.000000

     1   1 0 0      0.551915     -0.000000
     1   0 1 0      0.428988      0.000000
     1   0 0 1      0.000000      0.000000

     2   2 0 0     -4.352588      2.679864
     2   1 1 0     -0.846944     -1.433547
     2   1 0 1     -0.000000      0.000000
     2   0 2 0     -3.086666      6.190853
     2   0 1 1     -0.000000      0.000000
     2   0 0 2     -5.756847      0.000000


  Mulliken analysis of the total density
  --------------------------------------

    Atom       Charge   Shell Charges
 -----------   ------   -------------------------------------------------------
    1 O    8     8.47   1.95  1.02  0.24  0.63  1.24  2.03  1.35  0.00  0.01  0.00
    2 H    1     0.77   0.17  0.42  0.14  0.00  0.04  0.00
    3 H    1     0.76   0.25  0.38  0.04  0.02  0.06  0.01

    Mulliken analysis of the active space density
    ---------------------------------------------

    Atom       Charge   Shell Charges
 -----------   ------   -------------------------------------------------------
    1 O    8     8.47   1.95  1.02  0.24  0.63  1.24  2.03  1.35  0.00  0.01  0.00
    2 H    1     0.77   0.17  0.42  0.14  0.00  0.04  0.00
    3 H    1     0.76   0.25  0.38  0.04  0.02  0.06  0.01

 Parallel integral file used      16 records with       0 large values


 Task  times  cpu:        8.2s     wall:       13.6s


                                NWChem Input Module
                                -------------------


                                 NWChem SCF Module
                                 -----------------


                                        H2O



  ao basis        = "ao basis"
  functions       =    58
  atoms           =     3
  closed shells   =     5
  open shells     =     0
  charge          =   0.00
  wavefunction    = RHF 
  input vectors   = ./h2o.mos
  output vectors  = ./h2o-trash.mos
  use symmetry    = F
  symmetry adapt  = F


 Summary of "ao basis" -> "ao basis" (spherical)
 ------------------------------------------------------------------------------
       Tag                 Description            Shells   Functions and Types
 ---------------- ------------------------------  ------  ---------------------
 O                          cc-pVTZ                 10       30   4s3p2d1f
 H                          cc-pVTZ                  6       14   3s2p1d



 Forming initial guess at      13.7s


 Loading old vectors from job with title :

H2O


 Starting SCF solution at      13.7s



 ----------------------------------------------
         Quadratically convergent ROHF

 Convergence threshold     :          1.000E-04
 Maximum no. of iterations :           30
 Final Fock-matrix accuracy:          1.000E-07
 ----------------------------------------------


 Integral file          = ./H2O.aoints.0
 Record size in doubles =  65536        No. of integs per rec  =  43688
 Max. records in memory =     49        Max. records in file   = 252477
 No. of bits per label  =      8        No. of bits per value  =     64


 #quartets = 3.213D+04 #integrals = 6.608D+05 #direct =  0.0% #cached =100.0%



       Final RHF  results 
       ------------------ 

         Total SCF energy =    -75.979122266527
      One-electron energy =   -120.590597227874
      Two-electron energy =     36.752656993030
 Nuclear repulsion energy =      7.858817968317

        Time for solution =      0.2s


             Final eigenvalues
             -----------------

              1      
    1  -20.5675
    2   -1.2960
    3   -0.6719
    4   -0.5486
    5   -0.5189
    6   -0.0438
    7   -0.0260
    8   -0.0153
    9    0.3152
   10    0.3385
   11    0.6074
   12    0.7316
   13    0.8095
   14    0.8328
   15    0.9668

                       ROHF Final Molecular Orbital Analysis
                       -------------------------------------

 Vector    2  Occ=2.000000D+00  E=-1.296024D+00
              MO Center= -2.9D-01, -1.9D-01,  1.6D-10, r^2= 4.2D-01
   Bfn.  Coefficient  Atom+Function         Bfn.  Coefficient  Atom+Function  
  ----- ------------  ---------------      ----- ------------  ---------------
     2      0.534207  1 O  s                  4      0.396202  1 O  s          

 Vector    3  Occ=2.000000D+00  E=-6.719115D-01
              MO Center= -6.3D-02, -8.8D-02, -1.6D-10, r^2= 6.5D-01
   Bfn.  Coefficient  Atom+Function         Bfn.  Coefficient  Atom+Function  
  ----- ------------  ---------------      ----- ------------  ---------------
    10      0.434062  1 O  pz                13      0.394694  1 O  pz         
     7      0.362775  1 O  pz         

 Vector    4  Occ=2.000000D+00  E=-5.485874D-01
              MO Center=  3.4D-01, -2.1D-01,  2.9D-14, r^2= 6.0D-01
   Bfn.  Coefficient  Atom+Function         Bfn.  Coefficient  Atom+Function  
  ----- ------------  ---------------      ----- ------------  ---------------
     8      0.344049  1 O  px                 5      0.286949  1 O  px         
    46      0.266442  3 H  s                 11      0.205141  1 O  px         
    45      0.184596  3 H  s          

 Vector    5  Occ=2.000000D+00  E=-5.188759D-01
              MO Center= -4.4D-02,  4.6D-01, -7.4D-13, r^2= 8.6D-01
   Bfn.  Coefficient  Atom+Function         Bfn.  Coefficient  Atom+Function  
  ----- ------------  ---------------      ----- ------------  ---------------
     9      0.334962  1 O  py                32      0.275755  2 H  s          
     6      0.266181  1 O  py                12      0.213595  1 O  py         
    31      0.153047  2 H  s          

 Vector    6  Occ=0.000000D+00  E=-4.381894D-02
              MO Center= -5.1D-02,  6.9D-01, -5.2D-12, r^2= 8.4D-01
   Bfn.  Coefficient  Atom+Function         Bfn.  Coefficient  Atom+Function  
  ----- ------------  ---------------      ----- ------------  ---------------
    32      0.526306  2 H  s                  9     -0.456116  1 O  py         
     6     -0.415411  1 O  py                31      0.242109  2 H  s          
     2     -0.208456  1 O  s                 33      0.179910  2 H  s          

 Vector    7  Occ=0.000000D+00  E=-2.603330D-02
              MO Center=  5.1D-01, -2.7D-01, -1.0D-11, r^2= 6.6D-01
   Bfn.  Coefficient  Atom+Function         Bfn.  Coefficient  Atom+Function  
  ----- ------------  ---------------      ----- ------------  ---------------
    46      0.655682  3 H  s                  5     -0.510647  1 O  px         
     8     -0.436131  1 O  px                45      0.299139  3 H  s          
     2     -0.283372  1 O  s                  4     -0.211850  1 O  s          

 Vector    8  Occ=0.000000D+00  E=-1.533691D-02
              MO Center= -1.3D-03, -5.3D-02, -1.9D-10, r^2= 1.3D+00
   Bfn.  Coefficient  Atom+Function         Bfn.  Coefficient  Atom+Function  
  ----- ------------  ---------------      ----- ------------  ---------------
    13      0.827814  1 O  pz                 7     -0.617378  1 O  pz         
    10     -0.329826  1 O  pz         

 Vector    9  Occ=0.000000D+00  E= 3.152117D-01
              MO Center=  8.2D-01, -3.5D-01,  6.2D-11, r^2= 4.3D+00
   Bfn.  Coefficient  Atom+Function         Bfn.  Coefficient  Atom+Function  
  ----- ------------  ---------------      ----- ------------  ---------------
    47     -1.757374  3 H  s                  4      1.608918  1 O  s          
    11      0.731087  1 O  px                51      0.494482  3 H  px         
    33     -0.463593  2 H  s                 32      0.296475  2 H  s          
    52     -0.197120  3 H  py         

 Vector   10  Occ=0.000000D+00  E= 3.384531D-01
              MO Center=  6.8D-02,  1.2D+00, -1.6D-12, r^2= 4.8D+00
   Bfn.  Coefficient  Atom+Function         Bfn.  Coefficient  Atom+Function  
  ----- ------------  ---------------      ----- ------------  ---------------
    33      1.987835  2 H  s                 47     -1.323557  3 H  s          
    32     -0.887494  2 H  s                 12     -0.479505  1 O  py         
    46      0.303464  3 H  s                 11      0.228033  1 O  px         
    38     -0.182333  2 H  py                51      0.172908  3 H  px         

 Vector   11  Occ=0.000000D+00  E= 6.073721D-01
              MO Center= -1.9D-01,  4.1D-01, -1.9D-11, r^2= 2.0D+00
   Bfn.  Coefficient  Atom+Function         Bfn.  Coefficient  Atom+Function  
  ----- ------------  ---------------      ----- ------------  ---------------
    46      2.452478  3 H  s                  4     -2.005378  1 O  s          
    11     -1.819355  1 O  px                51     -0.691448  3 H  px         
    32      0.403266  2 H  s                 37     -0.343331  2 H  px         
    12      0.330138  1 O  py                33     -0.244686  2 H  s          
    47      0.213252  3 H  s                  9      0.179644  1 O  py         

 Vector   12  Occ=0.000000D+00  E= 7.316334D-01
              MO Center=  5.4D-02, -4.3D-01,  2.8D-12, r^2= 2.3D+00
   Bfn.  Coefficient  Atom+Function         Bfn.  Coefficient  Atom+Function  
  ----- ------------  ---------------      ----- ------------  ---------------
    12      1.881021  1 O  py                46      1.274738  3 H  s          
    11     -1.059592  1 O  px                32     -0.937699  2 H  s          
    47      0.671846  3 H  s                  4     -0.651596  1 O  s          
    33     -0.541857  2 H  s                 52      0.460967  3 H  py         
     9     -0.415884  1 O  py                38      0.390040  2 H  py         

 Vector   13  Occ=0.000000D+00  E= 8.095315D-01
              MO Center=  2.2D-01,  6.1D-01, -1.9D-12, r^2= 1.8D+00
   Bfn.  Coefficient  Atom+Function         Bfn.  Coefficient  Atom+Function  
  ----- ------------  ---------------      ----- ------------  ---------------
    39      0.858774  2 H  pz                53     -0.670960  3 H  pz         

 Vector   14  Occ=0.000000D+00  E= 8.328011D-01
              MO Center= -3.0D-01, -4.1D-02, -1.1D-11, r^2= 2.3D+00
   Bfn.  Coefficient  Atom+Function         Bfn.  Coefficient  Atom+Function  
  ----- ------------  ---------------      ----- ------------  ---------------
    46     -1.571501  3 H  s                 11      1.546577  1 O  px         
     4      1.369119  1 O  s                 12      1.054498  1 O  py         
    52     -0.916668  3 H  py                32     -0.908179  2 H  s          
    37     -0.786391  2 H  px                38      0.458988  2 H  py         
     2      0.228924  1 O  s                 47      0.222537  3 H  s          

 Vector   15  Occ=0.000000D+00  E= 9.668488D-01
              MO Center=  2.2D-01,  1.9D-02, -1.7D-11, r^2= 2.2D+00
   Bfn.  Coefficient  Atom+Function         Bfn.  Coefficient  Atom+Function  
  ----- ------------  ---------------      ----- ------------  ---------------
    13      1.103317  1 O  pz                53     -1.099780  3 H  pz         
    39     -0.729426  2 H  pz         


 center of mass
 --------------
 x =  -0.07599894 y =  -0.08022892 z =   0.00000000

 moments of inertia (a.u.)
 ------------------
           6.386586466634           1.305239584079           0.000000000000
           1.305239584079           2.833002082974           0.000000000000
           0.000000000000           0.000000000000           9.219588549608

  Mulliken analysis of the total density
  --------------------------------------

    Atom       Charge   Shell Charges
 -----------   ------   -------------------------------------------------------
    1 O    8     8.48   1.95  1.02  0.24  0.63  1.23  2.04  1.36  0.00  0.01  0.00
    2 H    1     0.77   0.17  0.41  0.14  0.00  0.04  0.00
    3 H    1     0.75   0.25  0.38  0.04  0.02  0.06  0.01

       Multipole analysis of the density wrt the origin
       ------------------------------------------------

     L   x y z        total         open         nuclear
     -   - - -        -----         ----         -------
     0   0 0 0     -0.000000      0.000000     10.000000

     1   1 0 0      0.563346      0.000000     -0.000000
     1   0 1 0      0.455477      0.000000      0.000000
     1   0 0 1      0.000000      0.000000      0.000000

     2   2 0 0     -4.331085      0.000000      2.679864
     2   1 1 0     -0.861554      0.000000     -1.433547
     2   1 0 1     -0.000000      0.000000      0.000000
     2   0 2 0     -3.005870      0.000000      6.190853
     2   0 1 1     -0.000000      0.000000      0.000000
     2   0 0 2     -5.740095      0.000000      0.000000


 Parallel integral file used      16 records with       0 large values

 ------------------------------------
     Number of active orbitals      8
     Number of active alpha electrons      5
     Number of active beta electrons       5
 ------------------------------------
                   NWChem Extensible Many-Electron Theory Module
                   ---------------------------------------------

              ======================================================
                   This portion of the program was automatically
                  generated by a Tensor Contraction Engine (TCE).
                  The development of this portion of the program
                 and TCE was supported by US Department of Energy,
                Office of Science, Office of Basic Energy Science.
                      TCE is a product of Battelle and PNNL.
              Please cite: S.Hirata, J.Phys.Chem.A 107, 9887 (2003).
              ======================================================

                                        H2O


            General Information
            -------------------
      Number of processors :     1
         Wavefunction type : Restricted Hartree-Fock
          No. of electrons :    10
           Alpha electrons :     5
            Beta electrons :     5
           No. of orbitals :   116
            Alpha orbitals :    58
             Beta orbitals :    58
        Alpha frozen cores :     0
         Beta frozen cores :     0
     Alpha frozen virtuals :    50
      Beta frozen virtuals :    50
         Spin multiplicity : singlet 
    Number of AO functions :    58
       Number of AO shells :    22
        Use of symmetry is : off
      Symmetry adaption is : off
         Schwarz screening : 0.10D-09

          Correlation Information
          -----------------------
          Calculation type : Coupled-cluster singles & doubles                           
   Perturbative correction : none                                                        
            Max iterations :      100
        Residual threshold : 0.10D-06
     T(0) DIIS level shift : 0.00D+00
     L(0) DIIS level shift : 0.00D+00
     T(1) DIIS level shift : 0.00D+00
     L(1) DIIS level shift : 0.00D+00
     T(R) DIIS level shift : 0.00D+00
     T(I) DIIS level shift : 0.00D+00
   CC-T/L Amplitude update :  5-th order DIIS
                I/O scheme : Global Array Library
        L-threshold :  0.10D-06
        EOM-threshold :  0.10D-06
 no EOMCCSD initial starts read in
 TCE RESTART OPTIONS
 READ_INT:   F
 WRITE_INT:  F
 READ_TA:    F
 WRITE_TA:   F
 READ_XA:    F
 WRITE_XA:   F
 READ_IN3:   F
 WRITE_IN3:  F
 SLICE:      F
 D4D5:       F
 quantumc:   T
 qrotation:  F
 pwtce:      F
 qducc:      F
 nacto:                         0
 nrotv:                         0
 nrot:                          0

            Memory Information
            ------------------
          Available GA space size is    1610609372 doubles
          Available MA space size is    1610609780 doubles

 Maximum block size supplied by input
 Maximum block size         1 doubles

 tile_dim =      1

 Block   Spin    Irrep     Size     Offset   Alpha
 -------------------------------------------------
   1    alpha     a      1 doubles       0       1
   2    alpha     a      1 doubles       1       2
   3    alpha     a      1 doubles       2       3
   4    alpha     a      1 doubles       3       4
   5    alpha     a      1 doubles       4       5
   6    beta      a      1 doubles       5       1
   7    beta      a      1 doubles       6       2
   8    beta      a      1 doubles       7       3
   9    beta      a      1 doubles       8       4
  10    beta      a      1 doubles       9       5
  11    alpha     a      1 doubles      10      11
  12    alpha     a      1 doubles      11      12
  13    alpha     a      1 doubles      12      13
  14    beta      a      1 doubles      13      11
  15    beta      a      1 doubles      14      12
  16    beta      a      1 doubles      15      13

 Global array virtual files algorithm will be used

 Parallel file system coherency ......... OK

 Integral file          = ./H2O.aoints.0
 Record size in doubles =  65536        No. of integs per rec  =  43688
 Max. records in memory =     49        Max. records in file   = 252477
 No. of bits per label  =      8        No. of bits per value  =     64


 #quartets = 3.213D+04 #integrals = 6.608D+05 #direct =  0.0% #cached =100.0%


 Fock matrix recomputed
 1-e file size   =               64
 1-e file name   = ./H2O.f1
 Cpu & wall time / sec            0.2            0.2
 4-electron integrals stored in orbital form

 v2    file size   =              666
 4-index algorithm nr.  13 is used
 imaxsize =       30
 imaxsize ichop =        0
 begin_one_electron_integrals
    1    1       -32.8438310377
    2    1        -1.0056575896
    3    1        -0.0000000001
    4    1         0.1332583502
    5    1         0.0671192780
    6    1        -0.1768271734
    7    1        -0.2049272326
    8    1         0.0000000001
    1    2        -1.0056575896
    2    2        -7.7524281786
    3    2         0.0000000002
    4    2        -0.2544019220
    5    2        -0.1063667228
    6    2         0.2026735538
    7    2         0.1037460524
    1    3        -0.0000000001
    2    3         0.0000000002
    3    3        -6.9249810260
    7    3        -0.0000000001
    8    3         2.1780764536
    1    4         0.1332583502
    2    4        -0.2544019220
    4    4        -6.7252902235
    5    4        -0.1022809884
    6    4         0.0615135428
    7    4         2.0185258760
    8    4         0.0000000002
    1    5         0.0671192780
    2    5        -0.1063667228
    4    5        -0.1022809884
    5    5        -6.0487681481
    6    5         2.0824507992
    7    5        -0.0541166301
    8    5         0.0000000001
    1    6        -0.1768271734
    2    6         0.2026735538
    4    6         0.0615135428
    5    6         2.0824507992
    6    6        -5.7875200962
    7    6         0.0480404703
    1    7        -0.2049272326
    2    7         0.1037460524
    3    7        -0.0000000001
    4    7         2.0185258760
    5    7        -0.0541166301
    6    7         0.0480404703
    7    7        -6.0456147214
    1    8         0.0000000001
    3    8         2.1780764536
    4    8         0.0000000002
    5    8         0.0000000001
    8    8        -5.3527713504
 end_one_electron_integrals
 begin_two_electron_integrals
    1    1    1    1        4.8243488214
    2    1    1    1       -0.2163295992
    2    1    2    1        0.0288332476
    3    1    1    1        0.0000000001
    3    1    3    1        0.0273818592
    4    1    1    1       -0.0897967887
    4    1    2    1        0.0021952874
    4    1    4    1        0.0209837721
    4    1    2    2       -0.0136348640
    4    1    3    3       -0.0023892071
    5    1    1    1       -0.0480529905
    5    1    2    1        0.0005539429
    5    1    4    1        0.0021045331
    5    1    5    1        0.0166948373
    5    1    2    2       -0.0083074317
    5    1    4    2       -0.0000595618
    5    1    3    3       -0.0009932804
    5    1    4    4       -0.0007184071
    6    1    1    1        0.1331353151
    6    1    2    1       -0.0067718977
    6    1    4    1       -0.0038591589
    6    1    5    1       -0.0245495790
    6    1    6    1        0.0375782200
    6    1    2    2        0.0147533493
    6    1    4    2        0.0012617083
    6    1    5    2       -0.0215096626
    6    1    3    3        0.0041740694
    6    1    4    4        0.0042187640
    6    1    5    4       -0.0040376418
    6    1    5    5       -0.0068359967
    7    1    1    1        0.1663629394
    7    1    2    1       -0.0067627161
    7    1    4    1       -0.0333076180
    7    1    5    1       -0.0016051235
    7    1    6    1        0.0042540699
    7    1    7    1        0.0536764716
    7    1    2    2        0.0213727605
    7    1    4    2       -0.0262852001
    7    1    5    2        0.0024127783
    7    1    6    2       -0.0053500874
    7    1    3    3        0.0035688706
    7    1    4    4       -0.0151987426
    7    1    5    4       -0.0022095431
    7    1    6    4        0.0048875810
    7    1    5    5        0.0035235902
    7    1    6    5       -0.0032477877
    7    1    6    6        0.0067204610
    8    1    1    1       -0.0000000001
    8    1    3    1       -0.0381380178
    8    1    8    1        0.0535388397
    8    1    3    2       -0.0365618797
    8    1    4    3       -0.0074105781
    8    1    5    3       -0.0045026610
    8    1    6    3        0.0082545782
    8    1    7    3        0.0096414339
    2    2    1    1        1.0741573535
    2    2    2    1        0.0105555753
    2    2    2    2        0.8375206361
    3    2    3    1        0.0240286591
    3    2    3    2        0.1364884070
    4    2    1    1       -0.0067473330
    4    2    2    1       -0.0037667127
    4    2    4    1        0.0156766697
    4    2    2    2       -0.0530918723
    4    2    4    2        0.0906695945
    4    2    3    3        0.0094541396
    5    2    1    1       -0.0160336823
    5    2    2    1       -0.0025933236
    5    2    4    1        0.0000313408
    5    2    5    1        0.0139137473
    5    2    2    2       -0.0411612333
    5    2    4    2       -0.0090286948
    5    2    5    2        0.0873479812
    5    2    3    3        0.0000132563
    5    2    4    4       -0.0111926481
    6    2    1    1       -0.0439655007
    6    2    2    1        0.0023745149
    6    2    4    1        0.0018771494
    6    2    5    1       -0.0148074757
    6    2    6    1        0.0212813434
    6    2    2    2        0.0048715529
    6    2    4    2        0.0123811433
    6    2    5    2       -0.0670603190
    6    2    6    2        0.0628626698
    6    2    3    3       -0.0241278136
    6    2    4    4       -0.0097933852
    6    2    5    4       -0.0100040153
    6    2    5    5       -0.0361592699
    7    2    1    1       -0.0216936353
    7    2    2    1        0.0040733021
    7    2    4    1       -0.0156881294
    7    2    5    1        0.0021620898
    7    2    6    1       -0.0042889735
    7    2    7    1        0.0244651913
    7    2    2    2        0.0225920229
    7    2    4    2       -0.0573232853
    7    2    5    2        0.0132022303
    7    2    6    2       -0.0159941424
    7    2    7    2        0.0512219311
    7    2    3    3       -0.0160369430
    7    2    4    4       -0.0331644860
    7    2    5    4       -0.0033514964
    7    2    6    4        0.0075996508
    7    2    5    5       -0.0053759831
    7    2    6    5        0.0088858507
    7    2    6    6       -0.0053876536
    8    2    3    1       -0.0199779097
    8    2    8    1        0.0265031544
    8    2    3    2       -0.0530733945
    8    2    8    2        0.0438357917
    8    2    4    3       -0.0056943480
    8    2    5    3       -0.0030955091
    8    2    6    3        0.0111778962
    8    2    7    3        0.0118072339
    3    3    1    1        1.0306330411
    3    3    2    1        0.0071016771
    3    3    2    2        0.7282691016
    3    3    3    3        0.7431391266
    4    3    3    1        0.0050641316
    4    3    3    2        0.0220542389
    4    3    4    3        0.0357099028
    5    3    3    1        0.0029858674
    5    3    3    2        0.0136227058
    5    3    4    3        0.0040837131
    5    3    5    3        0.0281299812
    6    3    3    1       -0.0060385857
    6    3    3    2       -0.0188184477
    6    3    4    3       -0.0037585952
    6    3    5    3       -0.0201109242
    6    3    6    3        0.0231578307
    7    3    3    1       -0.0072145877
    7    3    3    2       -0.0189941745
    7    3    4    3       -0.0194154496
    7    3    5    3       -0.0012665258
    7    3    6    3        0.0034076725
    7    3    7    3        0.0241933067
    8    3    1    1       -0.5342517113
    8    3    2    1       -0.0045390667
    8    3    4    1        0.0034297902
    8    3    5    1        0.0014729760
    8    3    6    1       -0.0050330993
    8    3    7    1       -0.0059895083
    8    3    2    2       -0.2182830324
    8    3    4    2        0.0043538108
    8    3    5    2        0.0049991115
    8    3    6    2        0.0141154559
    8    3    7    2        0.0083794388
    8    3    3    3       -0.2114969220
    8    3    8    3        0.1648165013
    8    3    4    4       -0.1492778202
    8    3    5    4       -0.0044676773
    8    3    6    4        0.0038041633
    8    3    7    4        0.1250586027
    8    3    5    5       -0.1275631983
    8    3    6    5        0.1166473152
    8    3    7    5       -0.0031166478
    8    3    6    6       -0.1553949429
    8    3    7    6        0.0039933996
    8    3    7    7       -0.1777649971
    4    4    1    1        0.9018907793
    4    4    2    1        0.0038421333
    4    4    4    1        0.0080160264
    4    4    2    2        0.6346055696
    4    4    4    2        0.0794433339
    4    4    3    3        0.6275456971
    4    4    4    4        0.7614778200
    5    4    1    1        0.0202196685
    5    4    2    1       -0.0007468432
    5    4    4    1        0.0018424184
    5    4    5    1        0.0030041526
    5    4    2    2       -0.0030572276
    5    4    4    2        0.0027628794
    5    4    5    2        0.0105720014
    5    4    3    3        0.0095343427
    5    4    4    4        0.0093466235
    5    4    5    4        0.0248952090
    6    4    1    1       -0.0163160363
    6    4    2    1        0.0016711903
    6    4    4    1       -0.0036627031
    6    4    5    1       -0.0031884646
    6    4    6    1        0.0043252590
    6    4    2    2        0.0088006722
    6    4    4    2       -0.0071825689
    6    4    5    2       -0.0111542190
    6    4    6    2        0.0078238409
    6    4    3    3       -0.0059990858
    6    4    4    4       -0.0066476532
    6    4    5    4       -0.0177274343
    6    4    6    4        0.0189094551
    6    4    5    5       -0.0145207048
    7    4    1    1       -0.4832019201
    7    4    2    1       -0.0021282838
    7    4    4    1       -0.0046150329
    7    4    5    1        0.0012068012
    7    4    6    1       -0.0042141564
    7    4    7    1        0.0039443985
    7    4    2    2       -0.2108787272
    7    4    4    2        0.0108526302
    7    4    5    2       -0.0018693608
    7    4    6    2        0.0141367281
    7    4    7    2        0.0197246349
    7    4    3    3       -0.1844902450
    7    4    4    4       -0.1123599256
    7    4    5    4       -0.0086381665
    7    4    6    4        0.0102071711
    7    4    7    4        0.2076448252
    7    4    5    5       -0.1357410408
    7    4    6    5        0.1034775009
    7    4    6    6       -0.1604129569
    8    4    3    1       -0.0030927408
    8    4    8    1        0.0036265584
    8    4    3    2        0.0001730424
    8    4    8    2        0.0040481595
    8    4    4    3       -0.0044713682
    8    4    5    3       -0.0003858457
    8    4    6    3        0.0017923180
    8    4    7    3        0.0165184706
    8    4    8    4        0.0165265202
    5    5    1    1        0.8007292698
    5    5    2    1        0.0040860879
    5    5    4    1       -0.0014973089
    5    5    5    1        0.0043985729
    5    5    2    2        0.5924089815
    5    5    4    2       -0.0012055117
    5    5    5    2        0.0536533431
    5    5    3    3        0.5692195536
    5    5    4    4        0.5271329171
    5    5    5    4        0.0137627194
    5    5    5    5        0.6340711163
    6    5    1    1       -0.4550535492
    6    5    2    1       -0.0033253527
    6    5    4    1        0.0018801809
    6    5    5    1       -0.0039173954
    6    5    6    1        0.0014677070
    6    5    2    2       -0.2268997131
    6    5    4    2       -0.0068826831
    6    5    5    2        0.0148763663
    6    5    6    2        0.0184351384
    6    5    3    3       -0.1997442772
    6    5    4    4       -0.1787676839
    6    5    5    4       -0.0075689361
    6    5    6    4        0.0010675391
    6    5    5    5       -0.0897526963
    6    5    6    5        0.2121654197
    7    5    1    1        0.0103674520
    7    5    2    1        0.0016506276
    7    5    4    1       -0.0020947518
    7    5    5    1       -0.0040900193
    7    5    6    1        0.0056495013
    7    5    7    1        0.0027757618
    7    5    2    2        0.0177397728
    7    5    4    2       -0.0051965389
    7    5    5    2       -0.0107035346
    7    5    6    2        0.0091663077
    7    5    7    2        0.0009516511
    7    5    3    3        0.0051023225
    7    5    4    4       -0.0040878777
    7    5    5    4       -0.0116684449
    7    5    6    4        0.0148416977
    7    5    7    4       -0.0050843001
    7    5    5    5       -0.0008875282
    7    5    6    5       -0.0024824452
    7    5    7    5        0.0157719774
    7    5    6    6       -0.0022444739
    8    5    3    1       -0.0018337319
    8    5    8    1        0.0020225301
    8    5    3    2        0.0023073524
    8    5    8    2        0.0027998347
    8    5    4    3       -0.0000631492
    8    5    5    3       -0.0031213969
    8    5    6    3        0.0124875401
    8    5    7    3        0.0006980549
    8    5    8    4        0.0014064932
    8    5    8    5        0.0151246994
    6    6    1    1        0.9247872978
    6    6    2    1        0.0035177001
    6    6    4    1       -0.0030333965
    6    6    5    1        0.0070471597
    6    6    6    1       -0.0092178798
    6    6    2    2        0.5950053675
    6    6    4    2       -0.0042177132
    6    6    5    2        0.0554582787
    6    6    6    2       -0.0431463564
    6    6    3    3        0.5748191384
    6    6    4    4        0.5235779305
    6    6    5    4        0.0127536127
    6    6    6    4       -0.0169077272
    6    6    5    5        0.6416677578
    6    6    6    5       -0.0833784303
    6    6    6    6        0.6917628710
    7    6    1    1       -0.0104484156
    7    6    2    1       -0.0028333578
    7    6    4    1        0.0048491088
    7    6    5    1        0.0050608131
    7    6    6    1       -0.0067439346
    7    6    7    1       -0.0069274597
    7    6    2    2       -0.0268803640
    7    6    4    2        0.0153840260
    7    6    5    2        0.0125563703
    7    6    6    2       -0.0109324348
    7    6    7    2       -0.0086701894
    7    6    3    3       -0.0030902683
    7    6    4    4        0.0126745568
    7    6    5    4        0.0193125490
    7    6    6    4       -0.0186057276
    7    6    7    4        0.0058459759
    7    6    5    5       -0.0000388079
    7    6    6    5       -0.0016704519
    7    6    7    5       -0.0170730036
    7    6    6    6       -0.0017648270
    7    6    7    6        0.0248317602
    8    6    3    1        0.0059562214
    8    6    8    1       -0.0085973010
    8    6    3    2        0.0215044086
    8    6    8    2       -0.0080369253
    8    6    4    3        0.0049530103
    8    6    5    3        0.0198203324
    8    6    6    3       -0.0167820520
    8    6    7    3       -0.0025546385
    8    6    8    4       -0.0002707924
    8    6    8    5       -0.0053959795
    8    6    8    6        0.0218056400
    7    7    1    1        1.0645810445
    7    7    2    1        0.0019874516
    7    7    4    1        0.0084431567
    7    7    5    1       -0.0022179783
    7    7    6    1        0.0080746901
    7    7    7    1       -0.0148166857
    7    7    2    2        0.6323701540
    7    7    4    2        0.0710395322
    7    7    5    2       -0.0132596969
    7    7    6    2       -0.0110617828
    7    7    7    2       -0.0336855541
    7    7    3    3        0.6283817060
    7    7    4    4        0.7430407484
    7    7    5    4        0.0070338670
    7    7    6    4       -0.0045370451
    7    7    7    4       -0.1215988319
    7    7    5    5        0.5200790990
    7    7    6    5       -0.1944807457
    7    7    7    5       -0.0027610050
    7    7    6    6        0.5322485426
    7    7    7    6        0.0107139211
    7    7    7    7        0.7830819616
    8    7    3    1        0.0073822522
    8    7    8    1       -0.0104969525
    8    7    3    2        0.0248716855
    8    7    8    2       -0.0086796837
    8    7    4    3        0.0276877326
    8    7    5    3        0.0029803099
    8    7    6    3       -0.0030627945
    8    7    7    3       -0.0175918915
    8    7    8    4       -0.0057165420
    8    7    8    5        0.0005933330
    8    7    8    6        0.0049691973
    8    7    8    7        0.0297833767
    8    8    1    1        1.0264449070
    8    8    2    1        0.0037077867
    8    8    4    1       -0.0041785604
    8    8    5    1       -0.0017088011
    8    8    6    1        0.0059849551
    8    8    7    1        0.0066191218
    8    8    2    2        0.6270864449
    8    8    4    2        0.0076584178
    8    8    5    2        0.0012694122
    8    8    6    2       -0.0198129064
    8    8    7    2       -0.0114469619
    8    8    3    3        0.6428423166
    8    8    8    3       -0.1841955533
    8    8    4    4        0.5586895766
    8    8    5    4        0.0084147330
    8    8    6    4       -0.0052863193
    8    8    7    4       -0.1541537013
    8    8    5    5        0.5115944019
    8    8    6    5       -0.1635193427
    8    8    7    5        0.0037913081
    8    8    6    6        0.5270402883
    8    8    7    6       -0.0017931838
    8    8    7    7        0.5777154954
    8    8    8    8        0.5968302039
 end_two_electron_integrals
 enrep_tce =    7.8588179683169574     
  EHF(A)             =       -75.97912227
  EHF(total)         =       -75.97912227
  Shift (HFtot-HFA)  =        -0.00000000
 Cpu & wall time / sec            2.4            2.4
 T1-number-of-tasks                   15

 t1 file size   =               15
 t1 file name   = ./H2O.t1
 t1 file handle =       -998
 T2-number-of-boxes                  315

 t2 file size   =              315
 t2 file name   = ./H2O.t2
 t2 file handle =       -996
CCSD iterations
 ---------------------------------------------------------
 Iter          Residuum       Correlation     Cpu    Wall 
 ---------------------------------------------------------
NEW TASK SCHEDULING
CCSD_T1_NTS --- OK
CCSD_T2_NTS --- OK
    1   0.6802069741816  -0.2456055496096     4.4     6.0
    2   1.0411897287511   0.0851296795433     4.4     6.1
    3   1.6094691545606  -0.4162193976873     4.6     6.4
    4   2.5325354258468   0.3455744297107     4.2     5.9
    5   3.9097684627589  -0.8523670386709     4.3     6.1
 MICROCYCLE DIIS UPDATE:                    5                    5
    6   0.0144106815098  -0.1130849261301     4.8     6.3
    7   0.0165770271253  -0.1094478366914     4.2     5.9
    8   0.0264427556970  -0.1145942239336     4.4     6.0
    9   0.0450886668050  -0.1069022387637     4.3     5.9
   10   0.0795372174538  -0.1184474110414     4.5     6.5
 MICROCYCLE DIIS UPDATE:                   10                    5
   11   0.0002839471062  -0.1115331262139     4.4     6.2
   12   0.0002380097050  -0.1115911751050     4.2     6.0
   13   0.0003224087736  -0.1115221074540     4.3     6.0
   14   0.0004887146752  -0.1116296902089     4.5     6.0
   15   0.0007760144678  -0.1114593086579     4.7     6.3
 MICROCYCLE DIIS UPDATE:                   15                    5
   16   0.0000148210558  -0.1115645024173     5.0     6.7
   17   0.0000136891811  -0.1115629885967     4.4     6.3
   18   0.0000237246801  -0.1115659962153     4.6     6.2
   19   0.0000426514400  -0.1115612227154     4.5     6.1
   20   0.0000777014871  -0.1115686572726     4.5     6.2
 MICROCYCLE DIIS UPDATE:                   20                    5
   21   0.0000002638763  -0.1115641285607     4.2     5.9
   22   0.0000002127658  -0.1115641668006     4.2     6.0
   23   0.0000002813714  -0.1115640985360     4.5     6.2
   24   0.0000004374919  -0.1115642093061     4.4     6.0
   25   0.0000007040393  -0.1115640353541     4.1     5.9
 MICROCYCLE DIIS UPDATE:                   25                    5
   26   0.0000000142538  -0.1115641427284     4.4     5.9
 -----------------------------------------------------------------
 Iterations converged
 CCSD correlation energy / hartree =        -0.111564142728419
 CCSD total energy / hartree       =       -76.090686409255227

 Singles contributions

 Doubles contributions
     6a   (alpha)     7a   (alpha) ---     4a   (alpha)     5a   (alpha)        0.0230202463
     6a   (alpha)     8a   (alpha) ---     3a   (alpha)     5a   (alpha)        0.0311717284
     6a   (alpha)     6a   (beta ) ---     5a   (alpha)     5a   (beta )       -0.1569755966
     6a   (alpha)     7a   (beta ) ---     5a   (alpha)     4a   (beta )       -0.0370589002
     6a   (alpha)     8a   (beta ) ---     5a   (alpha)     3a   (beta )       -0.0427657165
     7a   (alpha)     8a   (alpha) ---     3a   (alpha)     4a   (alpha)        0.0304491437
     7a   (alpha)     6a   (beta ) ---     4a   (alpha)     5a   (beta )       -0.0370589002
     7a   (alpha)     7a   (beta ) ---     4a   (alpha)     4a   (beta )       -0.0866327944
     7a   (alpha)     8a   (beta ) ---     4a   (alpha)     3a   (beta )       -0.0408204327
     8a   (alpha)     6a   (beta ) ---     3a   (alpha)     5a   (beta )       -0.0427657165
     8a   (alpha)     7a   (beta ) ---     3a   (alpha)     4a   (beta )       -0.0408204327
     8a   (alpha)     8a   (beta ) ---     3a   (alpha)     3a   (beta )       -0.0584328673
 Ground state specification:
 exp(T)|Ref>~(1+T)|Ref>
 ------- a(p)+/a(q) strings ----------

 singles norm

 doubles norm

 Reference string
  0.98790245233385710      :(1a)+ (2a)+ (3a)+ (4a)+ (5a)+ (1b)+ (2b)+ (3b)+ (4b)+ (5b)+ |0>

 Singles strings

 Doubles strings
 -0.15507657680240214      :(6a)+ (6b)+ (5b)  (5a)  (1a)+ (2a)+ (3a)+ (4a)+ (5a)+ (1b)+ (2b)+ (3b)+ (4b)+ (5b)+ |0>
 -------------------------------------

 Parallel integral file used      16 records with       0 large values


 Task  times  cpu:      118.5s     wall:      163.5s


                                NWChem Input Module
                                -------------------


 Summary of allocated global arrays
-----------------------------------
  No active global arrays


MA_summarize_allocated_blocks: starting scan ...
MA_summarize_allocated_blocks: scan completed: 0 heap blocks, 0 stack blocks
MA usage statistics:

	allocation statistics:
					      heap	     stack
					      ----	     -----
	current number of blocks	         0	         0
	maximum number of blocks	        18	        42
	current total bytes		         0	         0
	maximum total bytes		  25775928	  38234424
	maximum total K-bytes		     25776	     38235
	maximum total M-bytes		        26	        39


                                     CITATION
                                     --------
                Please cite the following reference when publishing
                           results obtained with NWChem:

          E. Apra, E. J. Bylaska, W. A. de Jong, N. Govind, K. Kowalski,
       T. P. Straatsma, M. Valiev, H. J. J. van Dam, Y. Alexeev, J. Anchell,
       V. Anisimov, F. W. Aquino, R. Atta-Fynn, J. Autschbach, N. P. Bauman,
     J. C. Becca, D. E. Bernholdt, K. Bhaskaran-Nair, S. Bogatko, P. Borowski,
         J. Boschen, J. Brabec, A. Bruner, E. Cauet, Y. Chen, G. N. Chuev,
      C. J. Cramer, J. Daily, M. J. O. Deegan, T. H. Dunning Jr., M. Dupuis,
   K. G. Dyall, G. I. Fann, S. A. Fischer, A. Fonari, H. Fruchtl, L. Gagliardi,
      J. Garza, N. Gawande, S. Ghosh, K. Glaesemann, A. W. Gotz, J. Hammond,
       V. Helms, E. D. Hermes, K. Hirao, S. Hirata, M. Jacquelin, L. Jensen,
   B. G. Johnson, H. Jonsson, R. A. Kendall, M. Klemm, R. Kobayashi, V. Konkov,
      S. Krishnamoorthy, M. Krishnan, Z. Lin, R. D. Lins, R. J. Littlefield,
      A. J. Logsdail, K. Lopata, W. Ma, A. V. Marenich, J. Martin del Campo,
   D. Mejia-Rodriguez, J. E. Moore, J. M. Mullin, T. Nakajima, D. R. Nascimento,
    J. A. Nichols, P. J. Nichols, J. Nieplocha, A. Otero-de-la-Roza, B. Palmer,
    A. Panyala, T. Pirojsirikul, B. Peng, R. Peverati, J. Pittner, L. Pollack,
   R. M. Richard, P. Sadayappan, G. C. Schatz, W. A. Shelton, D. W. Silverstein,
   D. M. A. Smith, T. A. Soares, D. Song, M. Swart, H. L. Taylor, G. S. Thomas,
            V. Tipparaju, D. G. Truhlar, K. Tsemekhman, T. Van Voorhis,
      A. Vazquez-Mayagoitia, P. Verma, O. Villa, A. Vishnu, K. D. Vogiatzis,
        D. Wang, J. H. Weare, M. J. Williamson, T. L. Windus, K. Wolinski,
        A. T. Wong, Q. Wu, C. Yang, Q. Yu, M. Zacharias, Z. Zhang, Y. Zhao,
                                and R. J. Harrison
                        "NWChem: Past, present, and future
                         J. Chem. Phys. 152, 184102 (2020)
                               doi:10.1063/5.0004997

                                      AUTHORS
                                      -------
  E. Apra, E. J. Bylaska, N. Govind, K. Kowalski, M. Valiev, D. Mejia-Rodriguez,
       A. Kunitsa, N. P. Bauman, A. Panyala, W. A. de Jong, T. P. Straatsma,
        H. J. J. van Dam, D. Wang, T. L. Windus, J. Hammond, J. Autschbach,
    K. Bhaskaran-Nair, J. Brabec, K. Lopata, S. A. Fischer, S. Krishnamoorthy,
     M. Jacquelin, W. Ma, M. Klemm, O. Villa, Y. Chen, V. Anisimov, F. Aquino,
    S. Hirata, M. T. Hackler, Eric Hermes, L. Jensen, J. E. Moore, J. C. Becca,
      V. Konjkov, T. Risthaus, M. Malagoli, A. Marenich, A. Otero-de-la-Roza,
        J. Mullin, P. Nichols, R. Peverati, J. Pittner, Y. Zhao, P.-D. Fan,
        A. Fonari, M. J. Williamson, R. J. Harrison, J. R. Rehr, M. Dupuis,
     D. Silverstein, D. M. A. Smith, J. Nieplocha, V. Tipparaju, M. Krishnan,
     B. E. Van Kuiken, A. Vazquez-Mayagoitia, M. Swart, Q. Wu, T. Van Voorhis,
     A. A. Auer, M. Nooijen, L. D. Crosby, E. Brown, G. Cisneros, G. I. Fann,
   H. Fruchtl, J. Garza, K. Hirao, R. A. Kendall, J. A. Nichols, K. Tsemekhman,
    K. Wolinski, J. Anchell, D. E. Bernholdt, P. Borowski, T. Clark, D. Clerc,
   H. Dachsel, M. J. O. Deegan, K. Dyall, D. Elwood, E. Glendening, M. Gutowski,
   A. C. Hess, J. Jaffe, B. G. Johnson, J. Ju, R. Kobayashi, R. Kutteh, Z. Lin,
   R. Littlefield, X. Long, B. Meng, T. Nakajima, S. Niu, L. Pollack, M. Rosing,
   K. Glaesemann, G. Sandrone, M. Stave, H. Taylor, G. Thomas, J. H. van Lenthe,
                               A. T. Wong, Z. Zhang.

 Total times  cpu:      126.7s     wall:      177.2s
