 argument  1 = input.nw
  NWChem w/ OpenMP: maximum threads =    1



============================== echo of input deck ==============================
 echo
 start HChain
 title "HChain"

 memory total 24 gb

 geometry units bohr
 symmetry c1
   H 0.0  0.0  0.0
   H 3.0  0.0  0.0
   H 6.0  0.0  0.0
   H 9.0  0.0  0.0
   H 12.0  0.0  0.0
   H 15.0  0.0  0.0
 end

 basis
   * library cc-pVTZ
 end

 tce
   2eorb
   2emet 13
   ccsd
 end

 set tce:print_integrals T
 set tce:qorb 6
 set tce:qela 3
 set tce:qelb 3

# set tce:qducc T
# set tce:nactv 2
# set tce:nonhf F
# set tce:ducc_model 6

 set tce:printtol 0.02

 task tce
================================================================================


                                         
                                         


             Northwest Computational Chemistry Package (NWChem) 7.0.1
             --------------------------------------------------------


                    Environmental Molecular Sciences Laboratory
                       Pacific Northwest National Laboratory
                                Richland, WA 99352

                              Copyright (c) 1994-2020
                       Pacific Northwest National Laboratory
                            Battelle Memorial Institute

             NWChem is an open-source computational chemistry package
                        distributed under the terms of the
                      Educational Community License (ECL) 2.0
             A copy of the license is included with this distribution
                              in the LICENSE.TXT file

                                  ACKNOWLEDGMENT
                                  --------------

            This software and its documentation were developed at the
            EMSL at Pacific Northwest National Laboratory, a multiprogram
            national laboratory, operated for the U.S. Department of Energy
            by Battelle under Contract Number DE-AC05-76RL01830. Support
            for this work was provided by the Department of Energy Office
            of Biological and Environmental Research, Office of Basic
            Energy Sciences, and the Office of Advanced Scientific Computing.


           Job information
           ---------------

    hostname        = WE46210
    program         = /home/baum612/code/nwchem/bin/LINUX64/nwchem
    date            = Thu Sep  5 13:05:06 2024

    compiled        = Wed_Sep_04_02:00:17_2024
    source          = /home/baum612/code/nwchem
    nwchem branch   = 7.0.0
    nwchem revision = nwchem_on_git-4191-g39d87d64de
    ga revision     = 5.8.1
    use scalapack   = F
    input           = input.nw
    prefix          = HChain.
    data base       = ./HChain.db
    status          = startup
    nproc           =        1
    time left       =     -1s



           Memory information
           ------------------

    heap     =  805306366 doubles =   6144.0 Mbytes
    stack    =  805306363 doubles =   6144.0 Mbytes
    global   = 1610612736 doubles =  12288.0 Mbytes (distinct from heap & stack)
    total    = 3221225465 doubles =  24576.0 Mbytes
    verify   = yes
    hardfail = no 


           Directory information
           ---------------------

  0 permanent = .
  0 scratch   = .




                                NWChem Input Module
                                -------------------


                                      HChain
                                      ------
 Turning off AUTOSYM since
 SYMMETRY directive was detected!


          ------
          auto-z
          ------
     1 autoz failed with cvr_scaling = 1.2 changing to 1.3
     2 autoz failed with cvr_scaling = 1.3 changing to 1.4
     3 autoz failed with cvr_scaling = 1.4 changing to 1.5
     4 autoz failed with cvr_scaling = 1.5 changing to 1.6
     5 autoz failed with cvr_scaling = 1.6 changing to 1.7

 AUTOZ failed to generate good internal coordinates.
 Cartesian coordinates will be used in optimizations.



                             Geometry "geometry" -> ""
                             -------------------------

 Output coordinates in a.u. (scale by  1.000000000 to convert to a.u.)

  No.       Tag          Charge          X              Y              Z
 ---- ---------------- ---------- -------------- -------------- --------------
    1 H                    1.0000    -7.50000000     0.00000000     0.00000000
    2 H                    1.0000    -4.50000000     0.00000000     0.00000000
    3 H                    1.0000    -1.50000000     0.00000000     0.00000000
    4 H                    1.0000     1.50000000     0.00000000     0.00000000
    5 H                    1.0000     4.50000000     0.00000000     0.00000000
    6 H                    1.0000     7.50000000     0.00000000     0.00000000

      Atomic Mass 
      ----------- 

      H                  1.007825


 Effective nuclear repulsion energy (a.u.)       2.9000000000

            Nuclear Dipole moment (a.u.) 
            ----------------------------
        X                 Y               Z
 ---------------- ---------------- ----------------
     0.0000000000     0.0000000000     0.0000000000


            XYZ format geometry
            -------------------
     6
 geometry
 H                    -3.96882937     0.00000000     0.00000000
 H                    -2.38129762     0.00000000     0.00000000
 H                    -0.79376587     0.00000000     0.00000000
 H                     0.79376587     0.00000000     0.00000000
 H                     2.38129762     0.00000000     0.00000000
 H                     3.96882937     0.00000000     0.00000000



 Summary of "ao basis" -> "" (cartesian)
 ------------------------------------------------------------------------------
       Tag                 Description            Shells   Functions and Types
 ---------------- ------------------------------  ------  ---------------------
 *                          cc-pVTZ                   on all atoms 


                      Basis "ao basis" -> "ao basis" (cartesian)
                      -----
  H (Hydrogen)
  ------------
            Exponent  Coefficients 
       -------------- ---------------------------------------------------------
  1 S  3.38700000E+01  0.006068
  1 S  5.09500000E+00  0.045308
  1 S  1.15900000E+00  0.202822

  2 S  3.25800000E-01  1.000000

  3 S  1.02700000E-01  1.000000

  4 P  1.40700000E+00  1.000000

  5 P  3.88000000E-01  1.000000

  6 D  1.05700000E+00  1.000000



 Summary of "ao basis" -> "ao basis" (cartesian)
 ------------------------------------------------------------------------------
       Tag                 Description            Shells   Functions and Types
 ---------------- ------------------------------  ------  ---------------------
 H                          cc-pVTZ                  6       15   3s2p1d


                                 NWChem SCF Module
                                 -----------------


                                      HChain



  ao basis        = "ao basis"
  functions       =    90
  atoms           =     6
  closed shells   =     3
  open shells     =     0
  charge          =   0.00
  wavefunction    = RHF 
  input vectors   = atomic
  output vectors  = ./HChain.movecs
  use symmetry    = F
  symmetry adapt  = F


 Summary of "ao basis" -> "ao basis" (cartesian)
 ------------------------------------------------------------------------------
       Tag                 Description            Shells   Functions and Types
 ---------------- ------------------------------  ------  ---------------------
 H                          cc-pVTZ                  6       15   3s2p1d



 Forming initial guess at       0.0s


      Superposition of Atomic Density Guess
      -------------------------------------

 Sum of atomic energies:          -2.99885518

      Non-variational initial energy
      ------------------------------

 Total energy =      -2.243681
 1-e energy   =      -8.766035
 2-e energy   =       3.622353
 HOMO         =      -0.258837
 LUMO         =      -0.136818


 Starting SCF solution at       0.1s



 ----------------------------------------------
         Quadratically convergent ROHF

 Convergence threshold     :          1.000E-04
 Maximum no. of iterations :           30
 Final Fock-matrix accuracy:          1.000E-07
 ----------------------------------------------


 Integral file          = ./HChain.aoints.0
 Record size in doubles =  65536        No. of integs per rec  =  43688
 Max. records in memory =    264        Max. records in file   = 232487
 No. of bits per label  =      8        No. of bits per value  =     64


 #quartets = 1.136D+05 #integrals = 7.988D+05 #direct =  0.0% #cached =100.0%


              iter       energy          gnorm     gmax       time
             ----- ------------------- --------- --------- --------
                 1       -2.9582445670  1.70D-01  9.34D-02      0.2
                 2       -2.9693833131  1.86D-02  1.24D-02      0.2
                 3       -2.9694638016  1.43D-04  5.14D-05      0.3
                 4       -2.9694638046  6.79D-06  4.88D-06      0.3


       Final RHF  results 
       ------------------ 

         Total SCF energy =     -2.969463804579
      One-electron energy =     -9.078031454441
      Two-electron energy =      3.208567649862
 Nuclear repulsion energy =      2.900000000000

        Time for solution =      0.2s


             Final eigenvalues
             -----------------

              1      
    1   -0.5089
    2   -0.4529
    3   -0.3687
    4   -0.0735
    5    0.0455
    6    0.1697
    7    0.3284
    8    0.3501
    9    0.3801
   10    0.4271
   11    0.5063
   12    0.5917
   13    0.5955

                       ROHF Final Molecular Orbital Analysis
                       -------------------------------------

 Vector    1  Occ=2.000000D+00  E=-5.088532D-01
              MO Center=  1.5D-14, -3.2D-17, -3.1D-17, r^2= 4.9D+00
   Bfn.  Coefficient  Atom+Function         Bfn.  Coefficient  Atom+Function  
  ----- ------------  ---------------      ----- ------------  ---------------
    32      0.202971  3 H  s                 47      0.202971  4 H  s          
    17      0.153153  2 H  s                 33      0.153608  3 H  s          
    48      0.153608  4 H  s                 62      0.153153  5 H  s          

 Vector    2  Occ=2.000000D+00  E=-4.528521D-01
              MO Center= -9.8D-15,  9.3D-18, -2.1D-17, r^2= 1.0D+01
   Bfn.  Coefficient  Atom+Function         Bfn.  Coefficient  Atom+Function  
  ----- ------------  ---------------      ----- ------------  ---------------
    18      0.204561  2 H  s                 63     -0.204561  5 H  s          
    17      0.192900  2 H  s                 62     -0.192900  5 H  s          
     2      0.177098  1 H  s                 77     -0.177098  6 H  s          
     3      0.154814  1 H  s                 78     -0.154814  6 H  s          

 Vector    3  Occ=2.000000D+00  E=-3.687427D-01
              MO Center= -3.1D-15,  1.4D-16, -2.6D-16, r^2= 9.0D+00
   Bfn.  Coefficient  Atom+Function         Bfn.  Coefficient  Atom+Function  
  ----- ------------  ---------------      ----- ------------  ---------------
    33      0.223097  3 H  s                 48      0.223097  4 H  s          
     3     -0.196084  1 H  s                 78     -0.196084  6 H  s          
    32      0.176979  3 H  s                 47      0.176979  4 H  s          
     2     -0.175104  1 H  s                 77     -0.175104  6 H  s          
    18     -0.164766  2 H  s                 63     -0.164766  5 H  s          

 Vector    4  Occ=0.000000D+00  E=-7.346013D-02
              MO Center=  2.6D-14, -3.4D-18,  2.0D-17, r^2= 9.8D+00
   Bfn.  Coefficient  Atom+Function         Bfn.  Coefficient  Atom+Function  
  ----- ------------  ---------------      ----- ------------  ---------------
     3      0.401774  1 H  s                 78     -0.401774  6 H  s          
    33     -0.315747  3 H  s                 48      0.315747  4 H  s          
    18     -0.212649  2 H  s                 63      0.212649  5 H  s          
    32     -0.163175  3 H  s                 47      0.163175  4 H  s          

 Vector    5  Occ=0.000000D+00  E= 4.549116D-02
              MO Center= -5.2D-14, -4.2D-16, -7.7D-17, r^2= 1.3D+01
   Bfn.  Coefficient  Atom+Function         Bfn.  Coefficient  Atom+Function  
  ----- ------------  ---------------      ----- ------------  ---------------
    18     -0.679930  2 H  s                 63     -0.679930  5 H  s          
     3      0.632517  1 H  s                 78      0.632517  6 H  s          
    33      0.261750  3 H  s                 48      0.261750  4 H  s          
    17     -0.164406  2 H  s                 62     -0.164406  5 H  s          

 Vector    6  Occ=0.000000D+00  E= 1.696888D-01
              MO Center=  2.4D-14, -4.0D-18,  3.9D-18, r^2= 9.2D+00
   Bfn.  Coefficient  Atom+Function         Bfn.  Coefficient  Atom+Function  
  ----- ------------  ---------------      ----- ------------  ---------------
    33      1.223594  3 H  s                 48     -1.223594  4 H  s          
    18     -1.005383  2 H  s                 63      1.005383  5 H  s          
     3      0.726885  1 H  s                 78     -0.726885  6 H  s          
    32      0.154511  3 H  s                 47     -0.154511  4 H  s          

 Vector    7  Occ=0.000000D+00  E= 3.283633D-01
              MO Center=  6.0D-13, -1.1D-16, -2.2D-16, r^2= 9.7D+00
   Bfn.  Coefficient  Atom+Function         Bfn.  Coefficient  Atom+Function  
  ----- ------------  ---------------      ----- ------------  ---------------
    32      0.904737  3 H  s                 47      0.904737  4 H  s          
     2      0.753303  1 H  s                 77      0.753303  6 H  s          
    17      0.704932  2 H  s                 62      0.704932  5 H  s          
    33     -0.625848  3 H  s                 48     -0.625848  4 H  s          
     3     -0.575836  1 H  s                 78     -0.575836  6 H  s          

 Vector    8  Occ=0.000000D+00  E= 3.501063D-01
              MO Center= -8.5D-13,  9.2D-17,  1.0D-16, r^2= 1.6D+01
   Bfn.  Coefficient  Atom+Function         Bfn.  Coefficient  Atom+Function  
  ----- ------------  ---------------      ----- ------------  ---------------
     2      1.194080  1 H  s                 77     -1.194080  6 H  s          
     3     -0.999357  1 H  s                 78      0.999357  6 H  s          
    17      0.522281  2 H  s                 62     -0.522281  5 H  s          
    32      0.491312  3 H  s                 47     -0.491312  4 H  s          
    33     -0.452881  3 H  s                 48      0.452881  4 H  s          

 Vector    9  Occ=0.000000D+00  E= 3.801345D-01
              MO Center=  2.8D-13, -5.9D-17, -1.0D-16, r^2= 1.6D+01
   Bfn.  Coefficient  Atom+Function         Bfn.  Coefficient  Atom+Function  
  ----- ------------  ---------------      ----- ------------  ---------------
     3     -1.183954  1 H  s                 78     -1.183954  6 H  s          
     2      1.150611  1 H  s                 77      1.150611  6 H  s          
    32     -0.760548  3 H  s                 47     -0.760548  4 H  s          
    33      0.558512  3 H  s                 48      0.558512  4 H  s          
    18      0.413840  2 H  s                 63      0.413840  5 H  s          

 Vector   10  Occ=0.000000D+00  E= 4.270790D-01
              MO Center= -2.9D-13,  4.0D-17,  1.5D-16, r^2= 1.3D+01
   Bfn.  Coefficient  Atom+Function         Bfn.  Coefficient  Atom+Function  
  ----- ------------  ---------------      ----- ------------  ---------------
    18      1.642076  2 H  s                 63     -1.642076  5 H  s          
    17     -1.275712  2 H  s                 62      1.275712  5 H  s          
     3     -1.109622  1 H  s                 78      1.109622  6 H  s          
     2      0.707502  1 H  s                 77     -0.707502  6 H  s          
    32     -0.352044  3 H  s                 47      0.352044  4 H  s          

 Vector   11  Occ=0.000000D+00  E= 5.063136D-01
              MO Center=  4.5D-13, -1.7D-16, -1.6D-17, r^2= 9.2D+00
   Bfn.  Coefficient  Atom+Function         Bfn.  Coefficient  Atom+Function  
  ----- ------------  ---------------      ----- ------------  ---------------
    18      2.063202  2 H  s                 63      2.063202  5 H  s          
    17     -1.319552  2 H  s                 62     -1.319552  5 H  s          
    33     -1.198921  3 H  s                 48     -1.198921  4 H  s          
    32      0.817917  3 H  s                 47      0.817917  4 H  s          
     3     -0.787477  1 H  s                 78     -0.787477  6 H  s          

 Vector   12  Occ=0.000000D+00  E= 5.916514D-01
              MO Center= -1.8D-13, -2.2D-16, -8.0D-17, r^2= 7.5D+00
   Bfn.  Coefficient  Atom+Function         Bfn.  Coefficient  Atom+Function  
  ----- ------------  ---------------      ----- ------------  ---------------
    33      3.647722  3 H  s                 48     -3.647722  4 H  s          
    18     -2.124101  2 H  s                 63      2.124101  5 H  s          
    32     -1.567446  3 H  s                 47      1.567446  4 H  s          
    17      0.777291  2 H  s                 62     -0.777291  5 H  s          
     3      0.399160  1 H  s                 78     -0.399160  6 H  s          

 Vector   13  Occ=0.000000D+00  E= 5.954653D-01
              MO Center=  5.5D-14,  2.4D-16, -4.5D-16, r^2= 4.7D+00
   Bfn.  Coefficient  Atom+Function         Bfn.  Coefficient  Atom+Function  
  ----- ------------  ---------------      ----- ------------  ---------------
    39     -0.345719  3 H  pz                54     -0.345719  4 H  pz         
    38      0.335967  3 H  py                53      0.335967  4 H  py         
    24     -0.272226  2 H  pz                69     -0.272226  5 H  pz         
    23      0.264547  2 H  py                68      0.264547  5 H  py         


 center of mass
 --------------
 x =   0.00000000 y =   0.00000000 z =   0.00000000

 moments of inertia (a.u.)
 ------------------
           0.000000000000           0.000000000000           0.000000000000
           0.000000000000         158.732437500000           0.000000000000
           0.000000000000           0.000000000000         158.732437500000

  Mulliken analysis of the total density
  --------------------------------------

    Atom       Charge   Shell Charges
 -----------   ------   -------------------------------------------------------
    1 H    1     0.97   0.13  0.41  0.42  0.00  0.01 -0.00
    2 H    1     1.04   0.14  0.43  0.46  0.00  0.02  0.00
    3 H    1     0.99   0.14  0.43  0.41  0.00  0.02 -0.00
    4 H    1     0.99   0.14  0.43  0.41  0.00  0.02 -0.00
    5 H    1     1.04   0.14  0.43  0.46  0.00  0.02  0.00
    6 H    1     0.97   0.13  0.41  0.42  0.00  0.01 -0.00

       Multipole analysis of the density wrt the origin
       ------------------------------------------------

     L   x y z        total         open         nuclear
     -   - - -        -----         ----         -------
     0   0 0 0     -0.000000      0.000000      6.000000

     1   1 0 0     -0.000000      0.000000      0.000000
     1   0 1 0     -0.000000      0.000000      0.000000
     1   0 0 1      0.000000      0.000000      0.000000

     2   2 0 0     -1.359047      0.000000    157.500000
     2   1 1 0      0.000000      0.000000      0.000000
     2   1 0 1      0.000000      0.000000      0.000000
     2   0 2 0     -6.922555      0.000000      0.000000
     2   0 1 1      0.000000      0.000000      0.000000
     2   0 0 2     -6.922555      0.000000      0.000000


 Parallel integral file used      19 records with       0 large values

 ------------------------------------
     Number of active orbitals      6
     Number of active alpha electrons      3
     Number of active beta electrons       3
 ------------------------------------
                   NWChem Extensible Many-Electron Theory Module
                   ---------------------------------------------

              ======================================================
                   This portion of the program was automatically
                  generated by a Tensor Contraction Engine (TCE).
                  The development of this portion of the program
                 and TCE was supported by US Department of Energy,
                Office of Science, Office of Basic Energy Science.
                      TCE is a product of Battelle and PNNL.
              Please cite: S.Hirata, J.Phys.Chem.A 107, 9887 (2003).
              ======================================================

                                      HChain


            General Information
            -------------------
      Number of processors :     1
         Wavefunction type : Restricted Hartree-Fock
          No. of electrons :     6
           Alpha electrons :     3
            Beta electrons :     3
           No. of orbitals :   180
            Alpha orbitals :    90
             Beta orbitals :    90
        Alpha frozen cores :     0
         Beta frozen cores :     0
     Alpha frozen virtuals :    84
      Beta frozen virtuals :    84
         Spin multiplicity : singlet 
    Number of AO functions :    90
       Number of AO shells :    36
        Use of symmetry is : off
      Symmetry adaption is : off
         Schwarz screening : 0.10D-09

          Correlation Information
          -----------------------
          Calculation type : Coupled-cluster singles & doubles                           
   Perturbative correction : none                                                        
            Max iterations :      100
        Residual threshold : 0.10D-06
     T(0) DIIS level shift : 0.00D+00
     L(0) DIIS level shift : 0.00D+00
     T(1) DIIS level shift : 0.00D+00
     L(1) DIIS level shift : 0.00D+00
     T(R) DIIS level shift : 0.00D+00
     T(I) DIIS level shift : 0.00D+00
   CC-T/L Amplitude update :  5-th order DIIS
                I/O scheme : Global Array Library
        L-threshold :  0.10D-06
        EOM-threshold :  0.10D-06
 no EOMCCSD initial starts read in
 TCE RESTART OPTIONS
 READ_INT:   F
 WRITE_INT:  F
 READ_TA:    F
 WRITE_TA:   F
 READ_XA:    F
 WRITE_XA:   F
 READ_IN3:   F
 WRITE_IN3:  F
 SLICE:      F
 D4D5:       F
 quantumc:   T
 qrotation:  F
 pwtce:      F
 qducc:      F
 nacto:                         0
 nrotv:                         0
 nrot:                          0

            Memory Information
            ------------------
          Available GA space size is    1610604636 doubles
          Available MA space size is    1610610044 doubles

 Maximum block size supplied by input
 Maximum block size         1 doubles

 tile_dim =      1

 Block   Spin    Irrep     Size     Offset   Alpha
 -------------------------------------------------
   1    alpha     a      1 doubles       0       1
   2    alpha     a      1 doubles       1       2
   3    alpha     a      1 doubles       2       3
   4    beta      a      1 doubles       3       1
   5    beta      a      1 doubles       4       2
   6    beta      a      1 doubles       5       3
   7    alpha     a      1 doubles       6       7
   8    alpha     a      1 doubles       7       8
   9    alpha     a      1 doubles       8       9
  10    beta      a      1 doubles       9       7
  11    beta      a      1 doubles      10       8
  12    beta      a      1 doubles      11       9

 Global array virtual files algorithm will be used

 Parallel file system coherency ......... OK

 Integral file          = ./HChain.aoints.0
 Record size in doubles =  65536        No. of integs per rec  =  43688
 Max. records in memory =    264        Max. records in file   = 232487
 No. of bits per label  =      8        No. of bits per value  =     64


 #quartets = 1.316D+05 #integrals = 9.581D+05 #direct =  0.0% #cached =100.0%


 Fock matrix recomputed
 1-e file size   =               36
 1-e file name   = ./HChain.f1
 Cpu & wall time / sec            0.1            0.1
 4-electron integrals stored in orbital form

 v2    file size   =              231
 4-index algorithm nr.  13 is used
 imaxsize =       30
 imaxsize ichop =        0
 begin_one_electron_integrals
    1    1        -1.6201106369
    3    1        -0.0976153512
    5    1         0.0563502577
    2    2        -1.4775031018
    4    2         0.1359819788
    6    2         0.0490708542
    1    3        -0.0976153512
    3    3        -1.4414019886
    5    3        -0.1202863573
    2    4         0.1359819788
    4    4        -1.3408164301
    6    4         0.1437489350
    1    5         0.0563502577
    3    5        -0.1202863573
    5    5        -1.1913825213
    2    6         0.0490708542
    4    6         0.1437489350
    6    6        -1.1696615003
 end_one_electron_integrals
 begin_two_electron_integrals
    1    1    1    1        0.3010501906
    2    1    2    1        0.1010084201
    3    1    1    1        0.0579894783
    3    1    3    1        0.0863464639
    3    1    2    2       -0.0325071798
    4    1    2    1       -0.0355004482
    4    1    4    1        0.0618393143
    4    1    3    2       -0.0094277978
    5    1    1    1       -0.0077191559
    5    1    3    1        0.0215121931
    5    1    5    1        0.0366557648
    5    1    2    2       -0.0262383783
    5    1    4    2        0.0236483313
    5    1    3    3        0.0090341032
    5    1    4    4       -0.0001818002
    6    1    2    1       -0.0000225141
    6    1    4    1       -0.0240231241
    6    1    6    1        0.0450826182
    6    1    3    2        0.0189219769
    6    1    5    2        0.0183105308
    6    1    4    3       -0.0279007006
    6    1    5    4       -0.0078332436
    2    2    1    1        0.2377630888
    2    2    2    2        0.2698953210
    3    2    2    1       -0.0817472092
    3    2    3    2        0.0957452922
    4    2    1    1       -0.0517879312
    4    2    3    1       -0.0417277408
    4    2    2    2       -0.0036602420
    4    2    4    2        0.0572102121
    4    2    3    3       -0.0070349797
    5    2    2    1       -0.0272488132
    5    2    4    1        0.0385228674
    5    2    3    2        0.0001810111
    5    2    5    2        0.0561930318
    5    2    4    3       -0.0218959240
    6    2    1    1       -0.0091072051
    6    2    3    1        0.0245450580
    6    2    5    1        0.0296506932
    6    2    2    2       -0.0324239800
    6    2    4    2        0.0135535118
    6    2    6    2        0.0322932570
    6    2    3    3       -0.0021791972
    6    2    5    3       -0.0159161052
    6    2    4    4        0.0019773946
    6    2    5    5       -0.0177769532
    3    3    1    1        0.2610179821
    3    3    3    1        0.0228927245
    3    3    2    2        0.2379913169
    3    3    3    3        0.2567325117
    4    3    2    1       -0.0540070381
    4    3    4    1        0.0101810489
    4    3    3    2        0.0501762065
    4    3    4    3        0.0615223829
    5    3    1    1        0.0541004292
    5    3    3    1        0.0414711405
    5    3    5    1       -0.0161396817
    5    3    2    2        0.0078770171
    5    3    4    2       -0.0486617020
    5    3    3    3        0.0180260892
    5    3    5    3        0.0503612451
    5    3    4    4        0.0127031366
    6    3    2    1        0.0402971452
    6    3    4    1       -0.0496735022
    6    3    6    1        0.0167793218
    6    3    3    2       -0.0059029977
    6    3    5    2       -0.0338723065
    6    3    4    3       -0.0145521375
    6    3    6    3        0.0490014932
    6    3    5    4        0.0041395246
    4    4    1    1        0.2535230694
    4    4    3    1        0.0207202925
    4    4    2    2        0.2307391125
    4    4    4    2       -0.0156847122
    4    4    3    3        0.2397020215
    4    4    4    4        0.2420189288
    5    4    2    1        0.0748554294
    5    4    4    1       -0.0017716682
    5    4    3    2       -0.0787952253
    5    4    5    2       -0.0000750563
    5    4    4    3       -0.0485980827
    5    4    5    4        0.0777292309
    6    4    1    1       -0.0620710661
    6    4    3    1       -0.0656708191
    6    4    5    1       -0.0097204039
    6    4    2    2        0.0076025033
    6    4    4    2        0.0390811857
    6    4    6    2       -0.0130029918
    6    4    3    3       -0.0299166163
    6    4    5    3       -0.0378926912
    6    4    4    4       -0.0287448747
    6    4    6    4        0.0604567831
    6    4    5    5        0.0054102491
    5    5    1    1        0.2261112904
    5    5    3    1       -0.0147482429
    5    5    5    1       -0.0149857062
    5    5    2    2        0.2402274654
    5    5    4    2       -0.0047918388
    5    5    3    3        0.2237027517
    5    5    5    3        0.0060637794
    5    5    4    4        0.2212739479
    5    5    5    5        0.2287773142
    6    5    2    1        0.0767653423
    6    5    4    1       -0.0199082653
    6    5    6    1        0.0011724105
    6    5    3    2       -0.0676715458
    6    5    5    2       -0.0122243556
    6    5    4    3       -0.0467274639
    6    5    6    3        0.0240614417
    6    5    5    4        0.0649240781
    6    5    6    5        0.0683673118
    6    6    1    1        0.2689088352
    6    6    3    1        0.0416335109
    6    6    5    1       -0.0051913123
    6    6    2    2        0.2235211643
    6    6    4    2       -0.0368454496
    6    6    6    2       -0.0059382365
    6    6    3    3        0.2404336711
    6    6    5    3        0.0382289691
    6    6    4    4        0.2359652684
    6    6    6    4       -0.0455546179
    6    6    5    5        0.2157733831
    6    6    6    6        0.2504498086
 end_two_electron_integrals
 enrep_tce =    2.9000000000000004     
  EHF(A)             =        -2.96946423
  EHF(total)         =        -2.96946380
  Shift (HFtot-HFA)  =         0.00000043
 Cpu & wall time / sec            2.6            2.7
 T1-number-of-tasks                    9

 t1 file size   =                9
 t1 file name   = ./HChain.t1
 t1 file handle =       -998
 T2-number-of-boxes                  117

 t2 file size   =              117
 t2 file name   = ./HChain.t2
 t2 file handle =       -996
CCSD iterations
 ---------------------------------------------------------
 Iter          Residuum       Correlation     Cpu    Wall 
 ---------------------------------------------------------
NEW TASK SCHEDULING
CCSD_T1_NTS --- OK
CCSD_T2_NTS --- OK
    1   0.1088112321063  -0.0573871670623     0.4     0.5
    2   0.0577447538856  -0.0824310784997     0.4     0.5
    3   0.0334150200688  -0.0948783969857     0.4     0.5
    4   0.0209660734236  -0.1012479484397     0.4     0.5
    5   0.0144436566822  -0.1047408483773     0.3     0.5
 MICROCYCLE DIIS UPDATE:                    5                    5
    6   0.0050651198497  -0.1096422397859     0.4     0.5
    7   0.0030022732772  -0.1102232760149     0.4     0.5
    8   0.0025171524811  -0.1103419311109     0.4     0.5
    9   0.0020797752434  -0.1104437934904     0.4     0.6
   10   0.0017299503498  -0.1105248809709     0.4     0.6
 MICROCYCLE DIIS UPDATE:                   10                    5
   11   0.0004244927724  -0.1108558852498     0.4     0.5
   12   0.0002136127831  -0.1109310588798     0.4     0.5
   13   0.0001280488526  -0.1109652999213     0.5     0.7
   14   0.0000824289771  -0.1109820097680     0.5     0.7
   15   0.0000568216644  -0.1109920076009     0.4     0.6
 MICROCYCLE DIIS UPDATE:                   15                    5
   16   0.0000225512541  -0.1110075924851     0.4     0.5
   17   0.0000166141105  -0.1110092010597     0.4     0.5
   18   0.0000138779686  -0.1110095646474     0.4     0.5
   19   0.0000115514313  -0.1110099346412     0.4     0.5
   20   0.0000096220253  -0.1110103495259     0.5     0.8
 MICROCYCLE DIIS UPDATE:                   20                    5
   21   0.0000022314927  -0.1110127427807     0.4     0.6
   22   0.0000012143967  -0.1110129045702     0.4     0.7
   23   0.0000007893372  -0.1110130119290     0.4     0.5
   24   0.0000006190185  -0.1110130460047     0.4     0.5
   25   0.0000004794095  -0.1110130784308     0.4     0.6
 MICROCYCLE DIIS UPDATE:                   25                    5
   26   0.0000001420046  -0.1110131668426     0.4     0.5
   27   0.0000001073141  -0.1110131767351     0.4     0.6
   28   0.0000000818591  -0.1110131809422     0.4     0.5
 -----------------------------------------------------------------
 Iterations converged
 CCSD correlation energy / hartree =        -0.111013180942186
 CCSD total energy / hartree       =        -3.080476985520841

 Singles contributions
     5a   (alpha) ---     3a   (alpha)       -0.0290351002

 Doubles contributions
     4a   (alpha)     5a   (alpha) ---     1a   (alpha)     2a   (alpha)       -0.0211974812
     4a   (alpha)     5a   (alpha) ---     2a   (alpha)     3a   (alpha)        0.0584666268
     4a   (alpha)     6a   (alpha) ---     1a   (alpha)     3a   (alpha)        0.0495858070
     4a   (alpha)     4a   (beta ) ---     1a   (alpha)     1a   (beta )       -0.0622871282
     4a   (alpha)     4a   (beta ) ---     1a   (alpha)     3a   (beta )       -0.0249059856
     4a   (alpha)     4a   (beta ) ---     2a   (alpha)     2a   (beta )       -0.0899829396
     4a   (alpha)     4a   (beta ) ---     3a   (alpha)     1a   (beta )       -0.0249059856
     4a   (alpha)     4a   (beta ) ---     3a   (alpha)     3a   (beta )       -0.3259851898
     4a   (alpha)     5a   (beta ) ---     1a   (alpha)     2a   (beta )       -0.0498154190
     4a   (alpha)     5a   (beta ) ---     2a   (alpha)     1a   (beta )       -0.0286179377
     4a   (alpha)     5a   (beta ) ---     2a   (alpha)     3a   (beta )        0.1526810393
     4a   (alpha)     5a   (beta ) ---     3a   (alpha)     2a   (beta )        0.0942144125
     4a   (alpha)     6a   (beta ) ---     1a   (alpha)     1a   (beta )        0.0314479192
     4a   (alpha)     6a   (beta ) ---     1a   (alpha)     3a   (beta )        0.1224352303
     4a   (alpha)     6a   (beta ) ---     2a   (alpha)     2a   (beta )       -0.0355988895
     4a   (alpha)     6a   (beta ) ---     3a   (alpha)     1a   (beta )        0.0728494234
     4a   (alpha)     6a   (beta ) ---     3a   (alpha)     3a   (beta )        0.0273066221
     5a   (alpha)     6a   (alpha) ---     1a   (alpha)     2a   (alpha)       -0.0222166830
     5a   (alpha)     6a   (alpha) ---     2a   (alpha)     3a   (alpha)        0.0209999135
     5a   (alpha)     4a   (beta ) ---     1a   (alpha)     2a   (beta )       -0.0286179377
     5a   (alpha)     4a   (beta ) ---     2a   (alpha)     1a   (beta )       -0.0498154190
     5a   (alpha)     4a   (beta ) ---     2a   (alpha)     3a   (beta )        0.0942144125
     5a   (alpha)     4a   (beta ) ---     3a   (alpha)     2a   (beta )        0.1526810393
     5a   (alpha)     5a   (beta ) ---     1a   (alpha)     1a   (beta )       -0.0489687434
     5a   (alpha)     5a   (beta ) ---     1a   (alpha)     3a   (beta )        0.0388248832
     5a   (alpha)     5a   (beta ) ---     2a   (alpha)     2a   (beta )       -0.1295292482
     5a   (alpha)     5a   (beta ) ---     3a   (alpha)     1a   (beta )        0.0388248832
     5a   (alpha)     5a   (beta ) ---     3a   (alpha)     3a   (beta )       -0.0745902608
     5a   (alpha)     6a   (beta ) ---     1a   (alpha)     2a   (beta )       -0.0679595376
     5a   (alpha)     6a   (beta ) ---     2a   (alpha)     1a   (beta )       -0.0457428546
     5a   (alpha)     6a   (beta ) ---     2a   (alpha)     3a   (beta )        0.0391250947
     6a   (alpha)     4a   (beta ) ---     1a   (alpha)     1a   (beta )        0.0314479192
     6a   (alpha)     4a   (beta ) ---     1a   (alpha)     3a   (beta )        0.0728494234
     6a   (alpha)     4a   (beta ) ---     2a   (alpha)     2a   (beta )       -0.0355988895
     6a   (alpha)     4a   (beta ) ---     3a   (alpha)     1a   (beta )        0.1224352303
     6a   (alpha)     4a   (beta ) ---     3a   (alpha)     3a   (beta )        0.0273066221
     6a   (alpha)     5a   (beta ) ---     1a   (alpha)     2a   (beta )       -0.0457428546
     6a   (alpha)     5a   (beta ) ---     2a   (alpha)     1a   (beta )       -0.0679595376
     6a   (alpha)     5a   (beta ) ---     3a   (alpha)     2a   (beta )        0.0391250947
     6a   (alpha)     6a   (beta ) ---     1a   (alpha)     1a   (beta )       -0.0810536507
     6a   (alpha)     6a   (beta ) ---     1a   (alpha)     3a   (beta )       -0.0235687972
     6a   (alpha)     6a   (beta ) ---     2a   (alpha)     2a   (beta )       -0.0357513954
     6a   (alpha)     6a   (beta ) ---     3a   (alpha)     1a   (beta )       -0.0235687972
     6a   (alpha)     6a   (beta ) ---     3a   (alpha)     3a   (beta )       -0.0402381701
 Ground state specification:
 exp(T)|Ref>~(1+T)|Ref>
 ------- a(p)+/a(q) strings ----------

 singles norm

 doubles norm

 Reference string
  0.91300486886922572      :(1a)+ (2a)+ (3a)+ (1b)+ (2b)+ (3b)+ |0>

 Singles strings

 Doubles strings
 -0.29762606546955284      :(4a)+ (4b)+ (3b)  (3a)  (1a)+ (2a)+ (3a)+ (1b)+ (2b)+ (3b)+ |0>
  0.13939853225768070      :(4a)+ (5b)+ (3b)  (2a)  (1a)+ (2a)+ (3a)+ (1b)+ (2b)+ (3b)+ |0>
  0.11178396142419836      :(4a)+ (6b)+ (3b)  (1a)  (1a)+ (2a)+ (3a)+ (1b)+ (2b)+ (3b)+ |0>
  0.13939853225768070      :(5a)+ (4b)+ (2b)  (3a)  (1a)+ (2a)+ (3a)+ (1b)+ (2b)+ (3b)+ |0>
 -0.11826083425900877      :(5a)+ (5b)+ (2b)  (2a)  (1a)+ (2a)+ (3a)+ (1b)+ (2b)+ (3b)+ |0>
  0.11178396142419836      :(6a)+ (4b)+ (1b)  (3a)  (1a)+ (2a)+ (3a)+ (1b)+ (2b)+ (3b)+ |0>
 -------------------------------------

 Parallel integral file used      22 records with       0 large values


 Task  times  cpu:       14.8s     wall:       19.4s


                                NWChem Input Module
                                -------------------


 Summary of allocated global arrays
-----------------------------------
  No active global arrays


MA_summarize_allocated_blocks: starting scan ...
MA_summarize_allocated_blocks: scan completed: 0 heap blocks, 0 stack blocks
MA usage statistics:

	allocation statistics:
					      heap	     stack
					      ----	     -----
	current number of blocks	         0	         0
	maximum number of blocks	        17	        42
	current total bytes		         0	         0
	maximum total bytes		 138431032	  32978744
	maximum total K-bytes		    138432	     32979
	maximum total M-bytes		       139	        33


                                     CITATION
                                     --------
                Please cite the following reference when publishing
                           results obtained with NWChem:

          E. Apra, E. J. Bylaska, W. A. de Jong, N. Govind, K. Kowalski,
       T. P. Straatsma, M. Valiev, H. J. J. van Dam, Y. Alexeev, J. Anchell,
       V. Anisimov, F. W. Aquino, R. Atta-Fynn, J. Autschbach, N. P. Bauman,
     J. C. Becca, D. E. Bernholdt, K. Bhaskaran-Nair, S. Bogatko, P. Borowski,
         J. Boschen, J. Brabec, A. Bruner, E. Cauet, Y. Chen, G. N. Chuev,
      C. J. Cramer, J. Daily, M. J. O. Deegan, T. H. Dunning Jr., M. Dupuis,
   K. G. Dyall, G. I. Fann, S. A. Fischer, A. Fonari, H. Fruchtl, L. Gagliardi,
      J. Garza, N. Gawande, S. Ghosh, K. Glaesemann, A. W. Gotz, J. Hammond,
       V. Helms, E. D. Hermes, K. Hirao, S. Hirata, M. Jacquelin, L. Jensen,
   B. G. Johnson, H. Jonsson, R. A. Kendall, M. Klemm, R. Kobayashi, V. Konkov,
      S. Krishnamoorthy, M. Krishnan, Z. Lin, R. D. Lins, R. J. Littlefield,
      A. J. Logsdail, K. Lopata, W. Ma, A. V. Marenich, J. Martin del Campo,
   D. Mejia-Rodriguez, J. E. Moore, J. M. Mullin, T. Nakajima, D. R. Nascimento,
    J. A. Nichols, P. J. Nichols, J. Nieplocha, A. Otero-de-la-Roza, B. Palmer,
    A. Panyala, T. Pirojsirikul, B. Peng, R. Peverati, J. Pittner, L. Pollack,
   R. M. Richard, P. Sadayappan, G. C. Schatz, W. A. Shelton, D. W. Silverstein,
   D. M. A. Smith, T. A. Soares, D. Song, M. Swart, H. L. Taylor, G. S. Thomas,
            V. Tipparaju, D. G. Truhlar, K. Tsemekhman, T. Van Voorhis,
      A. Vazquez-Mayagoitia, P. Verma, O. Villa, A. Vishnu, K. D. Vogiatzis,
        D. Wang, J. H. Weare, M. J. Williamson, T. L. Windus, K. Wolinski,
        A. T. Wong, Q. Wu, C. Yang, Q. Yu, M. Zacharias, Z. Zhang, Y. Zhao,
                                and R. J. Harrison
                        "NWChem: Past, present, and future
                         J. Chem. Phys. 152, 184102 (2020)
                               doi:10.1063/5.0004997

                                      AUTHORS
                                      -------
  E. Apra, E. J. Bylaska, N. Govind, K. Kowalski, M. Valiev, D. Mejia-Rodriguez,
       A. Kunitsa, N. P. Bauman, A. Panyala, W. A. de Jong, T. P. Straatsma,
        H. J. J. van Dam, D. Wang, T. L. Windus, J. Hammond, J. Autschbach,
    K. Bhaskaran-Nair, J. Brabec, K. Lopata, S. A. Fischer, S. Krishnamoorthy,
     M. Jacquelin, W. Ma, M. Klemm, O. Villa, Y. Chen, V. Anisimov, F. Aquino,
    S. Hirata, M. T. Hackler, Eric Hermes, L. Jensen, J. E. Moore, J. C. Becca,
      V. Konjkov, T. Risthaus, M. Malagoli, A. Marenich, A. Otero-de-la-Roza,
        J. Mullin, P. Nichols, R. Peverati, J. Pittner, Y. Zhao, P.-D. Fan,
        A. Fonari, M. J. Williamson, R. J. Harrison, J. R. Rehr, M. Dupuis,
     D. Silverstein, D. M. A. Smith, J. Nieplocha, V. Tipparaju, M. Krishnan,
     B. E. Van Kuiken, A. Vazquez-Mayagoitia, M. Swart, Q. Wu, T. Van Voorhis,
     A. A. Auer, M. Nooijen, L. D. Crosby, E. Brown, G. Cisneros, G. I. Fann,
   H. Fruchtl, J. Garza, K. Hirao, R. A. Kendall, J. A. Nichols, K. Tsemekhman,
    K. Wolinski, J. Anchell, D. E. Bernholdt, P. Borowski, T. Clark, D. Clerc,
   H. Dachsel, M. J. O. Deegan, K. Dyall, D. Elwood, E. Glendening, M. Gutowski,
   A. C. Hess, J. Jaffe, B. G. Johnson, J. Ju, R. Kobayashi, R. Kutteh, Z. Lin,
   R. Littlefield, X. Long, B. Meng, T. Nakajima, S. Niu, L. Pollack, M. Rosing,
   K. Glaesemann, G. Sandrone, M. Stave, H. Taylor, G. Thomas, J. H. van Lenthe,
                               A. T. Wong, Z. Zhang.

 Total times  cpu:       14.8s     wall:       19.4s
