 argument  1 = input.nw
  NWChem w/ OpenMP: maximum threads =    1



============================== echo of input deck ==============================
 echo
 start H2O
 title "H2O"

 memory total 24 gb

 geometry units bohr
 symmetry c1
        O  0.00000000  0.00000000  0.00000000
        H  0.00000000  3.6869  0.00000000
        H  1.72558000 -0.64860000  0.00000000
 end

 basis spherical
   * library cc-pVTZ
 end

 scf
   vectors input h2o.mos
   vectors output h2o.mos
 end

 tce
   2eorb
   2emet 13
   ccsd
 end

# set tce:print_integrals T
# set tce:qorb
# set tce:qela
# set tce:qelb

# set tce:qducc T
# set tce:nactv
# set tce:nonhf F
# set tce:ducc_model 3

 set tce:printtol 0.02

 task tce

 tce
   2eorb
   2emet 13
   ccsd
   freeze virtual 50
 end

 set tce:printtol 0.02

 task tce

================================================================================


                                         
                                         


             Northwest Computational Chemistry Package (NWChem) 7.0.1
             --------------------------------------------------------


                    Environmental Molecular Sciences Laboratory
                       Pacific Northwest National Laboratory
                                Richland, WA 99352

                              Copyright (c) 1994-2020
                       Pacific Northwest National Laboratory
                            Battelle Memorial Institute

             NWChem is an open-source computational chemistry package
                        distributed under the terms of the
                      Educational Community License (ECL) 2.0
             A copy of the license is included with this distribution
                              in the LICENSE.TXT file

                                  ACKNOWLEDGMENT
                                  --------------

            This software and its documentation were developed at the
            EMSL at Pacific Northwest National Laboratory, a multiprogram
            national laboratory, operated for the U.S. Department of Energy
            by Battelle under Contract Number DE-AC05-76RL01830. Support
            for this work was provided by the Department of Energy Office
            of Biological and Environmental Research, Office of Basic
            Energy Sciences, and the Office of Advanced Scientific Computing.


           Job information
           ---------------

    hostname        = WE46210
    program         = /home/baum612/code/nwchem/bin/LINUX64/nwchem
    date            = Fri Nov  3 18:35:57 2023

    compiled        = Mon_Sep_25_14:29:55_2023
    source          = /home/baum612/code/nwchem
    nwchem branch   = 7.0.0
    nwchem revision = nwchem_on_git-4191-g39d87d64de
    ga revision     = 5.8.1
    use scalapack   = F
    input           = input.nw
    prefix          = H2O.
    data base       = ./H2O.db
    status          = startup
    nproc           =        1
    time left       =     -1s



           Memory information
           ------------------

    heap     =  805306366 doubles =   6144.0 Mbytes
    stack    =  805306363 doubles =   6144.0 Mbytes
    global   = 1610612736 doubles =  12288.0 Mbytes (distinct from heap & stack)
    total    = 3221225465 doubles =  24576.0 Mbytes
    verify   = yes
    hardfail = no 


           Directory information
           ---------------------

  0 permanent = .
  0 scratch   = .




                                NWChem Input Module
                                -------------------


                                        H2O
                                        ---
 Turning off AUTOSYM since
 SYMMETRY directive was detected!


          ------
          auto-z
          ------
  autoz: The atoms group into disjoint clusters
 cluster   1:    1    3
 cluster   2:    2
 Connecting clusters   1   2 via atoms    1    2 r = 1.95
  autoz: regenerating connections with new bonds
  no constraints, skipping    0.0000000000000000     
  no constraints, skipping    0.0000000000000000     


                             Geometry "geometry" -> ""
                             -------------------------

 Output coordinates in a.u. (scale by  1.000000000 to convert to a.u.)

  No.       Tag          Charge          X              Y              Z
 ---- ---------------- ---------- -------------- -------------- --------------
    1 O                    8.0000    -0.17255800    -0.30383000     0.00000000
    2 H                    1.0000    -0.17255800     3.38307000     0.00000000
    3 H                    1.0000     1.55302200    -0.95243000     0.00000000

      Atomic Mass 
      ----------- 

      O                 15.994910
      H                  1.007825


 Effective nuclear repulsion energy (a.u.)       6.7238368876

            Nuclear Dipole moment (a.u.) 
            ----------------------------
        X                 Y               Z
 ---------------- ---------------- ----------------
    -0.0000000000    -0.0000000000     0.0000000000



                                Z-matrix (autoz)
                                -------- 

 Units are Angstrom for bonds and degrees for angles

      Type          Name      I     J     K     L     M      Value
      ----------- --------  ----- ----- ----- ----- ----- ----------
    1 Stretch                  1     2                       1.95102
    2 Stretch                  1     3                       0.97551
    3 Bend                     2     1     3               110.59992


            XYZ format geometry
            -------------------
     3
 geometry
 O                    -0.09131377    -0.16077992     0.00000000
 H                    -0.09131377     1.79024368     0.00000000
 H                     0.82182391    -0.50400429     0.00000000

 ==============================================================================
                                internuclear distances
 ------------------------------------------------------------------------------
       center one      |      center two      | atomic units |       a.u.
 ------------------------------------------------------------------------------
    3 H                |   1 O                |     1.84345  |     1.84345
 ------------------------------------------------------------------------------
                         number of included internuclear distances:          1
 ==============================================================================





 Summary of "ao basis" -> "" (spherical)
 ------------------------------------------------------------------------------
       Tag                 Description            Shells   Functions and Types
 ---------------- ------------------------------  ------  ---------------------
 *                          cc-pVTZ                   on all atoms 


                      Basis "ao basis" -> "ao basis" (spherical)
                      -----
  O (Oxygen)
  ----------
            Exponent  Coefficients 
       -------------- ---------------------------------------------------------
  1 S  1.53300000E+04  0.000508
  1 S  2.29900000E+03  0.003929
  1 S  5.22400000E+02  0.020243
  1 S  1.47300000E+02  0.079181
  1 S  4.75500000E+01  0.230687
  1 S  1.67600000E+01  0.433118
  1 S  6.20700000E+00  0.350260
  1 S  6.88200000E-01 -0.008154

  2 S  1.53300000E+04 -0.000115
  2 S  2.29900000E+03 -0.000895
  2 S  5.22400000E+02 -0.004636
  2 S  1.47300000E+02 -0.018724
  2 S  4.75500000E+01 -0.058463
  2 S  1.67600000E+01 -0.136463
  2 S  6.20700000E+00 -0.175740
  2 S  6.88200000E-01  0.603418

  3 S  1.75200000E+00  1.000000

  4 S  2.38400000E-01  1.000000

  5 P  3.44600000E+01  0.015928
  5 P  7.74900000E+00  0.099740
  5 P  2.28000000E+00  0.310492

  6 P  7.15600000E-01  1.000000

  7 P  2.14000000E-01  1.000000

  8 D  2.31400000E+00  1.000000

  9 D  6.45000000E-01  1.000000

 10 F  1.42800000E+00  1.000000

  H (Hydrogen)
  ------------
            Exponent  Coefficients 
       -------------- ---------------------------------------------------------
  1 S  3.38700000E+01  0.006068
  1 S  5.09500000E+00  0.045308
  1 S  1.15900000E+00  0.202822

  2 S  3.25800000E-01  1.000000

  3 S  1.02700000E-01  1.000000

  4 P  1.40700000E+00  1.000000

  5 P  3.88000000E-01  1.000000

  6 D  1.05700000E+00  1.000000



 Summary of "ao basis" -> "ao basis" (spherical)
 ------------------------------------------------------------------------------
       Tag                 Description            Shells   Functions and Types
 ---------------- ------------------------------  ------  ---------------------
 O                          cc-pVTZ                 10       30   4s3p2d1f
 H                          cc-pVTZ                  6       14   3s2p1d


                                 NWChem SCF Module
                                 -----------------


                                        H2O



  ao basis        = "ao basis"
  functions       =    58
  atoms           =     3
  closed shells   =     5
  open shells     =     0
  charge          =   0.00
  wavefunction    = RHF 
  input vectors   = ./h2o.mos
  output vectors  = ./h2o.mos
  use symmetry    = F
  symmetry adapt  = F


 Summary of "ao basis" -> "ao basis" (spherical)
 ------------------------------------------------------------------------------
       Tag                 Description            Shells   Functions and Types
 ---------------- ------------------------------  ------  ---------------------
 O                          cc-pVTZ                 10       30   4s3p2d1f
 H                          cc-pVTZ                  6       14   3s2p1d



 Forming initial guess at       0.0s


 Loading old vectors from job with title :

H2O


 Starting SCF solution at       0.0s



 ----------------------------------------------
         Quadratically convergent ROHF

 Convergence threshold     :          1.000E-04
 Maximum no. of iterations :           30
 Final Fock-matrix accuracy:          1.000E-07
 ----------------------------------------------


 Integral file          = ./H2O.aoints.0
 Record size in doubles =  65536        No. of integs per rec  =  43688
 Max. records in memory =     49        Max. records in file   = 280310
 No. of bits per label  =      8        No. of bits per value  =     64


 #quartets = 3.205D+04 #integrals = 6.510D+05 #direct =  0.0% #cached =100.0%


              iter       energy          gnorm     gmax       time
             ----- ------------------- --------- --------- --------
                 1      -75.8267920260  1.49D-01  5.33D-02      0.1
                 2      -75.8291002350  9.52D-03  3.19D-03      0.2
                 3      -75.8291155346  4.53D-05  1.88D-05      0.2


       Final RHF  results 
       ------------------ 

         Total SCF energy =    -75.829115534589
      One-electron energy =   -118.224663149826
      Two-electron energy =     35.671710727596
 Nuclear repulsion energy =      6.723836887641

        Time for solution =      0.2s


             Final eigenvalues
             -----------------

              1      
    1  -20.6050
    2   -1.2762
    3   -0.6278
    4   -0.5052
    5   -0.4264
    6   -0.0291
    7    0.1724
    8    0.3767
    9    0.5573
   10    0.6780
   11    0.6956
   12    0.8121
   13    0.8383
   14    0.8497
   15    0.8864

                       ROHF Final Molecular Orbital Analysis
                       -------------------------------------

 Vector    2  Occ=2.000000D+00  E=-1.276169D+00
              MO Center=  6.8D-02, -2.1D-01,  1.4D-14, r^2= 4.8D-01
   Bfn.  Coefficient  Atom+Function         Bfn.  Coefficient  Atom+Function  
  ----- ------------  ---------------      ----- ------------  ---------------
     2      0.528475  1 O  s                  4      0.322728  1 O  s          

 Vector    3  Occ=2.000000D+00  E=-6.277741D-01
              MO Center= -1.1D-02, -1.7D-01, -2.5D-14, r^2= 7.7D-01
   Bfn.  Coefficient  Atom+Function         Bfn.  Coefficient  Atom+Function  
  ----- ------------  ---------------      ----- ------------  ---------------
     8      0.348750  1 O  px                 5      0.289504  1 O  px         
    46      0.256047  3 H  s                  4     -0.252933  1 O  s          
    11      0.211655  1 O  px                 2     -0.158588  1 O  s          
    45      0.156354  3 H  s          

 Vector    4  Occ=2.000000D+00  E=-5.052192D-01
              MO Center= -6.5D-02, -1.7D-01, -3.1D-13, r^2= 6.1D-01
   Bfn.  Coefficient  Atom+Function         Bfn.  Coefficient  Atom+Function  
  ----- ------------  ---------------      ----- ------------  ---------------
    10      0.455885  1 O  pz                13      0.373073  1 O  pz         
     7      0.369847  1 O  pz         

 Vector    5  Occ=2.000000D+00  E=-4.264229D-01
              MO Center= -5.9D-02,  5.7D-01,  1.4D-13, r^2= 1.6D+00
   Bfn.  Coefficient  Atom+Function         Bfn.  Coefficient  Atom+Function  
  ----- ------------  ---------------      ----- ------------  ---------------
     9      0.292578  1 O  py                12      0.273456  1 O  py         
    33      0.265444  2 H  s                 32      0.240739  2 H  s          
     6      0.230536  1 O  py         

 Vector    6  Occ=0.000000D+00  E=-2.910986D-02
              MO Center= -7.6D-02,  1.1D+00, -1.0D-13, r^2= 2.3D+00
   Bfn.  Coefficient  Atom+Function         Bfn.  Coefficient  Atom+Function  
  ----- ------------  ---------------      ----- ------------  ---------------
    33      0.603946  2 H  s                 12     -0.357634  1 O  py         
     9     -0.253028  1 O  py                32      0.243290  2 H  s          
     6     -0.217926  1 O  py                 4     -0.209716  1 O  s          
    31      0.156680  2 H  s          

 Vector    7  Occ=0.000000D+00  E= 1.724305D-01
              MO Center=  1.1D+00, -6.2D-01,  1.5D-13, r^2= 3.0D+00
   Bfn.  Coefficient  Atom+Function         Bfn.  Coefficient  Atom+Function  
  ----- ------------  ---------------      ----- ------------  ---------------
    47      1.663406  3 H  s                  4     -1.131698  1 O  s          
    11     -0.528708  1 O  px                12      0.270014  1 O  py         
    46      0.269146  3 H  s                 33     -0.255505  2 H  s          
    51     -0.213786  3 H  px                 8     -0.188594  1 O  px         

 Vector    8  Occ=0.000000D+00  E= 3.767448D-01
              MO Center= -1.2D-01,  2.0D+00,  3.9D-14, r^2= 2.7D+00
   Bfn.  Coefficient  Atom+Function         Bfn.  Coefficient  Atom+Function  
  ----- ------------  ---------------      ----- ------------  ---------------
    33      1.676087  2 H  s                 32     -1.385046  2 H  s          
     4     -0.355451  1 O  s                 47     -0.239484  3 H  s          
    12     -0.221626  1 O  py                46      0.192823  3 H  s          

 Vector    9  Occ=0.000000D+00  E= 5.573250D-01
              MO Center=  4.0D-01, -7.0D-02, -1.6D-15, r^2= 2.4D+00
   Bfn.  Coefficient  Atom+Function         Bfn.  Coefficient  Atom+Function  
  ----- ------------  ---------------      ----- ------------  ---------------
    46      2.081487  3 H  s                 11     -0.989557  1 O  px         
    47     -0.728060  3 H  s                  4     -0.721009  1 O  s          
    12      0.412837  1 O  py                37     -0.310430  2 H  px         
     8     -0.187539  1 O  px         

 Vector   10  Occ=0.000000D+00  E= 6.780044D-01
              MO Center=  6.4D-03,  3.6D-01,  1.7D-13, r^2= 2.8D+00
   Bfn.  Coefficient  Atom+Function         Bfn.  Coefficient  Atom+Function  
  ----- ------------  ---------------      ----- ------------  ---------------
     4      1.773143  1 O  s                 11      1.483676  1 O  px         
    46     -1.107033  3 H  s                 51      1.038978  3 H  px         
    47     -0.969863  3 H  s                 37      0.481724  2 H  px         
    12     -0.334217  1 O  py                52     -0.290208  3 H  py         
     5     -0.236663  1 O  px                 8     -0.218779  1 O  px         

 Vector   11  Occ=0.000000D+00  E= 6.955804D-01
              MO Center= -1.2D-01,  1.2D+00, -1.7D-13, r^2= 1.9D+00
   Bfn.  Coefficient  Atom+Function         Bfn.  Coefficient  Atom+Function  
  ----- ------------  ---------------      ----- ------------  ---------------
    39      0.811307  2 H  pz                13      0.671360  1 O  pz         
    10     -0.419480  1 O  pz                53     -0.151194  3 H  pz         

 Vector   12  Occ=0.000000D+00  E= 8.120779D-01
              MO Center= -1.3D-01,  7.9D-01,  4.0D-15, r^2= 2.4D+00
   Bfn.  Coefficient  Atom+Function         Bfn.  Coefficient  Atom+Function  
  ----- ------------  ---------------      ----- ------------  ---------------
    46      1.275390  3 H  s                 11     -0.968415  1 O  px         
     4     -0.906004  1 O  s                 12      0.655872  1 O  py         
    38     -0.519420  2 H  py                37      0.498408  2 H  px         
    52      0.477763  3 H  py                 9     -0.425088  1 O  py         
    51     -0.363751  3 H  px                 2     -0.240223  1 O  s          

 Vector   13  Occ=0.000000D+00  E= 8.382653D-01
              MO Center=  3.6D-01,  6.2D-04, -8.6D-14, r^2= 2.2D+00
   Bfn.  Coefficient  Atom+Function         Bfn.  Coefficient  Atom+Function  
  ----- ------------  ---------------      ----- ------------  ---------------
    13     -0.615607  1 O  pz                53     -0.607444  3 H  pz         
    10      0.603649  1 O  pz                39      0.497042  2 H  pz         
     7      0.199282  1 O  pz         

 Vector   14  Occ=0.000000D+00  E= 8.497134D-01
              MO Center= -1.4D-01,  7.7D-01,  1.8D-13, r^2= 2.7D+00
   Bfn.  Coefficient  Atom+Function         Bfn.  Coefficient  Atom+Function  
  ----- ------------  ---------------      ----- ------------  ---------------
     4      1.706620  1 O  s                 11      1.605766  1 O  px         
    46     -1.611934  3 H  s                 52     -0.730927  3 H  py         
    38     -0.564097  2 H  py                51      0.544550  3 H  px         
    47     -0.537265  3 H  s                 37     -0.516864  2 H  px         
    33      0.402374  2 H  s                 32     -0.324743  2 H  s          

 Vector   15  Occ=0.000000D+00  E= 8.863645D-01
              MO Center=  3.0D-01,  8.1D-02, -1.1D-14, r^2= 2.6D+00
   Bfn.  Coefficient  Atom+Function         Bfn.  Coefficient  Atom+Function  
  ----- ------------  ---------------      ----- ------------  ---------------
    52     -0.600379  3 H  py                12     -0.584549  1 O  py         
     4      0.570620  1 O  s                 37      0.512914  2 H  px         
    47     -0.496033  3 H  s                  9      0.473528  1 O  py         
    38     -0.376924  2 H  py                33      0.304216  2 H  s          
     2     -0.297374  1 O  s                  8      0.290789  1 O  px         


 center of mass
 --------------
 x =  -0.07599894 y =  -0.13381448 z =   0.00000000

 moments of inertia (a.u.)
 ------------------
          13.602972226198           1.423640056356           0.000000000000
           1.423640056356           2.833002082974           0.000000000000
           0.000000000000           0.000000000000          16.435974309172

  Mulliken analysis of the total density
  --------------------------------------

    Atom       Charge   Shell Charges
 -----------   ------   -------------------------------------------------------
    1 O    8     8.47   1.95  1.04  0.25  0.66  1.18  1.98  1.39  0.00  0.01  0.00
    2 H    1     0.81   0.11  0.33  0.35 -0.00  0.01  0.00
    3 H    1     0.73   0.25  0.37  0.03  0.02  0.06  0.01

       Multipole analysis of the density wrt the origin
       ------------------------------------------------

     L   x y z        total         open         nuclear
     -   - - -        -----         ----         -------
     0   0 0 0     -0.000000      0.000000     10.000000

     1   1 0 0      0.599667      0.000000     -0.000000
     1   0 1 0      0.533270      0.000000     -0.000000
     1   0 0 1      0.000000      0.000000      0.000000

     2   2 0 0     -4.607305      0.000000      2.679864
     2   1 1 0     -0.965888      0.000000     -1.643494
     2   1 0 1      0.000000      0.000000      0.000000
     2   0 2 0     -1.790838      0.000000     13.090787
     2   0 1 1      0.000000      0.000000      0.000000
     2   0 0 2     -6.040520      0.000000      0.000000


 Parallel integral file used      15 records with       0 large values

                   NWChem Extensible Many-Electron Theory Module
                   ---------------------------------------------

              ======================================================
                   This portion of the program was automatically
                  generated by a Tensor Contraction Engine (TCE).
                  The development of this portion of the program
                 and TCE was supported by US Department of Energy,
                Office of Science, Office of Basic Energy Science.
                      TCE is a product of Battelle and PNNL.
              Please cite: S.Hirata, J.Phys.Chem.A 107, 9887 (2003).
              ======================================================

                                        H2O


            General Information
            -------------------
      Number of processors :     1
         Wavefunction type : Restricted Hartree-Fock
          No. of electrons :    10
           Alpha electrons :     5
            Beta electrons :     5
           No. of orbitals :   116
            Alpha orbitals :    58
             Beta orbitals :    58
        Alpha frozen cores :     0
         Beta frozen cores :     0
     Alpha frozen virtuals :     0
      Beta frozen virtuals :     0
         Spin multiplicity : singlet 
    Number of AO functions :    58
       Number of AO shells :    22
        Use of symmetry is : off
      Symmetry adaption is : off
         Schwarz screening : 0.10D-09

          Correlation Information
          -----------------------
          Calculation type : Coupled-cluster singles & doubles                           
   Perturbative correction : none                                                        
            Max iterations :      100
        Residual threshold : 0.10D-06
     T(0) DIIS level shift : 0.00D+00
     L(0) DIIS level shift : 0.00D+00
     T(1) DIIS level shift : 0.00D+00
     L(1) DIIS level shift : 0.00D+00
     T(R) DIIS level shift : 0.00D+00
     T(I) DIIS level shift : 0.00D+00
   CC-T/L Amplitude update :  5-th order DIIS
                I/O scheme : Global Array Library
        L-threshold :  0.10D-06
        EOM-threshold :  0.10D-06
 no EOMCCSD initial starts read in
 TCE RESTART OPTIONS
 READ_INT:   F
 WRITE_INT:  F
 READ_TA:    F
 WRITE_TA:   F
 READ_XA:    F
 WRITE_XA:   F
 READ_IN3:   F
 WRITE_IN3:  F
 SLICE:      F
 D4D5:       F
 quantumc:   F
 qrotation:  F
 pwtce:      F
 qducc:      F
 nacto:                         0
 nrotv:                         0
 nrot:                          0

            Memory Information
            ------------------
          Available GA space size is    1610609372 doubles
          Available MA space size is    1610609780 doubles

 Maximum block size        32 doubles

 tile_dim =     27

 Block   Spin    Irrep     Size     Offset   Alpha
 -------------------------------------------------
   1    alpha     a      5 doubles       0       1
   2    beta      a      5 doubles       5       1
   3    alpha     a     26 doubles      10       3
   4    alpha     a     27 doubles      36       4
   5    beta      a     26 doubles      63       3
   6    beta      a     27 doubles      89       4

 Global array virtual files algorithm will be used

 Parallel file system coherency ......... OK

 Integral file          = ./H2O.aoints.0
 Record size in doubles =  65536        No. of integs per rec  =  43688
 Max. records in memory =     49        Max. records in file   = 280310
 No. of bits per label  =      8        No. of bits per value  =     64


 #quartets = 3.213D+04 #integrals = 6.598D+05 #direct =  0.0% #cached =100.0%


 Fock matrix recomputed
 1-e file size   =             3364
 1-e file name   = ./H2O.f1
 Cpu & wall time / sec            0.1            0.1
 4-electron integrals stored in orbital form

 v2    file size   =          3631290
 4-index algorithm nr.  13 is used
 imaxsize =       30
 imaxsize ichop =        0
 Cpu & wall time / sec            1.2            1.2
 T1-number-of-tasks                    2

 t1 file size   =              265
 t1 file name   = ./H2O.t1
 t1 file handle =       -998
 T2-number-of-boxes                    7

 t2 file size   =           122900
 t2 file name   = ./H2O.t2
 t2 file handle =       -996
CCSD iterations
 ---------------------------------------------------------
 Iter          Residuum       Correlation     Cpu    Wall 
 ---------------------------------------------------------
NEW TASK SCHEDULING
CCSD_T1_NTS --- OK
CCSD_T2_NTS --- OK
    1   0.1881342590821  -0.3148068991312     0.2     0.2
    2   0.0584358388449  -0.3118634489572     0.2     0.2
    3   0.0310630993068  -0.3244148911189     0.2     0.2
    4   0.0174963717693  -0.3264324316390     0.2     0.2
    5   0.0105436035441  -0.3289046175766     0.2     0.2
 MICROCYCLE DIIS UPDATE:                    5                    5
    6   0.0031750820361  -0.3313523690158     0.2     0.2
    7   0.0024735877658  -0.3314539607491     0.2     0.2
    8   0.0015300811296  -0.3314919769525     0.2     0.2
    9   0.0012612834465  -0.3315029075627     0.2     0.2
   10   0.0008668526168  -0.3315339832686     0.2     0.2
 MICROCYCLE DIIS UPDATE:                   10                    5
   11   0.0001513611928  -0.3315869876383     0.2     0.2
   12   0.0000574768811  -0.3316044134311     0.2     0.2
   13   0.0000284602148  -0.3316052026103     0.2     0.2
   14   0.0000143316835  -0.3316070994950     0.2     0.2
   15   0.0000081734612  -0.3316073300251     0.2     0.2
 MICROCYCLE DIIS UPDATE:                   15                    5
   16   0.0000037633162  -0.3316079443919     0.2     0.2
   17   0.0000026531035  -0.3316079967331     0.2     0.2
   18   0.0000019526372  -0.3316080295927     0.2     0.2
   19   0.0000014347403  -0.3316080550909     0.2     0.2
   20   0.0000010946044  -0.3316080767456     0.2     0.2
 MICROCYCLE DIIS UPDATE:                   20                    5
   21   0.0000001409320  -0.3316081384552     0.2     0.2
   22   0.0000000570366  -0.3316081565366     0.2     0.2
 -----------------------------------------------------------------
 Iterations converged
 CCSD correlation energy / hartree =        -0.331608156536623
 CCSD total energy / hartree       =       -76.160723691125369

 Singles contributions
     6a   (alpha) ---     3a   (alpha)        0.0301702823
     6a   (alpha) ---     5a   (alpha)        0.0312307130
     8a   (alpha) ---     5a   (alpha)       -0.0315896151
    12a   (alpha) ---     5a   (alpha)       -0.0361729960
    14a   (alpha) ---     5a   (alpha)       -0.0269345479

 Doubles contributions
     6a   (alpha)     6a   (beta ) ---     3a   (alpha)     5a   (beta )        0.0287312565
     6a   (alpha)     6a   (beta ) ---     5a   (alpha)     3a   (beta )        0.0287312565
     6a   (alpha)     6a   (beta ) ---     5a   (alpha)     5a   (beta )       -0.3561676665
     6a   (alpha)     7a   (beta ) ---     5a   (alpha)     5a   (beta )        0.0274396153
     6a   (alpha)     8a   (beta ) ---     5a   (alpha)     5a   (beta )        0.0758991360
     6a   (alpha)    10a   (beta ) ---     5a   (alpha)     3a   (beta )       -0.0206030681
     6a   (alpha)    11a   (beta ) ---     5a   (alpha)     4a   (beta )       -0.0217415984
     6a   (alpha)    12a   (beta ) ---     5a   (alpha)     5a   (beta )       -0.0416512010
     6a   (alpha)    15a   (beta ) ---     5a   (alpha)     5a   (beta )        0.0280248819
     7a   (alpha)     6a   (beta ) ---     5a   (alpha)     5a   (beta )        0.0274396153
     7a   (alpha)     7a   (beta ) ---     3a   (alpha)     3a   (beta )       -0.0201346425
     8a   (alpha)     6a   (beta ) ---     5a   (alpha)     5a   (beta )        0.0758991360
     8a   (alpha)     8a   (beta ) ---     5a   (alpha)     5a   (beta )       -0.0258926277
     9a   (alpha)     9a   (beta ) ---     3a   (alpha)     3a   (beta )       -0.0315656728
    10a   (alpha)     6a   (beta ) ---     3a   (alpha)     5a   (beta )       -0.0206030681
    10a   (alpha)    10a   (beta ) ---     3a   (alpha)     3a   (beta )       -0.0278794550
    11a   (alpha)     6a   (beta ) ---     4a   (alpha)     5a   (beta )       -0.0217415984
    11a   (alpha)    13a   (beta ) ---     4a   (alpha)     4a   (beta )        0.0203364467
    12a   (alpha)     6a   (beta ) ---     5a   (alpha)     5a   (beta )       -0.0416512010
    13a   (alpha)    11a   (beta ) ---     4a   (alpha)     4a   (beta )        0.0203364467
    13a   (alpha)    13a   (beta ) ---     4a   (alpha)     4a   (beta )       -0.0285938330
    15a   (alpha)     6a   (beta ) ---     5a   (alpha)     5a   (beta )        0.0280248819

 Parallel integral file used      16 records with       0 large values


 Task  times  cpu:        5.6s     wall:        5.7s


                                NWChem Input Module
                                -------------------


                                 NWChem SCF Module
                                 -----------------


                                        H2O



  ao basis        = "ao basis"
  functions       =    58
  atoms           =     3
  closed shells   =     5
  open shells     =     0
  charge          =   0.00
  wavefunction    = RHF 
  input vectors   = ./h2o.mos
  output vectors  = ./h2o.mos
  use symmetry    = F
  symmetry adapt  = F


 Summary of "ao basis" -> "ao basis" (spherical)
 ------------------------------------------------------------------------------
       Tag                 Description            Shells   Functions and Types
 ---------------- ------------------------------  ------  ---------------------
 O                          cc-pVTZ                 10       30   4s3p2d1f
 H                          cc-pVTZ                  6       14   3s2p1d



  The SCF is already converged 

         Total SCF energy =    -75.829115534589

                   NWChem Extensible Many-Electron Theory Module
                   ---------------------------------------------

              ======================================================
                   This portion of the program was automatically
                  generated by a Tensor Contraction Engine (TCE).
                  The development of this portion of the program
                 and TCE was supported by US Department of Energy,
                Office of Science, Office of Basic Energy Science.
                      TCE is a product of Battelle and PNNL.
              Please cite: S.Hirata, J.Phys.Chem.A 107, 9887 (2003).
              ======================================================

                                        H2O


            General Information
            -------------------
      Number of processors :     1
         Wavefunction type : Restricted Hartree-Fock
          No. of electrons :    10
           Alpha electrons :     5
            Beta electrons :     5
           No. of orbitals :   116
            Alpha orbitals :    58
             Beta orbitals :    58
        Alpha frozen cores :     0
         Beta frozen cores :     0
     Alpha frozen virtuals :    50
      Beta frozen virtuals :    50
         Spin multiplicity : singlet 
    Number of AO functions :    58
       Number of AO shells :    22
        Use of symmetry is : off
      Symmetry adaption is : off
         Schwarz screening : 0.10D-09

          Correlation Information
          -----------------------
          Calculation type : Coupled-cluster singles & doubles                           
   Perturbative correction : none                                                        
            Max iterations :      100
        Residual threshold : 0.10D-06
     T(0) DIIS level shift : 0.00D+00
     L(0) DIIS level shift : 0.00D+00
     T(1) DIIS level shift : 0.00D+00
     L(1) DIIS level shift : 0.00D+00
     T(R) DIIS level shift : 0.00D+00
     T(I) DIIS level shift : 0.00D+00
   CC-T/L Amplitude update :  5-th order DIIS
                I/O scheme : Global Array Library
        L-threshold :  0.10D-06
        EOM-threshold :  0.10D-06
 no EOMCCSD initial starts read in
 TCE RESTART OPTIONS
 READ_INT:   F
 WRITE_INT:  F
 READ_TA:    F
 WRITE_TA:   F
 READ_XA:    F
 WRITE_XA:   F
 READ_IN3:   F
 WRITE_IN3:  F
 SLICE:      F
 D4D5:       F
 quantumc:   F
 qrotation:  F
 pwtce:      F
 qducc:      F
 nacto:                         0
 nrotv:                         0
 nrot:                          0

            Memory Information
            ------------------
          Available GA space size is    1610609372 doubles
          Available MA space size is    1610609780 doubles

 Maximum block size        32 doubles

 tile_dim =      5

 Block   Spin    Irrep     Size     Offset   Alpha
 -------------------------------------------------
   1    alpha     a      5 doubles       0       1
   2    beta      a      5 doubles       5       1
   3    alpha     a      3 doubles      10       3
   4    beta      a      3 doubles      13       3

 Global array virtual files algorithm will be used

 Parallel file system coherency ......... OK

 Integral file          = ./H2O.aoints.0
 Record size in doubles =  65536        No. of integs per rec  =  43688
 Max. records in memory =     49        Max. records in file   = 280310
 No. of bits per label  =      8        No. of bits per value  =     64


 #quartets = 3.213D+04 #integrals = 6.598D+05 #direct =  0.0% #cached =100.0%


 Fock matrix recomputed
 1-e file size   =               64
 1-e file name   = ./H2O.f1
 Cpu & wall time / sec            0.1            0.1
 4-electron integrals stored in orbital form

 v2    file size   =             1666
 4-index algorithm nr.  13 is used
 imaxsize =       30
 imaxsize ichop =        0
 Cpu & wall time / sec            0.7            0.7
 T1-number-of-tasks                    1

 t1 file size   =               15
 t1 file name   = ./H2O.t1
 t1 file handle =       -998
 T2-number-of-boxes                    2

 t2 file size   =              450
 t2 file name   = ./H2O.t2
 t2 file handle =       -996
CCSD iterations
 ---------------------------------------------------------
 Iter          Residuum       Correlation     Cpu    Wall 
 ---------------------------------------------------------
NEW TASK SCHEDULING
CCSD_T1_NTS --- OK
CCSD_T2_NTS --- OK
    1   0.1046386868794  -0.0480289805663     0.0     0.0
    2   0.0525388506065  -0.0705183516001     0.0     0.0
    3   0.0295020583735  -0.0799770179242     0.0     0.0
    4   0.0162133260109  -0.0854554860844     0.0     0.0
    5   0.0094068393318  -0.0882338777086     0.0     0.0
 MICROCYCLE DIIS UPDATE:                    5                    5
    6   0.0023015377975  -0.0912813149608     0.0     0.0
    7   0.0013928883166  -0.0913662334472     0.0     0.0
    8   0.0009916556895  -0.0914579874646     0.0     0.0
    9   0.0007377067508  -0.0914946163286     0.0     0.0
   10   0.0005497873529  -0.0915215181344     0.0     0.0
 MICROCYCLE DIIS UPDATE:                   10                    5
   11   0.0000364793287  -0.0915902507080     0.0     0.0
   12   0.0000138351973  -0.0915905941778     0.0     0.0
   13   0.0000047232891  -0.0915921184120     0.0     0.0
   14   0.0000025535756  -0.0915924900083     0.0     0.0
   15   0.0000013185065  -0.0915928001352     0.0     0.0
 MICROCYCLE DIIS UPDATE:                   15                    5
   16   0.0000003952289  -0.0915931287134     0.0     0.0
   17   0.0000002715494  -0.0915931287792     0.0     0.0
   18   0.0000001981434  -0.0915931420035     0.0     0.0
   19   0.0000001492441  -0.0915931472297     0.0     0.0
   20   0.0000001114284  -0.0915931520004     0.0     0.0
 MICROCYCLE DIIS UPDATE:                   20                    5
   21   0.0000000059670  -0.0915931649901     0.0     0.0
 -----------------------------------------------------------------
 Iterations converged
 CCSD correlation energy / hartree =        -0.091593164990050
 CCSD total energy / hartree       =       -75.920708699578796

 Singles contributions
     6a   (alpha) ---     3a   (alpha)        0.0321141117
     6a   (alpha) ---     5a   (alpha)        0.0978105891
     8a   (alpha) ---     5a   (alpha)       -0.0382971718

 Doubles contributions
     6a   (alpha)     6a   (beta ) ---     3a   (alpha)     5a   (beta )        0.0282808117
     6a   (alpha)     6a   (beta ) ---     5a   (alpha)     3a   (beta )        0.0282808117
     6a   (alpha)     6a   (beta ) ---     5a   (alpha)     5a   (beta )       -0.4565099185
     6a   (alpha)     7a   (beta ) ---     5a   (alpha)     5a   (beta )        0.0339491267
     6a   (alpha)     8a   (beta ) ---     5a   (alpha)     5a   (beta )        0.0903206222
     7a   (alpha)     6a   (beta ) ---     5a   (alpha)     5a   (beta )        0.0339491267
     8a   (alpha)     6a   (beta ) ---     5a   (alpha)     5a   (beta )        0.0903206222
     8a   (alpha)     8a   (beta ) ---     5a   (alpha)     5a   (beta )       -0.0295291796

 Parallel integral file used      16 records with       0 large values


 Task  times  cpu:        0.9s     wall:        1.0s


                                NWChem Input Module
                                -------------------


 Summary of allocated global arrays
-----------------------------------
  No active global arrays


MA_summarize_allocated_blocks: starting scan ...
MA_summarize_allocated_blocks: scan completed: 0 heap blocks, 0 stack blocks
MA usage statistics:

	allocation statistics:
					      heap	     stack
					      ----	     -----
	current number of blocks	         0	         0
	maximum number of blocks	        17	        42
	current total bytes		         0	         0
	maximum total bytes		  25710264	  45647544
	maximum total K-bytes		     25711	     45648
	maximum total M-bytes		        26	        46


                                     CITATION
                                     --------
                Please cite the following reference when publishing
                           results obtained with NWChem:

          E. Apra, E. J. Bylaska, W. A. de Jong, N. Govind, K. Kowalski,
       T. P. Straatsma, M. Valiev, H. J. J. van Dam, Y. Alexeev, J. Anchell,
       V. Anisimov, F. W. Aquino, R. Atta-Fynn, J. Autschbach, N. P. Bauman,
     J. C. Becca, D. E. Bernholdt, K. Bhaskaran-Nair, S. Bogatko, P. Borowski,
         J. Boschen, J. Brabec, A. Bruner, E. Cauet, Y. Chen, G. N. Chuev,
      C. J. Cramer, J. Daily, M. J. O. Deegan, T. H. Dunning Jr., M. Dupuis,
   K. G. Dyall, G. I. Fann, S. A. Fischer, A. Fonari, H. Fruchtl, L. Gagliardi,
      J. Garza, N. Gawande, S. Ghosh, K. Glaesemann, A. W. Gotz, J. Hammond,
       V. Helms, E. D. Hermes, K. Hirao, S. Hirata, M. Jacquelin, L. Jensen,
   B. G. Johnson, H. Jonsson, R. A. Kendall, M. Klemm, R. Kobayashi, V. Konkov,
      S. Krishnamoorthy, M. Krishnan, Z. Lin, R. D. Lins, R. J. Littlefield,
      A. J. Logsdail, K. Lopata, W. Ma, A. V. Marenich, J. Martin del Campo,
   D. Mejia-Rodriguez, J. E. Moore, J. M. Mullin, T. Nakajima, D. R. Nascimento,
    J. A. Nichols, P. J. Nichols, J. Nieplocha, A. Otero-de-la-Roza, B. Palmer,
    A. Panyala, T. Pirojsirikul, B. Peng, R. Peverati, J. Pittner, L. Pollack,
   R. M. Richard, P. Sadayappan, G. C. Schatz, W. A. Shelton, D. W. Silverstein,
   D. M. A. Smith, T. A. Soares, D. Song, M. Swart, H. L. Taylor, G. S. Thomas,
            V. Tipparaju, D. G. Truhlar, K. Tsemekhman, T. Van Voorhis,
      A. Vazquez-Mayagoitia, P. Verma, O. Villa, A. Vishnu, K. D. Vogiatzis,
        D. Wang, J. H. Weare, M. J. Williamson, T. L. Windus, K. Wolinski,
        A. T. Wong, Q. Wu, C. Yang, Q. Yu, M. Zacharias, Z. Zhang, Y. Zhao,
                                and R. J. Harrison
                        "NWChem: Past, present, and future
                         J. Chem. Phys. 152, 184102 (2020)
                               doi:10.1063/5.0004997

                                      AUTHORS
                                      -------
  E. Apra, E. J. Bylaska, N. Govind, K. Kowalski, M. Valiev, D. Mejia-Rodriguez,
       A. Kunitsa, N. P. Bauman, A. Panyala, W. A. de Jong, T. P. Straatsma,
        H. J. J. van Dam, D. Wang, T. L. Windus, J. Hammond, J. Autschbach,
    K. Bhaskaran-Nair, J. Brabec, K. Lopata, S. A. Fischer, S. Krishnamoorthy,
     M. Jacquelin, W. Ma, M. Klemm, O. Villa, Y. Chen, V. Anisimov, F. Aquino,
    S. Hirata, M. T. Hackler, Eric Hermes, L. Jensen, J. E. Moore, J. C. Becca,
      V. Konjkov, T. Risthaus, M. Malagoli, A. Marenich, A. Otero-de-la-Roza,
        J. Mullin, P. Nichols, R. Peverati, J. Pittner, Y. Zhao, P.-D. Fan,
        A. Fonari, M. J. Williamson, R. J. Harrison, J. R. Rehr, M. Dupuis,
     D. Silverstein, D. M. A. Smith, J. Nieplocha, V. Tipparaju, M. Krishnan,
     B. E. Van Kuiken, A. Vazquez-Mayagoitia, M. Swart, Q. Wu, T. Van Voorhis,
     A. A. Auer, M. Nooijen, L. D. Crosby, E. Brown, G. Cisneros, G. I. Fann,
   H. Fruchtl, J. Garza, K. Hirao, R. A. Kendall, J. A. Nichols, K. Tsemekhman,
    K. Wolinski, J. Anchell, D. E. Bernholdt, P. Borowski, T. Clark, D. Clerc,
   H. Dachsel, M. J. O. Deegan, K. Dyall, D. Elwood, E. Glendening, M. Gutowski,
   A. C. Hess, J. Jaffe, B. G. Johnson, J. Ju, R. Kobayashi, R. Kutteh, Z. Lin,
   R. Littlefield, X. Long, B. Meng, T. Nakajima, S. Niu, L. Pollack, M. Rosing,
   K. Glaesemann, G. Sandrone, M. Stave, H. Taylor, G. Thomas, J. H. van Lenthe,
                               A. T. Wong, Z. Zhang.

 Total times  cpu:        6.5s     wall:        6.7s
