 argument  1 = input.nw
  NWChem w/ OpenMP: maximum threads =    1



============================== echo of input deck ==============================
 echo
 start H2O
 title "H2O"

 memory total 24 gb

 geometry units bohr
 symmetry c1
        O  0.00000000  0.00000000  0.00000000
        H  0.00000000  1.732843  0.00000000
        H  1.72558000 -0.64860000  0.00000000
 end

 basis spherical
   * library cc-pVTZ
 end

 mcscf
   active  8
   actelec 10
   multiplicity 1
   maxiter 40
   vectors input h2o.mos
   vectors output h2o.mos
 end

 task mcscf

 scf
   vectors input h2o.mos
   vectors output h2o-trash.mos
   noscf
 end

 tce
   2eorb
   2emet 13
   ccsd
 end

# set tce:print_integrals T
# set tce:qorb
# set tce:qela
# set tce:qelb

# set tce:qducc T
# set tce:nactv
# set tce:nonhf F
# set tce:ducc_model 3

 set tce:printtol 0.02

 task tce

 tce
   2eorb
   2emet 13
   ccsd
   freeze virtual 50
 end

 set tce:printtol 0.02

 task tce
================================================================================


                                         
                                         


             Northwest Computational Chemistry Package (NWChem) 7.0.1
             --------------------------------------------------------


                    Environmental Molecular Sciences Laboratory
                       Pacific Northwest National Laboratory
                                Richland, WA 99352

                              Copyright (c) 1994-2020
                       Pacific Northwest National Laboratory
                            Battelle Memorial Institute

             NWChem is an open-source computational chemistry package
                        distributed under the terms of the
                      Educational Community License (ECL) 2.0
             A copy of the license is included with this distribution
                              in the LICENSE.TXT file

                                  ACKNOWLEDGMENT
                                  --------------

            This software and its documentation were developed at the
            EMSL at Pacific Northwest National Laboratory, a multiprogram
            national laboratory, operated for the U.S. Department of Energy
            by Battelle under Contract Number DE-AC05-76RL01830. Support
            for this work was provided by the Department of Energy Office
            of Biological and Environmental Research, Office of Basic
            Energy Sciences, and the Office of Advanced Scientific Computing.


           Job information
           ---------------

    hostname        = WE46210
    program         = /home/baum612/code/nwchem/bin/LINUX64/nwchem
    date            = Sun Nov  5 20:08:47 2023

    compiled        = Mon_Sep_25_14:29:55_2023
    source          = /home/baum612/code/nwchem
    nwchem branch   = 7.0.0
    nwchem revision = nwchem_on_git-4191-g39d87d64de
    ga revision     = 5.8.1
    use scalapack   = F
    input           = input.nw
    prefix          = H2O.
    data base       = ./H2O.db
    status          = startup
    nproc           =        1
    time left       =     -1s



           Memory information
           ------------------

    heap     =  805306366 doubles =   6144.0 Mbytes
    stack    =  805306363 doubles =   6144.0 Mbytes
    global   = 1610612736 doubles =  12288.0 Mbytes (distinct from heap & stack)
    total    = 3221225465 doubles =  24576.0 Mbytes
    verify   = yes
    hardfail = no 


           Directory information
           ---------------------

  0 permanent = .
  0 scratch   = .




                                NWChem Input Module
                                -------------------


                                        H2O
                                        ---
 Turning off AUTOSYM since
 SYMMETRY directive was detected!


          ------
          auto-z
          ------
  no constraints, skipping    0.0000000000000000     
  no constraints, skipping    0.0000000000000000     


                             Geometry "geometry" -> ""
                             -------------------------

 Output coordinates in a.u. (scale by  1.000000000 to convert to a.u.)

  No.       Tag          Charge          X              Y              Z
 ---- ---------------- ---------- -------------- -------------- --------------
    1 O                    8.0000    -0.17255800    -0.10842430     0.00000000
    2 H                    1.0000    -0.17255800     1.62441870     0.00000000
    3 H                    1.0000     1.55302200    -0.75702430     0.00000000

      Atomic Mass 
      ----------- 

      O                 15.994910
      H                  1.007825


 Effective nuclear repulsion energy (a.u.)       9.2964114031

            Nuclear Dipole moment (a.u.) 
            ----------------------------
        X                 Y               Z
 ---------------- ---------------- ----------------
    -0.0000000000     0.0000000000     0.0000000000



                                Z-matrix (autoz)
                                -------- 

 Units are Angstrom for bonds and degrees for angles

      Type          Name      I     J     K     L     M      Value
      ----------- --------  ----- ----- ----- ----- ----- ----------
    1 Stretch                  1     2                       0.91698
    2 Stretch                  1     3                       0.97551
    3 Bend                     2     1     3               110.59992


            XYZ format geometry
            -------------------
     3
 geometry
 O                    -0.09131377    -0.05737567     0.00000000
 H                    -0.09131377     0.85960542     0.00000000
 H                     0.82182391    -0.40060004     0.00000000

 ==============================================================================
                                internuclear distances
 ------------------------------------------------------------------------------
       center one      |      center two      | atomic units |       a.u.
 ------------------------------------------------------------------------------
    2 H                |   1 O                |     1.73284  |     1.73284
    3 H                |   1 O                |     1.84345  |     1.84345
 ------------------------------------------------------------------------------
                         number of included internuclear distances:          2
 ==============================================================================



 ==============================================================================
                                 internuclear angles
 ------------------------------------------------------------------------------
        center 1       |       center 2       |       center 3       |  degrees
 ------------------------------------------------------------------------------
    2 H                |   1 O                |   3 H                |   110.60
 ------------------------------------------------------------------------------
                            number of included internuclear angles:          1
 ==============================================================================





 Summary of "ao basis" -> "" (spherical)
 ------------------------------------------------------------------------------
       Tag                 Description            Shells   Functions and Types
 ---------------- ------------------------------  ------  ---------------------
 *                          cc-pVTZ                   on all atoms 


                      Basis "ao basis" -> "ao basis" (spherical)
                      -----
  O (Oxygen)
  ----------
            Exponent  Coefficients 
       -------------- ---------------------------------------------------------
  1 S  1.53300000E+04  0.000508
  1 S  2.29900000E+03  0.003929
  1 S  5.22400000E+02  0.020243
  1 S  1.47300000E+02  0.079181
  1 S  4.75500000E+01  0.230687
  1 S  1.67600000E+01  0.433118
  1 S  6.20700000E+00  0.350260
  1 S  6.88200000E-01 -0.008154

  2 S  1.53300000E+04 -0.000115
  2 S  2.29900000E+03 -0.000895
  2 S  5.22400000E+02 -0.004636
  2 S  1.47300000E+02 -0.018724
  2 S  4.75500000E+01 -0.058463
  2 S  1.67600000E+01 -0.136463
  2 S  6.20700000E+00 -0.175740
  2 S  6.88200000E-01  0.603418

  3 S  1.75200000E+00  1.000000

  4 S  2.38400000E-01  1.000000

  5 P  3.44600000E+01  0.015928
  5 P  7.74900000E+00  0.099740
  5 P  2.28000000E+00  0.310492

  6 P  7.15600000E-01  1.000000

  7 P  2.14000000E-01  1.000000

  8 D  2.31400000E+00  1.000000

  9 D  6.45000000E-01  1.000000

 10 F  1.42800000E+00  1.000000

  H (Hydrogen)
  ------------
            Exponent  Coefficients 
       -------------- ---------------------------------------------------------
  1 S  3.38700000E+01  0.006068
  1 S  5.09500000E+00  0.045308
  1 S  1.15900000E+00  0.202822

  2 S  3.25800000E-01  1.000000

  3 S  1.02700000E-01  1.000000

  4 P  1.40700000E+00  1.000000

  5 P  3.88000000E-01  1.000000

  6 D  1.05700000E+00  1.000000



 Summary of "ao basis" -> "ao basis" (spherical)
 ------------------------------------------------------------------------------
       Tag                 Description            Shells   Functions and Types
 ---------------- ------------------------------  ------  ---------------------
 O                          cc-pVTZ                 10       30   4s3p2d1f
 H                          cc-pVTZ                  6       14   3s2p1d



                            NWChem Direct MCSCF Module
                            --------------------------


                                        H2O


     -----------------------------------
       Basis functions:             58
       Inactive shells:              0
       Active shells:                8
       Active electrons:            10
       Symmetry:                    a       
       Multiplicity:                 1
       Orbital rotations:          400
     -----------------------------------

     -----------------------------------
       E2 extrapolation:             F
       Conjugacy:                    T
       Micro CI relax:               T
       Canonical orbitals:           T
       Maximum iterations:          40
       Converge threshold:    1.00E-04
       Conjugacy resets:            20
       Initial levelshift:        0.10
     -----------------------------------

 Loading old vectors from job with title :

H2O


   input molecular orbitals = ./h2o.mos
  output molecular orbtials = ./h2o.mos

       No. of determinants:          3136


  Starting Orbital Energies
   -20.540240    -1.354640    -0.749731    -0.585583    -0.525981    -0.025731
    -0.023602    -0.016024     0.290550     0.335459     0.612332     0.654746
     0.810044     0.848177     0.973840     1.112566     1.181857     1.379715
     1.435811     2.001533     2.033019     2.078230     2.137665     2.198613
     2.610480     2.882667     3.382661     3.518079     3.528142     3.560012
     3.618169     3.872423     3.901867     3.942514     3.994590     4.049754
     4.142020     4.360064     4.440390     4.475417     4.648765     4.869351
     5.139759     5.267519     5.536794     6.017704     6.481967     6.899413
     6.940884     7.001156     7.049343     7.107779     7.228792     7.243498
     7.502642     7.782177     8.259289    13.022755

  Orbital Symmetry Irreps
a    a    a    a    a    a    a    a    a    a    a    a    a    a    a   
a    a    a    a    a    a    a    a    a    a    a    a    a    a    a   
a    a    a    a    a    a    a    a    a    a    a    a    a    a    a   
a    a    a    a    a    a    a    a    a    a    a    a    a   

 Integral file          = ./H2O.aoints.0
 Record size in doubles =  65536        No. of integs per rec  =  43688
 Max. records in memory =     49        Max. records in file   = 280306
 No. of bits per label  =      8        No. of bits per value  =     64


 #quartets = 3.213D+04 #integrals = 6.608D+05 #direct =  0.0% #cached =100.0%




          %%%%% MacroIteration   1 %%%%%


          Number of sigma calls:       15
                       o<<<<< (aa):             0.00
                       o<<<<< (bb):             0.00
                       o<<<<< (ab):             0.05
                       o<<<<< (total)           0.05
                       o<<<<< (aa) ff           0.00
                       o<<<<< (aa) gop          0.00
                       o<<<<< (aa) dot          0.00
                       o<<<<< (ab) str          0.00
                       o<<<<< (ab) gath         0.00
                       o<<<<< (ab) dotab        0.00
                       o<<<<< (ab) scat         0.00
                       o<<<<< (ab) sync         0.00
                       o<<<<< Density           0.00
                       o<<<<< Density one       0.00
                       o<<<<< Density two       0.00
                       o<<<<< Density ab        0.00
                       o<<<<< Spin adapt        0.32
                       o<<<<< Symm adapt        0.00

                       o<<<<< (ab) max sync:      0.00

           >>>| Valence CI:            -85.442559640769
           >>>| MCSCF energy:          -76.146148237682
           >>>| Gradient norm:          0.250286259D-01

                              ----- Line search ------

        step       energy         lsg     num-lsg   num-lsh   lsrat    time
      ------- ---------------- --------- --------- --------- ------- --------
       0.0000     -76.14614824 -5.29D-05  0.00D+00  0.00D+00 0.0D+00      1.0

          Number of sigma calls:       14
                       o<<<<< (aa):             0.00
                       o<<<<< (bb):             0.00
                       o<<<<< (ab):             0.03
                       o<<<<< (total)           0.04
                       o<<<<< (aa) ff           0.00
                       o<<<<< (aa) gop          0.00
                       o<<<<< (aa) dot          0.00
                       o<<<<< (ab) str          0.00
                       o<<<<< (ab) gath         0.00
                       o<<<<< (ab) dotab        0.00
                       o<<<<< (ab) scat         0.00
                       o<<<<< (ab) sync         0.00
                       o<<<<< Density           0.00
                       o<<<<< Density one       0.00
                       o<<<<< Density two       0.00
                       o<<<<< Density ab        0.00
                       o<<<<< Spin adapt        0.26
                       o<<<<< Symm adapt        0.00

                       o<<<<< (ab) max sync:      0.00
       1.0000     -76.14617553 -1.68D-06 -1.68D-06  5.12D-05 3.2D-02      1.4
     --- Orbitals canonicalized ---



          %%%%% MacroIteration   2 %%%%%


          Number of sigma calls:       11
                       o<<<<< (aa):             0.00
                       o<<<<< (bb):             0.00
                       o<<<<< (ab):             0.04
                       o<<<<< (total)           0.04
                       o<<<<< (aa) ff           0.00
                       o<<<<< (aa) gop          0.00
                       o<<<<< (aa) dot          0.00
                       o<<<<< (ab) str          0.00
                       o<<<<< (ab) gath         0.00
                       o<<<<< (ab) dotab        0.00
                       o<<<<< (ab) scat         0.00
                       o<<<<< (ab) sync         0.00
                       o<<<<< Density           0.01
                       o<<<<< Density one       0.00
                       o<<<<< Density two       0.00
                       o<<<<< Density ab        0.01
                       o<<<<< Spin adapt        0.21
                       o<<<<< Symm adapt        0.00

                       o<<<<< (ab) max sync:      0.00

           >>>| Valence CI:            -85.442586931373
           >>>| MCSCF energy:          -76.146175528286
           >>>| Gradient norm:          0.176241329D-02
     --- Warning:    2 Hessian diagonals < 0.05 ---
     --- Conjugacy reset ---

                              ----- Line search ------

        step       energy         lsg     num-lsg   num-lsh   lsrat    time
      ------- ---------------- --------- --------- --------- ------- --------
       0.0000     -76.14617553 -5.22D-07  0.00D+00  0.00D+00 0.0D+00      1.8

          Number of sigma calls:       10
                       o<<<<< (aa):             0.00
                       o<<<<< (bb):             0.00
                       o<<<<< (ab):             0.03
                       o<<<<< (total)           0.03
                       o<<<<< (aa) ff           0.00
                       o<<<<< (aa) gop          0.00
                       o<<<<< (aa) dot          0.00
                       o<<<<< (ab) str          0.00
                       o<<<<< (ab) gath         0.00
                       o<<<<< (ab) dotab        0.00
                       o<<<<< (ab) scat         0.00
                       o<<<<< (ab) sync         0.00
                       o<<<<< Density           0.00
                       o<<<<< Density one       0.00
                       o<<<<< Density two       0.00
                       o<<<<< Density ab        0.00
                       o<<<<< Spin adapt        0.19
                       o<<<<< Symm adapt        0.00

                       o<<<<< (ab) max sync:      0.00
       1.0000     -76.14617588 -1.75D-07 -1.75D-07  3.47D-07 3.4D-01      2.1

          Number of sigma calls:        9
                       o<<<<< (aa):             0.00
                       o<<<<< (bb):             0.00
                       o<<<<< (ab):             0.02
                       o<<<<< (total)           0.03
                       o<<<<< (aa) ff           0.00
                       o<<<<< (aa) gop          0.00
                       o<<<<< (aa) dot          0.00
                       o<<<<< (ab) str          0.00
                       o<<<<< (ab) gath         0.00
                       o<<<<< (ab) dotab        0.00
                       o<<<<< (ab) scat         0.00
                       o<<<<< (ab) sync         0.00
                       o<<<<< Density           0.01
                       o<<<<< Density one       0.00
                       o<<<<< Density two       0.00
                       o<<<<< Density ab        0.01
                       o<<<<< Spin adapt        0.18
                       o<<<<< Symm adapt        0.00

                       o<<<<< (ab) max sync:      0.00
       1.5048     -76.14617592 -3.72D-10 -3.51D-10  3.46D-07 7.1D-04      2.4



          %%%%% MacroIteration   3 %%%%%


          Number of sigma calls:        1
                       o<<<<< (aa):             0.00
                       o<<<<< (bb):             0.00
                       o<<<<< (ab):             0.00
                       o<<<<< (total)           0.01
                       o<<<<< (aa) ff           0.00
                       o<<<<< (aa) gop          0.00
                       o<<<<< (aa) dot          0.00
                       o<<<<< (ab) str          0.00
                       o<<<<< (ab) gath         0.00
                       o<<<<< (ab) dotab        0.00
                       o<<<<< (ab) scat         0.00
                       o<<<<< (ab) sync         0.00
                       o<<<<< Density           0.00
                       o<<<<< Density one       0.00
                       o<<<<< Density two       0.00
                       o<<<<< Density ab        0.00
                       o<<<<< Spin adapt        0.00
                       o<<<<< Symm adapt        0.00

                       o<<<<< (ab) max sync:      0.00

           >>>| Valence CI:            -85.442587324194
           >>>| MCSCF energy:          -76.146175921107
           >>>| Gradient norm:          0.267955140D-03
     --- Warning:    2 Hessian diagonals < 0.05 ---

                              ----- Line search ------

        step       energy         lsg     num-lsg   num-lsh   lsrat    time
      ------- ---------------- --------- --------- --------- ------- --------
       0.0000     -76.14617592 -2.82D-08  0.00D+00  0.00D+00 0.0D+00      2.6

          Number of sigma calls:        9
                       o<<<<< (aa):             0.00
                       o<<<<< (bb):             0.00
                       o<<<<< (ab):             0.03
                       o<<<<< (total)           0.03
                       o<<<<< (aa) ff           0.00
                       o<<<<< (aa) gop          0.00
                       o<<<<< (aa) dot          0.00
                       o<<<<< (ab) str          0.00
                       o<<<<< (ab) gath         0.00
                       o<<<<< (ab) dotab        0.00
                       o<<<<< (ab) scat         0.00
                       o<<<<< (ab) sync         0.00
                       o<<<<< Density           0.01
                       o<<<<< Density one       0.00
                       o<<<<< Density two       0.00
                       o<<<<< Density ab        0.01
                       o<<<<< Spin adapt        0.16
                       o<<<<< Symm adapt        0.00

                       o<<<<< (ab) max sync:      0.00
       1.0000     -76.14617594 -1.30D-08 -1.30D-08  1.52D-08 4.6D-01      2.9

          Number of sigma calls:        9
                       o<<<<< (aa):             0.00
                       o<<<<< (bb):             0.00
                       o<<<<< (ab):             0.02
                       o<<<<< (total)           0.03
                       o<<<<< (aa) ff           0.00
                       o<<<<< (aa) gop          0.00
                       o<<<<< (aa) dot          0.00
                       o<<<<< (ab) str          0.00
                       o<<<<< (ab) gath         0.00
                       o<<<<< (ab) dotab        0.00
                       o<<<<< (ab) scat         0.00
                       o<<<<< (ab) sync         0.00
                       o<<<<< Density           0.01
                       o<<<<< Density one       0.00
                       o<<<<< Density two       0.00
                       o<<<<< Density ab        0.01
                       o<<<<< Spin adapt        0.19
                       o<<<<< Symm adapt        0.00

                       o<<<<< (ab) max sync:      0.00
       1.8563     -76.14617595 -3.40D-12 -3.14D-12  1.52D-08 1.2D-04      3.2



          %%%%% MacroIteration   4 %%%%%


          Number of sigma calls:        1
                       o<<<<< (aa):             0.00
                       o<<<<< (bb):             0.00
                       o<<<<< (ab):             0.00
                       o<<<<< (total)           0.00
                       o<<<<< (aa) ff           0.00
                       o<<<<< (aa) gop          0.00
                       o<<<<< (aa) dot          0.00
                       o<<<<< (ab) str          0.00
                       o<<<<< (ab) gath         0.00
                       o<<<<< (ab) dotab        0.00
                       o<<<<< (ab) scat         0.00
                       o<<<<< (ab) sync         0.00
                       o<<<<< Density           0.00
                       o<<<<< Density one       0.00
                       o<<<<< Density two       0.00
                       o<<<<< Density ab        0.00
                       o<<<<< Spin adapt        0.00
                       o<<<<< Symm adapt        0.00

                       o<<<<< (ab) max sync:      0.00

           >>>| Valence CI:            -85.442587350355
           >>>| MCSCF energy:          -76.146175947269
           >>>| Gradient norm:          0.183565009D-03
     --- Warning:    2 Hessian diagonals < 0.05 ---

                              ----- Line search ------

        step       energy         lsg     num-lsg   num-lsh   lsrat    time
      ------- ---------------- --------- --------- --------- ------- --------
       0.0000     -76.14617595 -1.00D-08  0.00D+00  0.00D+00 0.0D+00      3.3

          Number of sigma calls:        9
                       o<<<<< (aa):             0.00
                       o<<<<< (bb):             0.00
                       o<<<<< (ab):             0.03
                       o<<<<< (total)           0.03
                       o<<<<< (aa) ff           0.00
                       o<<<<< (aa) gop          0.00
                       o<<<<< (aa) dot          0.00
                       o<<<<< (ab) str          0.00
                       o<<<<< (ab) gath         0.00
                       o<<<<< (ab) dotab        0.00
                       o<<<<< (ab) scat         0.00
                       o<<<<< (ab) sync         0.00
                       o<<<<< Density           0.01
                       o<<<<< Density one       0.00
                       o<<<<< Density two       0.00
                       o<<<<< Density ab        0.01
                       o<<<<< Spin adapt        0.16
                       o<<<<< Symm adapt        0.00

                       o<<<<< (ab) max sync:      0.00
       1.0000     -76.14617595 -5.07D-09 -5.07D-09  4.95D-09 5.1D-01      3.5

          Number of sigma calls:        9
                       o<<<<< (aa):             0.00
                       o<<<<< (bb):             0.00
                       o<<<<< (ab):             0.03
                       o<<<<< (total)           0.04
                       o<<<<< (aa) ff           0.00
                       o<<<<< (aa) gop          0.00
                       o<<<<< (aa) dot          0.00
                       o<<<<< (ab) str          0.00
                       o<<<<< (ab) gath         0.00
                       o<<<<< (ab) dotab        0.00
                       o<<<<< (ab) scat         0.00
                       o<<<<< (ab) sync         0.00
                       o<<<<< Density           0.00
                       o<<<<< Density one       0.00
                       o<<<<< Density two       0.00
                       o<<<<< Density ab        0.00
                       o<<<<< Spin adapt        0.15
                       o<<<<< Symm adapt        0.00

                       o<<<<< (ab) max sync:      0.00
       2.0248     -76.14617596 -8.57D-13 -1.00D-12  4.95D-09 8.6D-05      3.8



          %%%%% MacroIteration   5 %%%%%


          Number of sigma calls:        1
                       o<<<<< (aa):             0.00
                       o<<<<< (bb):             0.00
                       o<<<<< (ab):             0.00
                       o<<<<< (total)           0.00
                       o<<<<< (aa) ff           0.00
                       o<<<<< (aa) gop          0.00
                       o<<<<< (aa) dot          0.00
                       o<<<<< (ab) str          0.00
                       o<<<<< (ab) gath         0.00
                       o<<<<< (ab) dotab        0.00
                       o<<<<< (ab) scat         0.00
                       o<<<<< (ab) sync         0.00
                       o<<<<< Density           0.01
                       o<<<<< Density one       0.00
                       o<<<<< Density two       0.00
                       o<<<<< Density ab        0.01
                       o<<<<< Spin adapt        0.00
                       o<<<<< Symm adapt        0.00

                       o<<<<< (ab) max sync:      0.00

           >>>| Valence CI:            -85.442587360505
           >>>| MCSCF energy:          -76.146175957419
           >>>| Gradient norm:          0.575435885D-04




     ==============================
            MCSCF Converged
     ==============================



          Canonical Eigenvalues

              1      
    1  -20.5394
    2   -1.3574
    3   -0.7525
    4   -0.5863
    5   -0.5264
    6   -0.0257
    7   -0.0232
    8   -0.0160
    9    0.2894
   10    0.3354
   11    0.6125
   12    0.6542
   13    0.8099
   14    0.8491
   15    0.9739
   16    1.1086
   17    1.1848
   18    1.3789
   19    1.4464
   20    2.0028
   21    2.0274
   22    2.0806
   23    2.1386
   24    2.1971
   25    2.6122
   26    2.8845
   27    3.3848
   28    3.5206
   29    3.5281
   30    3.5644
   31    3.6243
   32    3.8720
   33    3.9084
   34    3.9447
   35    3.9939
   36    4.0487
   37    4.1501
   38    4.3676
   39    4.4472
   40    4.4858
   41    4.6553
   42    4.8740
   43    5.1700
   44    5.2728
   45    5.5401
   46    6.0280
   47    6.5004
   48    6.8992
   49    6.9378
   50    7.0061
   51    7.0620
   52    7.1113
   53    7.2573
   54    7.2725
   55    7.5053
   56    7.8018
   57    8.2788
   58   13.1092


          Converged CI vector

   Index           Coefficient          Config. Occupation
         1          0.97730017          1  2  3  4  5  1  2  3  4  5
        22         -0.06926265          1  2  3  4  5  1  2  3  4  8
         3         -0.03792157          1  2  3  4  5  1  2  3  5  6
         8         -0.02326542          1  2  3  4  5  1  2  3  5  7
         4         -0.02284381          1  2  3  4  5  1  2  4  5  6
         9          0.03465657          1  2  3  4  5  1  2  4  5  7
        38         -0.02216336          1  2  3  4  5  1  2  4  7  8
      1177         -0.06926265          1  2  3  4  8  1  2  3  4  5
      1198         -0.05123783          1  2  3  4  8  1  2  3  4  8
      1179         -0.02375672          1  2  3  4  8  1  2  3  5  6
      1185          0.02971223          1  2  3  4  8  1  2  4  5  7
       113         -0.03792157          1  2  3  5  6  1  2  3  4  5
       134         -0.02375672          1  2  3  5  6  1  2  3  4  8
       115         -0.03642685          1  2  3  5  6  1  2  3  5  6
       116         -0.02709565          1  2  3  5  6  1  2  4  5  6
       121          0.02028442          1  2  3  5  6  1  2  4  5  7
       393         -0.02326542          1  2  3  5  7  1  2  3  4  5
       400         -0.02223887          1  2  3  5  7  1  2  3  5  7
       401          0.02268930          1  2  3  5  7  1  2  4  5  7
       169         -0.02284381          1  2  4  5  6  1  2  3  4  5
       171         -0.02709565          1  2  4  5  6  1  2  3  5  6
       172         -0.03578931          1  2  4  5  6  1  2  4  5  6
       173         -0.02035283          1  2  4  5  6  1  3  4  5  6
       449          0.03465657          1  2  4  5  7  1  2  3  4  5
       470          0.02971223          1  2  4  5  7  1  2  3  4  8
       451          0.02028442          1  2  4  5  7  1  2  3  5  6
       456          0.02268930          1  2  4  5  7  1  2  3  5  7
       457         -0.04722433          1  2  4  5  7  1  2  4  5  7
      2073         -0.02216336          1  2  4  7  8  1  2  3  4  5
       228         -0.02035283          1  3  4  5  6  1  2  4  5  6
       229         -0.02331324          1  3  4  5  6  1  3  4  5  6

          Number of sigma calls:        1
                       o<<<<< (aa):             0.00
                       o<<<<< (bb):             0.00
                       o<<<<< (ab):             0.00
                       o<<<<< (total)           0.00
                       o<<<<< (aa) ff           0.00
                       o<<<<< (aa) gop          0.00
                       o<<<<< (aa) dot          0.00
                       o<<<<< (ab) str          0.00
                       o<<<<< (ab) gath         0.00
                       o<<<<< (ab) dotab        0.00
                       o<<<<< (ab) scat         0.00
                       o<<<<< (ab) sync         0.00
                       o<<<<< Density           0.01
                       o<<<<< Density one       0.00
                       o<<<<< Density two       0.00
                       o<<<<< Density ab        0.01
                       o<<<<< Spin adapt        0.00
                       o<<<<< Symm adapt        0.00

                       o<<<<< (ab) max sync:      0.00



          Natural orbital occupation numbers

              1      
    1    2.0000
    2    1.9990
    3    1.9827
    4    1.9800
    5    1.9772
    6    0.0235
    7    0.0205
    8    0.0170


          Number of sigma calls:       15
                       o<<<<< (aa):             0.00
                       o<<<<< (bb):             0.00
                       o<<<<< (ab):             0.04
                       o<<<<< (total)           0.04
                       o<<<<< (aa) ff           0.00
                       o<<<<< (aa) gop          0.00
                       o<<<<< (aa) dot          0.00
                       o<<<<< (ab) str          0.00
                       o<<<<< (ab) gath         0.00
                       o<<<<< (ab) dotab        0.00
                       o<<<<< (ab) scat         0.00
                       o<<<<< (ab) sync         0.00
                       o<<<<< Density           0.01
                       o<<<<< Density one       0.00
                       o<<<<< Density two       0.00
                       o<<<<< Density ab        0.01
                       o<<<<< Spin adapt        0.31
                       o<<<<< Symm adapt        0.00

                       o<<<<< (ab) max sync:      0.00


       Final MCSCF results 
       ------------------- 

       Total MCSCF energy =    -76.146175957419
            Gradient norm =      5.8D-05

    CPU time for solution =      4.3s
   Wall time for solution =      8.0s



                        Analysis of MCSCF natural orbitals
                        ----------------------------------

 Vector    1  Occ=1.999988D+00  E=-2.053939D+01  Symmetry=a
              MO Center= -9.1D-02, -5.7D-02,  3.7D-09, r^2= 1.8D-02
   Bfn.  Coefficient  Atom+Function         Bfn.  Coefficient  Atom+Function  
  ----- ------------  ---------------      ----- ------------  ---------------
     1      0.970355  1 O  s          

 Vector    2  Occ=1.999019D+00  E=-1.357444D+00  Symmetry=a
              MO Center= -3.0D-01, -2.0D-01,  2.6D-06, r^2= 4.1D-01
   Bfn.  Coefficient  Atom+Function         Bfn.  Coefficient  Atom+Function  
  ----- ------------  ---------------      ----- ------------  ---------------
     2      0.507827  1 O  s                  4      0.386158  1 O  s          

 Vector    3  Occ=1.982711D+00  E=-7.524788D-01  Symmetry=a
              MO Center= -6.4D-02, -3.7D-02, -2.2D-06, r^2= 6.5D-01
   Bfn.  Coefficient  Atom+Function         Bfn.  Coefficient  Atom+Function  
  ----- ------------  ---------------      ----- ------------  ---------------
    10      0.430048  1 O  pz                13      0.386963  1 O  pz         
     7      0.358446  1 O  pz         

 Vector    4  Occ=1.980031D+00  E=-5.863250D-01  Symmetry=a
              MO Center= -3.5D-02,  3.6D-01, -3.3D-08, r^2= 5.6D-01
   Bfn.  Coefficient  Atom+Function         Bfn.  Coefficient  Atom+Function  
  ----- ------------  ---------------      ----- ------------  ---------------
     9      0.330838  1 O  py                 6      0.283610  1 O  py         
    32      0.260969  2 H  s                 31      0.192161  2 H  s          
    12      0.177025  1 O  py         

 Vector    5  Occ=1.977222D+00  E=-5.264206D-01  Symmetry=a
              MO Center=  3.4D-01, -1.7D-01, -3.2D-08, r^2= 6.0D-01
   Bfn.  Coefficient  Atom+Function         Bfn.  Coefficient  Atom+Function  
  ----- ------------  ---------------      ----- ------------  ---------------
     8      0.332542  1 O  px                 5      0.276801  1 O  px         
    46      0.265458  3 H  s                 11      0.192634  1 O  px         
    45      0.184657  3 H  s          

 Vector    6  Occ=2.348435D-02  E=-2.570121D-02  Symmetry=a
              MO Center=  5.1D-01, -2.1D-01, -2.2D-07, r^2= 6.3D-01
   Bfn.  Coefficient  Atom+Function         Bfn.  Coefficient  Atom+Function  
  ----- ------------  ---------------      ----- ------------  ---------------
    46      0.659071  3 H  s                  5     -0.531240  1 O  px         
     8     -0.428100  1 O  px                 2     -0.320730  1 O  s          
    45      0.296973  3 H  s                  4     -0.186170  1 O  s          
     3     -0.164682  1 O  s          

 Vector    7  Occ=2.054362D-02  E=-2.324348D-02  Symmetry=a
              MO Center= -3.3D-02,  5.1D-01, -2.5D-07, r^2= 6.4D-01
   Bfn.  Coefficient  Atom+Function         Bfn.  Coefficient  Atom+Function  
  ----- ------------  ---------------      ----- ------------  ---------------
    32      0.675488  2 H  s                  6     -0.568477  1 O  py         
     9     -0.428647  1 O  py                31      0.301613  2 H  s          
     2     -0.273474  1 O  s                  4     -0.201889  1 O  s          
     3     -0.150758  1 O  s          

 Vector    8  Occ=1.700153D-02  E=-1.602204D-02  Symmetry=a
              MO Center= -3.9D-03,  1.4D-03, -2.6D-06, r^2= 1.2D+00
   Bfn.  Coefficient  Atom+Function         Bfn.  Coefficient  Atom+Function  
  ----- ------------  ---------------      ----- ------------  ---------------
    13      0.766975  1 O  pz                 7     -0.655825  1 O  pz         
    10     -0.296200  1 O  pz         

 Vector    9  Occ=0.000000D+00  E= 2.894204D-01  Symmetry=a
              MO Center=  2.4D-01,  2.6D-01,  1.6D-06, r^2= 4.8D+00
   Bfn.  Coefficient  Atom+Function         Bfn.  Coefficient  Atom+Function  
  ----- ------------  ---------------      ----- ------------  ---------------
     4      2.478964  1 O  s                 33     -1.266122  2 H  s          
    47     -1.068672  3 H  s                 11      0.681568  1 O  px         
    12      0.592115  1 O  py                38      0.538406  2 H  py         
    32     -0.482857  2 H  s                 51      0.417115  3 H  px         
    46     -0.266856  3 H  s                 52     -0.168764  3 H  py         

 Vector   10  Occ=0.000000D+00  E= 3.354309D-01  Symmetry=a
              MO Center=  5.9D-01,  2.6D-01, -5.1D-08, r^2= 5.5D+00
   Bfn.  Coefficient  Atom+Function         Bfn.  Coefficient  Atom+Function  
  ----- ------------  ---------------      ----- ------------  ---------------
    47     -2.098785  3 H  s                 33      2.032797  2 H  s          
    12     -0.702568  1 O  py                11      0.470692  1 O  px         
    46      0.359179  3 H  s                 38     -0.334758  2 H  py         
    51      0.314427  3 H  px                32     -0.213643  2 H  s          

 Vector   11  Occ=0.000000D+00  E= 6.125321D-01  Symmetry=a
              MO Center=  2.1D-01,  1.2D-02, -1.4D-06, r^2= 2.0D+00
   Bfn.  Coefficient  Atom+Function         Bfn.  Coefficient  Atom+Function  
  ----- ------------  ---------------      ----- ------------  ---------------
     4      3.425809  1 O  s                 32     -2.871172  2 H  s          
    46     -1.928377  3 H  s                 12      1.492890  1 O  py         
    11      1.278329  1 O  px                38      0.666497  2 H  py         
    51      0.489126  3 H  px                21     -0.193637  1 O  d  0       
     2      0.179539  1 O  s                 47      0.174068  3 H  s          

 Vector   12  Occ=0.000000D+00  E= 6.542089D-01  Symmetry=a
              MO Center= -3.7D-01, -1.1D-01, -5.8D-08, r^2= 2.4D+00
   Bfn.  Coefficient  Atom+Function         Bfn.  Coefficient  Atom+Function  
  ----- ------------  ---------------      ----- ------------  ---------------
    46      2.423004  3 H  s                 12      2.299956  1 O  py         
    11     -1.967792  1 O  px                32     -1.862925  2 H  s          
    33     -0.851535  2 H  s                 47      0.811338  3 H  s          
    51     -0.734333  3 H  px                38      0.595085  2 H  py         
    23     -0.347133  1 O  d  2               4     -0.344250  1 O  s          

 Vector   13  Occ=0.000000D+00  E= 8.099318D-01  Symmetry=a
              MO Center= -1.6D-01, -1.4D-01, -3.1D-07, r^2= 2.2D+00
   Bfn.  Coefficient  Atom+Function         Bfn.  Coefficient  Atom+Function  
  ----- ------------  ---------------      ----- ------------  ---------------
     4      1.861754  1 O  s                 11      1.620822  1 O  px         
    32     -1.538345  2 H  s                 46     -1.331850  3 H  s          
    12      1.189225  1 O  py                52     -0.995261  3 H  py         
    37     -0.950906  2 H  px                38      0.397247  2 H  py         
     2      0.188199  1 O  s          

 Vector   14  Occ=0.000000D+00  E= 8.491344D-01  Symmetry=a
              MO Center=  3.8D-01,  1.9D-01, -2.3D-07, r^2= 1.7D+00
   Bfn.  Coefficient  Atom+Function         Bfn.  Coefficient  Atom+Function  
  ----- ------------  ---------------      ----- ------------  ---------------
    53     -0.865271  3 H  pz                39      0.825106  2 H  pz         

 Vector   15  Occ=0.000000D+00  E= 9.738843D-01  Symmetry=a
              MO Center=  4.8D-02,  6.4D-02,  5.2D-07, r^2= 2.1D+00
   Bfn.  Coefficient  Atom+Function         Bfn.  Coefficient  Atom+Function  
  ----- ------------  ---------------      ----- ------------  ---------------
    13      1.340057  1 O  pz                39     -1.074549  2 H  pz         
    53     -0.964824  3 H  pz         

 Vector   16  Occ=0.000000D+00  E= 1.108557D+00  Symmetry=a
              MO Center= -1.5D-01, -8.3D-02,  3.1D-06, r^2= 2.0D+00
   Bfn.  Coefficient  Atom+Function         Bfn.  Coefficient  Atom+Function  
  ----- ------------  ---------------      ----- ------------  ---------------
     4      7.509794  1 O  s                 32     -3.681497  2 H  s          
    46     -2.658085  3 H  s                 38      1.734106  2 H  py         
    12      1.344598  1 O  py                11      1.208278  1 O  px         
    51      1.098534  3 H  px                33     -0.776936  2 H  s          
     9      0.768992  1 O  py                52     -0.762683  3 H  py         

 Vector   17  Occ=0.000000D+00  E= 1.184762D+00  Symmetry=a
              MO Center=  2.6D-01,  1.7D-01,  2.7D-08, r^2= 2.2D+00
   Bfn.  Coefficient  Atom+Function         Bfn.  Coefficient  Atom+Function  
  ----- ------------  ---------------      ----- ------------  ---------------
    12      1.483656  1 O  py                46      1.347350  3 H  s          
    11     -1.262880  1 O  px                37      1.232654  2 H  px         
    52     -0.930225  3 H  py                32     -0.814444  2 H  s          
    51     -0.714630  3 H  px                 4     -0.660279  1 O  s          
    47      0.232685  3 H  s                  8     -0.171154  1 O  px         

 Vector   18  Occ=0.000000D+00  E= 1.378942D+00  Symmetry=a
              MO Center=  1.1D+00, -5.2D-01, -4.5D-08, r^2= 1.2D+00
   Bfn.  Coefficient  Atom+Function         Bfn.  Coefficient  Atom+Function  
  ----- ------------  ---------------      ----- ------------  ---------------
    51      2.448118  3 H  px                 4      2.039572  1 O  s          
    46     -1.975662  3 H  s                 11      1.065915  1 O  px         
    47     -1.025373  3 H  s                 52     -0.833044  3 H  py         
     8      0.693591  1 O  px                12     -0.668822  1 O  py         
     2      0.529808  1 O  s                  9     -0.485686  1 O  py         


 Wrote Lagrangian and 1- and 2-particle density matrices to ./H2O.mcpdm


     Multipole analysis of the density
     ---------------------------------

     L   x y z        total        nuclear
     -   - - -        -----        -------
     0   0 0 0     -0.000000     10.000000

     1   1 0 0      0.585318     -0.000000
     1   0 1 0      0.382991      0.000000
     1   0 0 1     -0.000001      0.000000

     2   2 0 0     -4.080389      2.679864
     2   1 1 0     -0.799058     -1.306306
     2   1 0 1     -0.000000      0.000000
     2   0 2 0     -3.599284      3.305869
     2   0 1 1     -0.000000      0.000000
     2   0 0 2     -5.470624      0.000000


  Mulliken analysis of the total density
  --------------------------------------

    Atom       Charge   Shell Charges
 -----------   ------   -------------------------------------------------------
    1 O    8     8.47   1.95  0.99  0.23  0.60  1.30  2.09  1.28  0.00  0.01  0.00
    2 H    1     0.77   0.27  0.37  0.04  0.02  0.06  0.01
    3 H    1     0.76   0.25  0.38  0.05  0.02  0.06  0.01

    Mulliken analysis of the active space density
    ---------------------------------------------

    Atom       Charge   Shell Charges
 -----------   ------   -------------------------------------------------------
    1 O    8     8.47   1.95  0.99  0.23  0.60  1.30  2.09  1.28  0.00  0.01  0.00
    2 H    1     0.77   0.27  0.37  0.04  0.02  0.06  0.01
    3 H    1     0.76   0.25  0.38  0.05  0.02  0.06  0.01

 Parallel integral file used      16 records with       0 large values


 Task  times  cpu:        4.4s     wall:        8.1s


                                NWChem Input Module
                                -------------------


                                 NWChem SCF Module
                                 -----------------


                                        H2O



  ao basis        = "ao basis"
  functions       =    58
  atoms           =     3
  closed shells   =     5
  open shells     =     0
  charge          =   0.00
  wavefunction    = RHF 
  input vectors   = ./h2o.mos
  output vectors  = ./h2o-trash.mos
  use symmetry    = F
  symmetry adapt  = F


 Summary of "ao basis" -> "ao basis" (spherical)
 ------------------------------------------------------------------------------
       Tag                 Description            Shells   Functions and Types
 ---------------- ------------------------------  ------  ---------------------
 O                          cc-pVTZ                 10       30   4s3p2d1f
 H                          cc-pVTZ                  6       14   3s2p1d



 Forming initial guess at       8.1s


 Loading old vectors from job with title :

H2O


 Starting SCF solution at       8.1s



 ----------------------------------------------
         Quadratically convergent ROHF

 Convergence threshold     :          1.000E-04
 Maximum no. of iterations :           30
 Final Fock-matrix accuracy:          1.000E-07
 ----------------------------------------------


 Integral file          = ./H2O.aoints.0
 Record size in doubles =  65536        No. of integs per rec  =  43688
 Max. records in memory =     49        Max. records in file   = 280344
 No. of bits per label  =      8        No. of bits per value  =     64


 #quartets = 3.213D+04 #integrals = 6.608D+05 #direct =  0.0% #cached =100.0%



       Final RHF  results 
       ------------------ 

         Total SCF energy =    -76.054114399214
      One-electron energy =   -123.287347614003
      Two-electron energy =     37.936821811702
 Nuclear repulsion energy =      9.296411403087

        Time for solution =      0.1s


             Final eigenvalues
             -----------------

              1      
    1  -20.5394
    2   -1.3574
    3   -0.7525
    4   -0.5863
    5   -0.5264
    6   -0.0257
    7   -0.0232
    8   -0.0160
    9    0.2894
   10    0.3354
   11    0.6125
   12    0.6542
   13    0.8099
   14    0.8491
   15    0.9739

                       ROHF Final Molecular Orbital Analysis
                       -------------------------------------

 Vector    2  Occ=2.000000D+00  E=-1.357444D+00
              MO Center= -3.0D-01, -2.0D-01,  2.6D-06, r^2= 4.1D-01
   Bfn.  Coefficient  Atom+Function         Bfn.  Coefficient  Atom+Function  
  ----- ------------  ---------------      ----- ------------  ---------------
     2      0.507827  1 O  s                  4      0.386158  1 O  s          

 Vector    3  Occ=2.000000D+00  E=-7.524788D-01
              MO Center= -6.4D-02, -3.7D-02, -2.2D-06, r^2= 6.5D-01
   Bfn.  Coefficient  Atom+Function         Bfn.  Coefficient  Atom+Function  
  ----- ------------  ---------------      ----- ------------  ---------------
    10      0.430048  1 O  pz                13      0.386963  1 O  pz         
     7      0.358446  1 O  pz         

 Vector    4  Occ=2.000000D+00  E=-5.863250D-01
              MO Center= -3.5D-02,  3.6D-01, -3.3D-08, r^2= 5.6D-01
   Bfn.  Coefficient  Atom+Function         Bfn.  Coefficient  Atom+Function  
  ----- ------------  ---------------      ----- ------------  ---------------
     9      0.330838  1 O  py                 6      0.283610  1 O  py         
    32      0.260969  2 H  s                 31      0.192161  2 H  s          
    12      0.177025  1 O  py         

 Vector    5  Occ=2.000000D+00  E=-5.264206D-01
              MO Center=  3.4D-01, -1.7D-01, -3.2D-08, r^2= 6.0D-01
   Bfn.  Coefficient  Atom+Function         Bfn.  Coefficient  Atom+Function  
  ----- ------------  ---------------      ----- ------------  ---------------
     8      0.332542  1 O  px                 5      0.276801  1 O  px         
    46      0.265458  3 H  s                 11      0.192634  1 O  px         
    45      0.184657  3 H  s          

 Vector    6  Occ=0.000000D+00  E=-2.570121D-02
              MO Center=  5.1D-01, -2.1D-01, -2.2D-07, r^2= 6.3D-01
   Bfn.  Coefficient  Atom+Function         Bfn.  Coefficient  Atom+Function  
  ----- ------------  ---------------      ----- ------------  ---------------
    46      0.659071  3 H  s                  5     -0.531240  1 O  px         
     8     -0.428100  1 O  px                 2     -0.320730  1 O  s          
    45      0.296973  3 H  s                  4     -0.186170  1 O  s          
     3     -0.164682  1 O  s          

 Vector    7  Occ=0.000000D+00  E=-2.324348D-02
              MO Center= -3.3D-02,  5.1D-01, -2.5D-07, r^2= 6.4D-01
   Bfn.  Coefficient  Atom+Function         Bfn.  Coefficient  Atom+Function  
  ----- ------------  ---------------      ----- ------------  ---------------
    32      0.675488  2 H  s                  6     -0.568477  1 O  py         
     9     -0.428647  1 O  py                31      0.301613  2 H  s          
     2     -0.273474  1 O  s                  4     -0.201889  1 O  s          
     3     -0.150758  1 O  s          

 Vector    8  Occ=0.000000D+00  E=-1.602204D-02
              MO Center= -3.9D-03,  1.4D-03, -2.6D-06, r^2= 1.2D+00
   Bfn.  Coefficient  Atom+Function         Bfn.  Coefficient  Atom+Function  
  ----- ------------  ---------------      ----- ------------  ---------------
    13      0.766975  1 O  pz                 7     -0.655825  1 O  pz         
    10     -0.296200  1 O  pz         

 Vector    9  Occ=0.000000D+00  E= 2.894204D-01
              MO Center=  2.4D-01,  2.6D-01,  1.6D-06, r^2= 4.8D+00
   Bfn.  Coefficient  Atom+Function         Bfn.  Coefficient  Atom+Function  
  ----- ------------  ---------------      ----- ------------  ---------------
     4      2.478964  1 O  s                 33     -1.266122  2 H  s          
    47     -1.068672  3 H  s                 11      0.681568  1 O  px         
    12      0.592115  1 O  py                38      0.538406  2 H  py         
    32     -0.482857  2 H  s                 51      0.417115  3 H  px         
    46     -0.266856  3 H  s                 52     -0.168764  3 H  py         

 Vector   10  Occ=0.000000D+00  E= 3.354309D-01
              MO Center=  5.9D-01,  2.6D-01, -5.1D-08, r^2= 5.5D+00
   Bfn.  Coefficient  Atom+Function         Bfn.  Coefficient  Atom+Function  
  ----- ------------  ---------------      ----- ------------  ---------------
    47     -2.098785  3 H  s                 33      2.032797  2 H  s          
    12     -0.702568  1 O  py                11      0.470692  1 O  px         
    46      0.359179  3 H  s                 38     -0.334758  2 H  py         
    51      0.314427  3 H  px                32     -0.213643  2 H  s          

 Vector   11  Occ=0.000000D+00  E= 6.125321D-01
              MO Center=  2.1D-01,  1.2D-02, -1.4D-06, r^2= 2.0D+00
   Bfn.  Coefficient  Atom+Function         Bfn.  Coefficient  Atom+Function  
  ----- ------------  ---------------      ----- ------------  ---------------
     4      3.425809  1 O  s                 32     -2.871172  2 H  s          
    46     -1.928377  3 H  s                 12      1.492890  1 O  py         
    11      1.278329  1 O  px                38      0.666497  2 H  py         
    51      0.489126  3 H  px                21     -0.193637  1 O  d  0       
     2      0.179539  1 O  s                 47      0.174068  3 H  s          

 Vector   12  Occ=0.000000D+00  E= 6.542089D-01
              MO Center= -3.7D-01, -1.1D-01, -5.8D-08, r^2= 2.4D+00
   Bfn.  Coefficient  Atom+Function         Bfn.  Coefficient  Atom+Function  
  ----- ------------  ---------------      ----- ------------  ---------------
    46      2.423004  3 H  s                 12      2.299956  1 O  py         
    11     -1.967792  1 O  px                32     -1.862925  2 H  s          
    33     -0.851535  2 H  s                 47      0.811338  3 H  s          
    51     -0.734333  3 H  px                38      0.595085  2 H  py         
    23     -0.347133  1 O  d  2               4     -0.344250  1 O  s          

 Vector   13  Occ=0.000000D+00  E= 8.099318D-01
              MO Center= -1.6D-01, -1.4D-01, -3.1D-07, r^2= 2.2D+00
   Bfn.  Coefficient  Atom+Function         Bfn.  Coefficient  Atom+Function  
  ----- ------------  ---------------      ----- ------------  ---------------
     4      1.861754  1 O  s                 11      1.620822  1 O  px         
    32     -1.538345  2 H  s                 46     -1.331850  3 H  s          
    12      1.189225  1 O  py                52     -0.995261  3 H  py         
    37     -0.950906  2 H  px                38      0.397247  2 H  py         
     2      0.188199  1 O  s          

 Vector   14  Occ=0.000000D+00  E= 8.491344D-01
              MO Center=  3.8D-01,  1.9D-01, -2.3D-07, r^2= 1.7D+00
   Bfn.  Coefficient  Atom+Function         Bfn.  Coefficient  Atom+Function  
  ----- ------------  ---------------      ----- ------------  ---------------
    53     -0.865271  3 H  pz                39      0.825106  2 H  pz         

 Vector   15  Occ=0.000000D+00  E= 9.738843D-01
              MO Center=  4.8D-02,  6.4D-02,  5.2D-07, r^2= 2.1D+00
   Bfn.  Coefficient  Atom+Function         Bfn.  Coefficient  Atom+Function  
  ----- ------------  ---------------      ----- ------------  ---------------
    13      1.340057  1 O  pz                39     -1.074549  2 H  pz         
    53     -0.964824  3 H  pz         


 center of mass
 --------------
 x =  -0.07599894 y =  -0.04775283 z =   0.00000000

 moments of inertia (a.u.)
 ------------------
           3.383917768835           1.233481722093           0.000000000000
           1.233481722093           2.833002082974           0.000000000000
           0.000000000000           0.000000000000           6.216919851809

  Mulliken analysis of the total density
  --------------------------------------

    Atom       Charge   Shell Charges
 -----------   ------   -------------------------------------------------------
    1 O    8     8.47   1.95  0.99  0.23  0.60  1.29  2.11  1.28  0.00  0.02  0.00
    2 H    1     0.77   0.27  0.37  0.03  0.02  0.06  0.01
    3 H    1     0.76   0.25  0.38  0.05  0.02  0.06  0.01

       Multipole analysis of the density wrt the origin
       ------------------------------------------------

     L   x y z        total         open         nuclear
     -   - - -        -----         ----         -------
     0   0 0 0     -0.000000      0.000000     10.000000

     1   1 0 0      0.596003      0.000000     -0.000000
     1   0 1 0      0.389009      0.000000      0.000000
     1   0 0 1     -0.000001      0.000000      0.000000

     2   2 0 0     -4.058319      0.000000      2.679864
     2   1 1 0     -0.805226      0.000000     -1.306306
     2   1 0 1     -0.000000      0.000000      0.000000
     2   0 2 0     -3.575493      0.000000      3.305869
     2   0 1 1     -0.000000      0.000000      0.000000
     2   0 0 2     -5.454140      0.000000      0.000000


 Parallel integral file used      16 records with       0 large values

                   NWChem Extensible Many-Electron Theory Module
                   ---------------------------------------------

              ======================================================
                   This portion of the program was automatically
                  generated by a Tensor Contraction Engine (TCE).
                  The development of this portion of the program
                 and TCE was supported by US Department of Energy,
                Office of Science, Office of Basic Energy Science.
                      TCE is a product of Battelle and PNNL.
              Please cite: S.Hirata, J.Phys.Chem.A 107, 9887 (2003).
              ======================================================

                                        H2O


            General Information
            -------------------
      Number of processors :     1
         Wavefunction type : Restricted Hartree-Fock
          No. of electrons :    10
           Alpha electrons :     5
            Beta electrons :     5
           No. of orbitals :   116
            Alpha orbitals :    58
             Beta orbitals :    58
        Alpha frozen cores :     0
         Beta frozen cores :     0
     Alpha frozen virtuals :     0
      Beta frozen virtuals :     0
         Spin multiplicity : singlet 
    Number of AO functions :    58
       Number of AO shells :    22
        Use of symmetry is : off
      Symmetry adaption is : off
         Schwarz screening : 0.10D-09

          Correlation Information
          -----------------------
          Calculation type : Coupled-cluster singles & doubles                           
   Perturbative correction : none                                                        
            Max iterations :      100
        Residual threshold : 0.10D-06
     T(0) DIIS level shift : 0.00D+00
     L(0) DIIS level shift : 0.00D+00
     T(1) DIIS level shift : 0.00D+00
     L(1) DIIS level shift : 0.00D+00
     T(R) DIIS level shift : 0.00D+00
     T(I) DIIS level shift : 0.00D+00
   CC-T/L Amplitude update :  5-th order DIIS
                I/O scheme : Global Array Library
        L-threshold :  0.10D-06
        EOM-threshold :  0.10D-06
 no EOMCCSD initial starts read in
 TCE RESTART OPTIONS
 READ_INT:   F
 WRITE_INT:  F
 READ_TA:    F
 WRITE_TA:   F
 READ_XA:    F
 WRITE_XA:   F
 READ_IN3:   F
 WRITE_IN3:  F
 SLICE:      F
 D4D5:       F
 quantumc:   F
 qrotation:  F
 pwtce:      F
 qducc:      F
 nacto:                         0
 nrotv:                         0
 nrot:                          0

            Memory Information
            ------------------
          Available GA space size is    1610609372 doubles
          Available MA space size is    1610609780 doubles

 Maximum block size        32 doubles

 tile_dim =     27

 Block   Spin    Irrep     Size     Offset   Alpha
 -------------------------------------------------
   1    alpha     a      5 doubles       0       1
   2    beta      a      5 doubles       5       1
   3    alpha     a     26 doubles      10       3
   4    alpha     a     27 doubles      36       4
   5    beta      a     26 doubles      63       3
   6    beta      a     27 doubles      89       4

 Global array virtual files algorithm will be used

 Parallel file system coherency ......... OK

 Integral file          = ./H2O.aoints.0
 Record size in doubles =  65536        No. of integs per rec  =  43688
 Max. records in memory =     49        Max. records in file   = 280344
 No. of bits per label  =      8        No. of bits per value  =     64


 #quartets = 3.213D+04 #integrals = 6.608D+05 #direct =  0.0% #cached =100.0%


 Fock matrix recomputed
 1-e file size   =             3364
 1-e file name   = ./H2O.f1
 Cpu & wall time / sec            0.1            0.1
 4-electron integrals stored in orbital form

 v2    file size   =          3631290
 4-index algorithm nr.  13 is used
 imaxsize =       30
 imaxsize ichop =        0
 Cpu & wall time / sec            1.2            1.3
 T1-number-of-tasks                    2

 t1 file size   =              265
 t1 file name   = ./H2O.t1
 t1 file handle =       -998
 T2-number-of-boxes                    7

 t2 file size   =           122900
 t2 file name   = ./H2O.t2
 t2 file handle =       -996
CCSD iterations
 ---------------------------------------------------------
 Iter          Residuum       Correlation     Cpu    Wall 
 ---------------------------------------------------------
NEW TASK SCHEDULING
CCSD_T1_NTS --- OK
CCSD_T2_NTS --- OK
    1   1.2211101953392  -0.4472555389277     0.2     0.2
    2   2.3875334325902   0.0861481352951     0.2     0.2
    3   5.0010041758021  -1.0059623530773     0.2     0.2
    4  11.0847713924085   1.2223468816805     0.2     0.2
    5  12.3468852272740  -2.8982491746392     0.2     0.2
 MICROCYCLE DIIS UPDATE:                    5                    5
    6   0.0953920243645  -0.2746593725691     0.2     0.2
    7   0.1007777949485  -0.2807705131747     0.2     0.2
    8   0.2153482881540  -0.2639160849975     0.2     0.2
    9   0.5023144177904  -0.2817571279693     0.2     0.2
   10   1.2041905084277  -0.0334719275262     0.2     0.2
 MICROCYCLE DIIS UPDATE:                   10                    5
   11   0.0119605682501  -0.2804899534928     0.2     0.2
   12   0.0087314848072  -0.2800732437491     0.2     0.2
   13   0.0171678575477  -0.2820554473112     0.2     0.2
   14   0.0417921306512  -0.2769302830101     0.2     0.2
   15   0.1026126902416  -0.2889416882267     0.2     0.2
 MICROCYCLE DIIS UPDATE:                   15                    5
   16   0.0006913230014  -0.2807568627002     0.2     0.2
   17   0.0008058977769  -0.2806800938307     0.2     0.2
   18   0.0015583588043  -0.2808789488437     0.2     0.2
   19   0.0033940015184  -0.2804279620259     0.2     0.2
   20   0.0076092290052  -0.2814622235923     0.2     0.2
 MICROCYCLE DIIS UPDATE:                   20                    5
   21   0.0000783115185  -0.2807436633561     0.2     0.2
   22   0.0000633841662  -0.2807437323862     0.2     0.2
   23   0.0000970560888  -0.2807451407901     0.2     0.2
   24   0.0002137428747  -0.2807384295576     0.2     0.2
   25   0.0004925204239  -0.2807617371681     0.2     0.2
 MICROCYCLE DIIS UPDATE:                   25                    5
   26   0.0000173194877  -0.2807446855074     0.2     0.2
   27   0.0000198368356  -0.2807425818541     0.2     0.2
   28   0.0000375558437  -0.2807476441290     0.2     0.2
   29   0.0000803255224  -0.2807363676899     0.2     0.2
   30   0.0001760660295  -0.2807614087032     0.2     0.2
 MICROCYCLE DIIS UPDATE:                   30                    5
   31   0.0000028270168  -0.2807441355221     0.2     0.2
   32   0.0000027074811  -0.2807441123030     0.2     0.2
   33   0.0000048525281  -0.2807442178150     0.2     0.2
   34   0.0000111199295  -0.2807438000302     0.2     0.2
   35   0.0000262084468  -0.2807451689086     0.2     0.2
 MICROCYCLE DIIS UPDATE:                   35                    5
   36   0.0000006548150  -0.2807441551995     0.2     0.2
   37   0.0000006222013  -0.2807440933871     0.2     0.2
   38   0.0000010748841  -0.2807442437113     0.2     0.2
   39   0.0000022480613  -0.2807439110846     0.2     0.2
   40   0.0000048650451  -0.2807446421892     0.2     0.2
 MICROCYCLE DIIS UPDATE:                   40                    5
   41   0.0000001139704  -0.2807441391671     0.2     0.2
   42   0.0000001332415  -0.2807441380820     0.2     0.2
   43   0.0000002624457  -0.2807441445018     0.2     0.2
   44   0.0000006044118  -0.2807441208102     0.2     0.2
   45   0.0000014248125  -0.2807441962797     0.2     0.2
 MICROCYCLE DIIS UPDATE:                   45                    5
   46   0.0000000253054  -0.2807441401457     0.2     0.2
 -----------------------------------------------------------------
 Iterations converged
 CCSD correlation energy / hartree =        -0.280744140145664
 CCSD total energy / hartree       =       -76.334858539359885

 Singles contributions

 Doubles contributions
     6a   (alpha)     7a   (alpha) ---     4a   (alpha)     5a   (alpha)        0.0205773792
     6a   (alpha)     7a   (alpha) ---     5a   (alpha)     4a   (alpha)       -0.0205773792
     6a   (alpha)     8a   (alpha) ---     3a   (alpha)     5a   (alpha)        0.0260465565
     6a   (alpha)     8a   (alpha) ---     5a   (alpha)     3a   (alpha)       -0.0260465565
     7a   (alpha)     6a   (alpha) ---     4a   (alpha)     5a   (alpha)       -0.0205773792
     7a   (alpha)     6a   (alpha) ---     5a   (alpha)     4a   (alpha)        0.0205773792
     7a   (alpha)     8a   (alpha) ---     3a   (alpha)     4a   (alpha)        0.0254696853
     7a   (alpha)     8a   (alpha) ---     4a   (alpha)     3a   (alpha)       -0.0254696853
     8a   (alpha)     6a   (alpha) ---     3a   (alpha)     5a   (alpha)       -0.0260465565
     8a   (alpha)     6a   (alpha) ---     5a   (alpha)     3a   (alpha)        0.0260465565
     8a   (alpha)     7a   (alpha) ---     3a   (alpha)     4a   (alpha)       -0.0254696853
     8a   (alpha)     7a   (alpha) ---     4a   (alpha)     3a   (alpha)        0.0254696853
     6a   (alpha)     6a   (beta ) ---     5a   (alpha)     5a   (beta )       -0.0789075242
     6a   (alpha)     7a   (beta ) ---     5a   (alpha)     4a   (beta )       -0.0295544771
     6a   (alpha)     8a   (beta ) ---     5a   (alpha)     3a   (beta )       -0.0357993317
     7a   (alpha)     6a   (beta ) ---     4a   (alpha)     5a   (beta )       -0.0295544771
     7a   (alpha)     7a   (beta ) ---     4a   (alpha)     4a   (beta )       -0.0698717596
     7a   (alpha)     8a   (beta ) ---     4a   (alpha)     3a   (beta )       -0.0348363102
     8a   (alpha)     6a   (beta ) ---     3a   (alpha)     5a   (beta )       -0.0357993317
     8a   (alpha)     7a   (beta ) ---     3a   (alpha)     4a   (beta )       -0.0348363102
     8a   (alpha)     8a   (beta ) ---     3a   (alpha)     3a   (beta )       -0.0522760958
     8a   (alpha)    16a   (beta ) ---     3a   (alpha)     2a   (beta )       -0.0220046298
    16a   (alpha)     8a   (beta ) ---     2a   (alpha)     3a   (beta )       -0.0220046298

 Parallel integral file used      16 records with       0 large values


 Task  times  cpu:        9.7s     wall:       10.2s


                                NWChem Input Module
                                -------------------


                                 NWChem SCF Module
                                 -----------------


                                        H2O



  ao basis        = "ao basis"
  functions       =    58
  atoms           =     3
  closed shells   =     5
  open shells     =     0
  charge          =   0.00
  wavefunction    = RHF 
  input vectors   = ./h2o-trash.mos
  output vectors  = ./h2o-trash.mos
  use symmetry    = F
  symmetry adapt  = F


 Summary of "ao basis" -> "ao basis" (spherical)
 ------------------------------------------------------------------------------
       Tag                 Description            Shells   Functions and Types
 ---------------- ------------------------------  ------  ---------------------
 O                          cc-pVTZ                 10       30   4s3p2d1f
 H                          cc-pVTZ                  6       14   3s2p1d



  The SCF is already converged 

         Total SCF energy =    -76.054114399214

                   NWChem Extensible Many-Electron Theory Module
                   ---------------------------------------------

              ======================================================
                   This portion of the program was automatically
                  generated by a Tensor Contraction Engine (TCE).
                  The development of this portion of the program
                 and TCE was supported by US Department of Energy,
                Office of Science, Office of Basic Energy Science.
                      TCE is a product of Battelle and PNNL.
              Please cite: S.Hirata, J.Phys.Chem.A 107, 9887 (2003).
              ======================================================

                                        H2O


            General Information
            -------------------
      Number of processors :     1
         Wavefunction type : Restricted Hartree-Fock
          No. of electrons :    10
           Alpha electrons :     5
            Beta electrons :     5
           No. of orbitals :   116
            Alpha orbitals :    58
             Beta orbitals :    58
        Alpha frozen cores :     0
         Beta frozen cores :     0
     Alpha frozen virtuals :    50
      Beta frozen virtuals :    50
         Spin multiplicity : singlet 
    Number of AO functions :    58
       Number of AO shells :    22
        Use of symmetry is : off
      Symmetry adaption is : off
         Schwarz screening : 0.10D-09

          Correlation Information
          -----------------------
          Calculation type : Coupled-cluster singles & doubles                           
   Perturbative correction : none                                                        
            Max iterations :      100
        Residual threshold : 0.10D-06
     T(0) DIIS level shift : 0.00D+00
     L(0) DIIS level shift : 0.00D+00
     T(1) DIIS level shift : 0.00D+00
     L(1) DIIS level shift : 0.00D+00
     T(R) DIIS level shift : 0.00D+00
     T(I) DIIS level shift : 0.00D+00
   CC-T/L Amplitude update :  5-th order DIIS
                I/O scheme : Global Array Library
        L-threshold :  0.10D-06
        EOM-threshold :  0.10D-06
 no EOMCCSD initial starts read in
 TCE RESTART OPTIONS
 READ_INT:   F
 WRITE_INT:  F
 READ_TA:    F
 WRITE_TA:   F
 READ_XA:    F
 WRITE_XA:   F
 READ_IN3:   F
 WRITE_IN3:  F
 SLICE:      F
 D4D5:       F
 quantumc:   F
 qrotation:  F
 pwtce:      F
 qducc:      F
 nacto:                         0
 nrotv:                         0
 nrot:                          0

            Memory Information
            ------------------
          Available GA space size is    1610609372 doubles
          Available MA space size is    1610609780 doubles

 Maximum block size        32 doubles

 tile_dim =      5

 Block   Spin    Irrep     Size     Offset   Alpha
 -------------------------------------------------
   1    alpha     a      5 doubles       0       1
   2    beta      a      5 doubles       5       1
   3    alpha     a      3 doubles      10       3
   4    beta      a      3 doubles      13       3

 Global array virtual files algorithm will be used

 Parallel file system coherency ......... OK

 Integral file          = ./H2O.aoints.0
 Record size in doubles =  65536        No. of integs per rec  =  43688
 Max. records in memory =     49        Max. records in file   = 280344
 No. of bits per label  =      8        No. of bits per value  =     64


 #quartets = 3.213D+04 #integrals = 6.608D+05 #direct =  0.0% #cached =100.0%


 Fock matrix recomputed
 1-e file size   =               64
 1-e file name   = ./H2O.f1
 Cpu & wall time / sec            0.1            0.1
 4-electron integrals stored in orbital form

 v2    file size   =             1666
 4-index algorithm nr.  13 is used
 imaxsize =       30
 imaxsize ichop =        0
 Cpu & wall time / sec            0.7            0.7
 T1-number-of-tasks                    1

 t1 file size   =               15
 t1 file name   = ./H2O.t1
 t1 file handle =       -998
 T2-number-of-boxes                    2

 t2 file size   =              450
 t2 file name   = ./H2O.t2
 t2 file handle =       -996
CCSD iterations
 ---------------------------------------------------------
 Iter          Residuum       Correlation     Cpu    Wall 
 ---------------------------------------------------------
NEW TASK SCHEDULING
CCSD_T1_NTS --- OK
CCSD_T2_NTS --- OK
    1   0.8473412205890  -0.2397709569739     0.0     0.0
    2   1.5124358039554   0.1655545716714     0.0     0.0
    3   2.7584877037500  -0.5545976085616     0.0     0.0
    4   5.1592010702912   0.7380292359574     0.0     0.0
    5   8.9896172350685  -1.6048077233287     0.0     0.0
 MICROCYCLE DIIS UPDATE:                    5                    5
    6   0.0240336685894  -0.0880880044851     0.0     0.0
    7   0.0365430187832  -0.0973765703747     0.0     0.0
    8   0.0662896665525  -0.0801373184240     0.0     0.0
    9   0.1279039406418  -0.1085312380174     0.0     0.0
   10   0.2486628911702  -0.0400032156274     0.0     0.0
 MICROCYCLE DIIS UPDATE:                   10                    5
   11   0.0006166131993  -0.0915899032316     0.0     0.0
   12   0.0006960418349  -0.0917127936219     0.0     0.0
   13   0.0011039198998  -0.0915322600248     0.0     0.0
   14   0.0022082795061  -0.0917832886780     0.0     0.0
   15   0.0044289755362  -0.0914377482132     0.0     0.0
 MICROCYCLE DIIS UPDATE:                   15                    5
   16   0.0000138223776  -0.0916397568547     0.0     0.0
   17   0.0000110678629  -0.0916396564230     0.0     0.0
   18   0.0000151695119  -0.0916407607191     0.0     0.0
   19   0.0000249474144  -0.0916376631553     0.0     0.0
   20   0.0000448567326  -0.0916447664419     0.0     0.0
 MICROCYCLE DIIS UPDATE:                   20                    5
   21   0.0000004590859  -0.0916398793958     0.0     0.0
   22   0.0000004161260  -0.0916398891937     0.0     0.0
   23   0.0000007690109  -0.0916398788214     0.0     0.0
   24   0.0000015982476  -0.0916398887262     0.0     0.0
   25   0.0000034259204  -0.0916398880848     0.0     0.0
 MICROCYCLE DIIS UPDATE:                   25                    5
   26   0.0000000145079  -0.0916398847861     0.0     0.0
 -----------------------------------------------------------------
 Iterations converged
 CCSD correlation energy / hartree =        -0.091639884786132
 CCSD total energy / hartree       =       -76.145754284000361

 Singles contributions

 Doubles contributions
     6a   (alpha)     7a   (alpha) ---     4a   (alpha)     5a   (alpha)        0.0229975690
     6a   (alpha)     7a   (alpha) ---     5a   (alpha)     4a   (alpha)       -0.0229975690
     6a   (alpha)     8a   (alpha) ---     3a   (alpha)     5a   (alpha)        0.0292662175
     6a   (alpha)     8a   (alpha) ---     5a   (alpha)     3a   (alpha)       -0.0292662175
     7a   (alpha)     6a   (alpha) ---     4a   (alpha)     5a   (alpha)       -0.0229975690
     7a   (alpha)     6a   (alpha) ---     5a   (alpha)     4a   (alpha)        0.0229975690
     7a   (alpha)     8a   (alpha) ---     3a   (alpha)     4a   (alpha)        0.0287844756
     7a   (alpha)     8a   (alpha) ---     4a   (alpha)     3a   (alpha)       -0.0287844756
     8a   (alpha)     6a   (alpha) ---     3a   (alpha)     5a   (alpha)       -0.0292662175
     8a   (alpha)     6a   (alpha) ---     5a   (alpha)     3a   (alpha)        0.0292662175
     8a   (alpha)     7a   (alpha) ---     3a   (alpha)     4a   (alpha)       -0.0287844756
     8a   (alpha)     7a   (alpha) ---     4a   (alpha)     3a   (alpha)        0.0287844756
     6a   (alpha)     6a   (beta ) ---     5a   (alpha)     5a   (beta )       -0.0825653940
     6a   (alpha)     7a   (beta ) ---     5a   (alpha)     4a   (beta )       -0.0325613693
     6a   (alpha)     8a   (beta ) ---     5a   (alpha)     3a   (beta )       -0.0392671732
     7a   (alpha)     6a   (beta ) ---     4a   (alpha)     5a   (beta )       -0.0325613693
     7a   (alpha)     7a   (beta ) ---     4a   (alpha)     4a   (beta )       -0.0737754906
     7a   (alpha)     8a   (beta ) ---     4a   (alpha)     3a   (beta )       -0.0383705364
     8a   (alpha)     6a   (beta ) ---     3a   (alpha)     5a   (beta )       -0.0392671732
     8a   (alpha)     7a   (beta ) ---     3a   (alpha)     4a   (beta )       -0.0383705364
     8a   (alpha)     8a   (beta ) ---     3a   (alpha)     3a   (beta )       -0.0566901642

 Parallel integral file used      16 records with       0 large values


 Task  times  cpu:        0.9s     wall:        1.0s


                                NWChem Input Module
                                -------------------


 Summary of allocated global arrays
-----------------------------------
  No active global arrays


MA_summarize_allocated_blocks: starting scan ...
MA_summarize_allocated_blocks: scan completed: 0 heap blocks, 0 stack blocks
MA usage statistics:

	allocation statistics:
					      heap	     stack
					      ----	     -----
	current number of blocks	         0	         0
	maximum number of blocks	        18	        42
	current total bytes		         0	         0
	maximum total bytes		  25775928	  45647544
	maximum total K-bytes		     25776	     45648
	maximum total M-bytes		        26	        46


                                     CITATION
                                     --------
                Please cite the following reference when publishing
                           results obtained with NWChem:

          E. Apra, E. J. Bylaska, W. A. de Jong, N. Govind, K. Kowalski,
       T. P. Straatsma, M. Valiev, H. J. J. van Dam, Y. Alexeev, J. Anchell,
       V. Anisimov, F. W. Aquino, R. Atta-Fynn, J. Autschbach, N. P. Bauman,
     J. C. Becca, D. E. Bernholdt, K. Bhaskaran-Nair, S. Bogatko, P. Borowski,
         J. Boschen, J. Brabec, A. Bruner, E. Cauet, Y. Chen, G. N. Chuev,
      C. J. Cramer, J. Daily, M. J. O. Deegan, T. H. Dunning Jr., M. Dupuis,
   K. G. Dyall, G. I. Fann, S. A. Fischer, A. Fonari, H. Fruchtl, L. Gagliardi,
      J. Garza, N. Gawande, S. Ghosh, K. Glaesemann, A. W. Gotz, J. Hammond,
       V. Helms, E. D. Hermes, K. Hirao, S. Hirata, M. Jacquelin, L. Jensen,
   B. G. Johnson, H. Jonsson, R. A. Kendall, M. Klemm, R. Kobayashi, V. Konkov,
      S. Krishnamoorthy, M. Krishnan, Z. Lin, R. D. Lins, R. J. Littlefield,
      A. J. Logsdail, K. Lopata, W. Ma, A. V. Marenich, J. Martin del Campo,
   D. Mejia-Rodriguez, J. E. Moore, J. M. Mullin, T. Nakajima, D. R. Nascimento,
    J. A. Nichols, P. J. Nichols, J. Nieplocha, A. Otero-de-la-Roza, B. Palmer,
    A. Panyala, T. Pirojsirikul, B. Peng, R. Peverati, J. Pittner, L. Pollack,
   R. M. Richard, P. Sadayappan, G. C. Schatz, W. A. Shelton, D. W. Silverstein,
   D. M. A. Smith, T. A. Soares, D. Song, M. Swart, H. L. Taylor, G. S. Thomas,
            V. Tipparaju, D. G. Truhlar, K. Tsemekhman, T. Van Voorhis,
      A. Vazquez-Mayagoitia, P. Verma, O. Villa, A. Vishnu, K. D. Vogiatzis,
        D. Wang, J. H. Weare, M. J. Williamson, T. L. Windus, K. Wolinski,
        A. T. Wong, Q. Wu, C. Yang, Q. Yu, M. Zacharias, Z. Zhang, Y. Zhao,
                                and R. J. Harrison
                        "NWChem: Past, present, and future
                         J. Chem. Phys. 152, 184102 (2020)
                               doi:10.1063/5.0004997

                                      AUTHORS
                                      -------
  E. Apra, E. J. Bylaska, N. Govind, K. Kowalski, M. Valiev, D. Mejia-Rodriguez,
       A. Kunitsa, N. P. Bauman, A. Panyala, W. A. de Jong, T. P. Straatsma,
        H. J. J. van Dam, D. Wang, T. L. Windus, J. Hammond, J. Autschbach,
    K. Bhaskaran-Nair, J. Brabec, K. Lopata, S. A. Fischer, S. Krishnamoorthy,
     M. Jacquelin, W. Ma, M. Klemm, O. Villa, Y. Chen, V. Anisimov, F. Aquino,
    S. Hirata, M. T. Hackler, Eric Hermes, L. Jensen, J. E. Moore, J. C. Becca,
      V. Konjkov, T. Risthaus, M. Malagoli, A. Marenich, A. Otero-de-la-Roza,
        J. Mullin, P. Nichols, R. Peverati, J. Pittner, Y. Zhao, P.-D. Fan,
        A. Fonari, M. J. Williamson, R. J. Harrison, J. R. Rehr, M. Dupuis,
     D. Silverstein, D. M. A. Smith, J. Nieplocha, V. Tipparaju, M. Krishnan,
     B. E. Van Kuiken, A. Vazquez-Mayagoitia, M. Swart, Q. Wu, T. Van Voorhis,
     A. A. Auer, M. Nooijen, L. D. Crosby, E. Brown, G. Cisneros, G. I. Fann,
   H. Fruchtl, J. Garza, K. Hirao, R. A. Kendall, J. A. Nichols, K. Tsemekhman,
    K. Wolinski, J. Anchell, D. E. Bernholdt, P. Borowski, T. Clark, D. Clerc,
   H. Dachsel, M. J. O. Deegan, K. Dyall, D. Elwood, E. Glendening, M. Gutowski,
   A. C. Hess, J. Jaffe, B. G. Johnson, J. Ju, R. Kobayashi, R. Kutteh, Z. Lin,
   R. Littlefield, X. Long, B. Meng, T. Nakajima, S. Niu, L. Pollack, M. Rosing,
   K. Glaesemann, G. Sandrone, M. Stave, H. Taylor, G. Thomas, J. H. van Lenthe,
                               A. T. Wong, Z. Zhang.

 Total times  cpu:       15.1s     wall:       19.3s
