 argument  1 = input.nw
  NWChem w/ OpenMP: maximum threads =    1



============================== echo of input deck ==============================
 echo
 start H2O
 title "H2O"

 memory total 24 gb

 geometry units bohr
 symmetry c1
        O  0.00000000  0.00000000  0.00000000
        H  0.00000000  1.8250155  0.00000000
        H  1.72558000 -0.64860000  0.00000000
 end

 basis spherical
   * library cc-pVDZ
 end

 scf
   vectors input h2o.mos
   vectors output h2o.mos
 end

 tce
   2eorb
   2emet 13
   ccsd
   maxiter 300
 end

# set tce:print_integrals T
# set tce:qorb 8
# set tce:qela 5
# set tce:qelb 5

 set tce:qducc T
 set tce:nactv 3
 set tce:nonhf T
 set tce:ducc_model 6

 set tce:printtol 0.02

 task tce
================================================================================


                                         
                                         


             Northwest Computational Chemistry Package (NWChem) 7.0.1
             --------------------------------------------------------


                    Environmental Molecular Sciences Laboratory
                       Pacific Northwest National Laboratory
                                Richland, WA 99352

                              Copyright (c) 1994-2020
                       Pacific Northwest National Laboratory
                            Battelle Memorial Institute

             NWChem is an open-source computational chemistry package
                        distributed under the terms of the
                      Educational Community License (ECL) 2.0
             A copy of the license is included with this distribution
                              in the LICENSE.TXT file

                                  ACKNOWLEDGMENT
                                  --------------

            This software and its documentation were developed at the
            EMSL at Pacific Northwest National Laboratory, a multiprogram
            national laboratory, operated for the U.S. Department of Energy
            by Battelle under Contract Number DE-AC05-76RL01830. Support
            for this work was provided by the Department of Energy Office
            of Biological and Environmental Research, Office of Basic
            Energy Sciences, and the Office of Advanced Scientific Computing.


           Job information
           ---------------

    hostname        = WE46210
    program         = /home/baum612/code/nwchem/bin/LINUX64/nwchem
    date            = Fri Sep  6 10:07:20 2024

    compiled        = Wed_Sep_04_02:00:17_2024
    source          = /home/baum612/code/nwchem
    nwchem branch   = 7.0.0
    nwchem revision = nwchem_on_git-4191-g39d87d64de
    ga revision     = 5.8.1
    use scalapack   = F
    input           = input.nw
    prefix          = H2O.
    data base       = ./H2O.db
    status          = startup
    nproc           =        1
    time left       =     -1s



           Memory information
           ------------------

    heap     =  805306366 doubles =   6144.0 Mbytes
    stack    =  805306363 doubles =   6144.0 Mbytes
    global   = 1610612736 doubles =  12288.0 Mbytes (distinct from heap & stack)
    total    = 3221225465 doubles =  24576.0 Mbytes
    verify   = yes
    hardfail = no 


           Directory information
           ---------------------

  0 permanent = .
  0 scratch   = .




                                NWChem Input Module
                                -------------------


                                        H2O
                                        ---
 Turning off AUTOSYM since
 SYMMETRY directive was detected!


          ------
          auto-z
          ------
  no constraints, skipping    0.0000000000000000     
  no constraints, skipping    0.0000000000000000     


                             Geometry "geometry" -> ""
                             -------------------------

 Output coordinates in a.u. (scale by  1.000000000 to convert to a.u.)

  No.       Tag          Charge          X              Y              Z
 ---- ---------------- ---------- -------------- -------------- --------------
    1 O                    8.0000    -0.17255800    -0.11764155     0.00000000
    2 H                    1.0000    -0.17255800     1.70737395     0.00000000
    3 H                    1.0000     1.55302200    -0.76624155     0.00000000

      Atomic Mass 
      ----------- 

      O                 15.994910
      H                  1.007825


 Effective nuclear repulsion energy (a.u.)       9.0547756949

            Nuclear Dipole moment (a.u.) 
            ----------------------------
        X                 Y               Z
 ---------------- ---------------- ----------------
    -0.0000000000     0.0000000000     0.0000000000



                                Z-matrix (autoz)
                                -------- 

 Units are Angstrom for bonds and degrees for angles

      Type          Name      I     J     K     L     M      Value
      ----------- --------  ----- ----- ----- ----- ----- ----------
    1 Stretch                  1     2                       0.96576
    2 Stretch                  1     3                       0.97551
    3 Bend                     2     1     3               110.59992


            XYZ format geometry
            -------------------
     3
 geometry
 O                    -0.09131377    -0.06225323     0.00000000
 H                    -0.09131377     0.90350345     0.00000000
 H                     0.82182391    -0.40547760     0.00000000

 ==============================================================================
                                internuclear distances
 ------------------------------------------------------------------------------
       center one      |      center two      | atomic units |       a.u.
 ------------------------------------------------------------------------------
    2 H                |   1 O                |     1.82502  |     1.82502
    3 H                |   1 O                |     1.84345  |     1.84345
 ------------------------------------------------------------------------------
                         number of included internuclear distances:          2
 ==============================================================================



 ==============================================================================
                                 internuclear angles
 ------------------------------------------------------------------------------
        center 1       |       center 2       |       center 3       |  degrees
 ------------------------------------------------------------------------------
    2 H                |   1 O                |   3 H                |   110.60
 ------------------------------------------------------------------------------
                            number of included internuclear angles:          1
 ==============================================================================





 Summary of "ao basis" -> "" (spherical)
 ------------------------------------------------------------------------------
       Tag                 Description            Shells   Functions and Types
 ---------------- ------------------------------  ------  ---------------------
 *                          cc-pVDZ                   on all atoms 


                      Basis "ao basis" -> "ao basis" (spherical)
                      -----
  O (Oxygen)
  ----------
            Exponent  Coefficients 
       -------------- ---------------------------------------------------------
  1 S  1.17200000E+04  0.000710
  1 S  1.75900000E+03  0.005470
  1 S  4.00800000E+02  0.027837
  1 S  1.13700000E+02  0.104800
  1 S  3.70300000E+01  0.283062
  1 S  1.32700000E+01  0.448719
  1 S  5.02500000E+00  0.270952
  1 S  1.01300000E+00  0.015458

  2 S  1.17200000E+04 -0.000160
  2 S  1.75900000E+03 -0.001263
  2 S  4.00800000E+02 -0.006267
  2 S  1.13700000E+02 -0.025716
  2 S  3.70300000E+01 -0.070924
  2 S  1.32700000E+01 -0.165411
  2 S  5.02500000E+00 -0.116955
  2 S  1.01300000E+00  0.557368

  3 S  3.02300000E-01  1.000000

  4 P  1.77000000E+01  0.043018
  4 P  3.85400000E+00  0.228913
  4 P  1.04600000E+00  0.508728

  5 P  2.75300000E-01  1.000000

  6 D  1.18500000E+00  1.000000

  H (Hydrogen)
  ------------
            Exponent  Coefficients 
       -------------- ---------------------------------------------------------
  1 S  1.30100000E+01  0.019685
  1 S  1.96200000E+00  0.137977
  1 S  4.44600000E-01  0.478148

  2 S  1.22000000E-01  1.000000

  3 P  7.27000000E-01  1.000000



 Summary of "ao basis" -> "ao basis" (spherical)
 ------------------------------------------------------------------------------
       Tag                 Description            Shells   Functions and Types
 ---------------- ------------------------------  ------  ---------------------
 O                          cc-pVDZ                  6       14   3s2p1d
 H                          cc-pVDZ                  3        5   2s1p


                                 NWChem SCF Module
                                 -----------------


                                        H2O



  ao basis        = "ao basis"
  functions       =    24
  atoms           =     3
  closed shells   =     5
  open shells     =     0
  charge          =   0.00
  wavefunction    = RHF 
  input vectors   = ./h2o.mos
  output vectors  = ./h2o.mos
  use symmetry    = F
  symmetry adapt  = F


 Summary of "ao basis" -> "ao basis" (spherical)
 ------------------------------------------------------------------------------
       Tag                 Description            Shells   Functions and Types
 ---------------- ------------------------------  ------  ---------------------
 O                          cc-pVDZ                  6       14   3s2p1d
 H                          cc-pVDZ                  3        5   2s1p



 Forming initial guess at       0.0s


 Loading old vectors from job with title :

H2O


 Starting SCF solution at       0.0s



 ----------------------------------------------
         Quadratically convergent ROHF

 Convergence threshold     :          1.000E-04
 Maximum no. of iterations :           30
 Final Fock-matrix accuracy:          1.000E-07
 ----------------------------------------------


 #quartets = 3.081D+03 #integrals = 2.131D+04 #direct =  0.0% #cached =100.0%


 Integral file          = ./H2O.aoints.0
 Record size in doubles =  65536        No. of integs per rec  =  43688
 Max. records in memory =      4        Max. records in file   = 232223
 No. of bits per label  =      8        No. of bits per value  =     64


              iter       energy          gnorm     gmax       time
             ----- ------------------- --------- --------- --------
                 1      -76.0245485484  1.07D-02  3.62D-03      0.1
                 2      -76.0245566223  4.11D-05  1.15D-05      0.1


       Final RHF  results 
       ------------------ 

         Total SCF energy =    -76.024556622258
      One-electron energy =   -122.920743478455
      Two-electron energy =     37.841411161326
 Nuclear repulsion energy =      9.054775694871

        Time for solution =      0.0s


             Final eigenvalues
             -----------------

              1      
    1  -20.5491
    2   -1.3253
    3   -0.7029
    4   -0.5518
    5   -0.4898
    6    0.1841
    7    0.2537
    8    0.8007
    9    0.8152
   10    1.1622
   11    1.2019
   12    1.2477
   13    1.4549
   14    1.4975
   15    1.7035

                       ROHF Final Molecular Orbital Analysis
                       -------------------------------------

 Vector    2  Occ=2.000000D+00  E=-1.325315D+00
              MO Center=  3.4D-02,  2.9D-02, -3.0D-18, r^2= 5.1D-01
   Bfn.  Coefficient  Atom+Function         Bfn.  Coefficient  Atom+Function  
  ----- ------------  ---------------      ----- ------------  ---------------
     2      0.444534  1 O  s                  3      0.389968  1 O  s          
    15      0.187572  2 H  s                 20      0.182347  3 H  s          

 Vector    3  Occ=2.000000D+00  E=-7.028991D-01
              MO Center=  8.8D-02,  5.7D-02,  4.1D-18, r^2= 7.9D-01
   Bfn.  Coefficient  Atom+Function         Bfn.  Coefficient  Atom+Function  
  ----- ------------  ---------------      ----- ------------  ---------------
     5      0.401263  1 O  py                15      0.330698  2 H  s          
    20     -0.326934  3 H  s                  4     -0.272386  1 O  px         
     8      0.178277  1 O  py         

 Vector    4  Occ=2.000000D+00  E=-5.517583D-01
              MO Center= -1.3D-01, -9.0D-02,  3.2D-17, r^2= 6.8D-01
   Bfn.  Coefficient  Atom+Function         Bfn.  Coefficient  Atom+Function  
  ----- ------------  ---------------      ----- ------------  ---------------
     4      0.455307  1 O  px                 3     -0.327366  1 O  s          
     7      0.316177  1 O  px                 5      0.311761  1 O  py         
     8      0.216650  1 O  py                20      0.198290  3 H  s          
    15      0.194008  2 H  s          

 Vector    5  Occ=2.000000D+00  E=-4.898488D-01
              MO Center= -7.3D-02, -5.0D-02, -2.7D-17, r^2= 6.0D-01
   Bfn.  Coefficient  Atom+Function         Bfn.  Coefficient  Atom+Function  
  ----- ------------  ---------------      ----- ------------  ---------------
     6      0.630760  1 O  pz                 9      0.497532  1 O  pz         

 Vector    6  Occ=0.000000D+00  E= 1.840950D-01
              MO Center=  4.8D-01,  3.0D-01,  4.9D-18, r^2= 3.0D+00
   Bfn.  Coefficient  Atom+Function         Bfn.  Coefficient  Atom+Function  
  ----- ------------  ---------------      ----- ------------  ---------------
     3      1.002404  1 O  s                 21     -0.840946  3 H  s          
    16     -0.813930  2 H  s                  7      0.274979  1 O  px         
     8      0.178109  1 O  py                 4      0.157972  1 O  px         

 Vector    7  Occ=0.000000D+00  E= 2.536712D-01
              MO Center=  4.7D-01,  3.6D-01,  1.6D-17, r^2= 3.7D+00
   Bfn.  Coefficient  Atom+Function         Bfn.  Coefficient  Atom+Function  
  ----- ------------  ---------------      ----- ------------  ---------------
    16      1.407256  2 H  s                 21     -1.378455  3 H  s          
     8     -0.558763  1 O  py                 7      0.383887  1 O  px         
     5     -0.234019  1 O  py                 4      0.160800  1 O  px         

 Vector    8  Occ=0.000000D+00  E= 8.006676D-01
              MO Center=  4.4D-01, -1.6D-01,  1.3D-18, r^2= 1.6D+00
   Bfn.  Coefficient  Atom+Function         Bfn.  Coefficient  Atom+Function  
  ----- ------------  ---------------      ----- ------------  ---------------
    20      1.148882  3 H  s                 21     -0.825701  3 H  s          
    15     -0.641444  2 H  s                 16      0.483627  2 H  s          
     8      0.323056  1 O  py                 7     -0.243616  1 O  px         
     4     -0.228942  1 O  px                22      0.219308  3 H  px         
     5      0.181021  1 O  py         

 Vector    9  Occ=0.000000D+00  E= 8.151756D-01
              MO Center=  1.5D-01,  5.5D-01,  4.5D-17, r^2= 1.5D+00
   Bfn.  Coefficient  Atom+Function         Bfn.  Coefficient  Atom+Function  
  ----- ------------  ---------------      ----- ------------  ---------------
    15      1.079718  2 H  s                 16     -0.722732  2 H  s          
    20      0.509429  3 H  s                 21     -0.322927  3 H  s          
    18      0.274913  2 H  py                 2     -0.226334  1 O  s          
     5     -0.222891  1 O  py                 3      0.220070  1 O  s          
    23     -0.206788  3 H  py                 4     -0.168989  1 O  px         

 Vector   10  Occ=0.000000D+00  E= 1.162160D+00
              MO Center= -9.1D-02, -7.4D-02, -4.9D-16, r^2= 1.2D+00
   Bfn.  Coefficient  Atom+Function         Bfn.  Coefficient  Atom+Function  
  ----- ------------  ---------------      ----- ------------  ---------------
     7      0.989982  1 O  px                 3      0.740883  1 O  s          
     8      0.730442  1 O  py                 4     -0.642906  1 O  px         
    15     -0.467673  2 H  s                  5     -0.461091  1 O  py         
    20     -0.449515  3 H  s                 22      0.262116  3 H  px         
    18      0.242184  2 H  py                16     -0.159840  2 H  s          

 Vector   11  Occ=0.000000D+00  E= 1.201878D+00
              MO Center= -8.0D-02, -6.1D-02,  3.1D-16, r^2= 1.1D+00
   Bfn.  Coefficient  Atom+Function         Bfn.  Coefficient  Atom+Function  
  ----- ------------  ---------------      ----- ------------  ---------------
     9     -1.015575  1 O  pz                 6      0.968194  1 O  pz         

 Vector   12  Occ=0.000000D+00  E= 1.247696D+00
              MO Center= -1.1D-01, -6.1D-02,  6.2D-16, r^2= 1.7D+00
   Bfn.  Coefficient  Atom+Function         Bfn.  Coefficient  Atom+Function  
  ----- ------------  ---------------      ----- ------------  ---------------
     8      1.441281  1 O  py                 7     -1.028554  1 O  px         
    16     -0.784362  2 H  s                 21      0.781390  3 H  s          
     5     -0.577688  1 O  py                 4      0.423430  1 O  px         
    20      0.407424  3 H  s                 15     -0.393064  2 H  s          
    18      0.352045  2 H  py                22     -0.309248  3 H  px         

 Vector   13  Occ=0.000000D+00  E= 1.454881D+00
              MO Center=  3.3D-01,  2.2D-01, -5.5D-16, r^2= 1.1D+00
   Bfn.  Coefficient  Atom+Function         Bfn.  Coefficient  Atom+Function  
  ----- ------------  ---------------      ----- ------------  ---------------
    24     -0.683194  3 H  pz                19      0.677256  2 H  pz         

 Vector   14  Occ=0.000000D+00  E= 1.497542D+00
              MO Center=  2.0D-02,  1.1D-02,  1.8D-17, r^2= 1.4D+00
   Bfn.  Coefficient  Atom+Function         Bfn.  Coefficient  Atom+Function  
  ----- ------------  ---------------      ----- ------------  ---------------
     3      0.824495  1 O  s                  2     -0.667256  1 O  s          
    17      0.617077  2 H  px                23      0.535017  3 H  py         
     7     -0.532015  1 O  px                 8     -0.371830  1 O  py         
    22      0.329188  3 H  px                 1     -0.267340  1 O  s          
    16     -0.249986  2 H  s                 21     -0.247098  3 H  s          

 Vector   15  Occ=0.000000D+00  E= 1.703511D+00
              MO Center=  2.2D-01,  1.6D-01,  2.1D-16, r^2= 1.3D+00
   Bfn.  Coefficient  Atom+Function         Bfn.  Coefficient  Atom+Function  
  ----- ------------  ---------------      ----- ------------  ---------------
    19      0.776462  2 H  pz                24      0.768585  3 H  pz         
     9     -0.644671  1 O  pz         


 center of mass
 --------------
 x =  -0.07599894 y =  -0.05181234 z =   0.00000000

 moments of inertia (a.u.)
 ------------------
           3.702669463345           1.242451454841           0.000000000000
           1.242451454841           2.833002082974           0.000000000000
           0.000000000000           0.000000000000           6.535671546319

  Mulliken analysis of the total density
  --------------------------------------

    Atom       Charge   Shell Charges
 -----------   ------   -------------------------------------------------------
    1 O    8     8.34   2.00  0.83  0.83  2.82  1.84  0.01
    2 H    1     0.83   0.68  0.07  0.08
    3 H    1     0.83   0.67  0.07  0.08

       Multipole analysis of the density wrt the origin
       ------------------------------------------------

     L   x y z        total         open         nuclear
     -   - - -        -----         ----         -------
     0   0 0 0      0.000000      0.000000     10.000000

     1   1 0 0      0.639693      0.000000     -0.000000
     1   0 1 0      0.438796      0.000000      0.000000
     1   0 0 1     -0.000000      0.000000      0.000000

     2   2 0 0     -3.954200      0.000000      2.679864
     2   1 1 0     -0.780030      0.000000     -1.322211
     2   1 0 1      0.000000      0.000000      0.000000
     2   0 2 0     -3.388732      0.000000      3.612968
     2   0 1 1     -0.000000      0.000000      0.000000
     2   0 0 2     -5.256231      0.000000      0.000000


 Parallel integral file used       1 records with       0 large values

                   NWChem Extensible Many-Electron Theory Module
                   ---------------------------------------------

              ======================================================
                   This portion of the program was automatically
                  generated by a Tensor Contraction Engine (TCE).
                  The development of this portion of the program
                 and TCE was supported by US Department of Energy,
                Office of Science, Office of Basic Energy Science.
                      TCE is a product of Battelle and PNNL.
              Please cite: S.Hirata, J.Phys.Chem.A 107, 9887 (2003).
              ======================================================

                                        H2O


            General Information
            -------------------
      Number of processors :     1
         Wavefunction type : Restricted Hartree-Fock
          No. of electrons :    10
           Alpha electrons :     5
            Beta electrons :     5
           No. of orbitals :    48
            Alpha orbitals :    24
             Beta orbitals :    24
        Alpha frozen cores :     0
         Beta frozen cores :     0
     Alpha frozen virtuals :     0
      Beta frozen virtuals :     0
         Spin multiplicity : singlet 
    Number of AO functions :    24
       Number of AO shells :    12
        Use of symmetry is : off
      Symmetry adaption is : off
         Schwarz screening : 0.10D-09

          Correlation Information
          -----------------------
          Calculation type : Coupled-cluster singles & doubles                           
   Perturbative correction : none                                                        
            Max iterations :      300
        Residual threshold : 0.10D-06
     T(0) DIIS level shift : 0.00D+00
     L(0) DIIS level shift : 0.00D+00
     T(1) DIIS level shift : 0.00D+00
     L(1) DIIS level shift : 0.00D+00
     T(R) DIIS level shift : 0.00D+00
     T(I) DIIS level shift : 0.00D+00
   CC-T/L Amplitude update :  5-th order DIIS
                I/O scheme : Global Array Library
        L-threshold :  0.10D-06
        EOM-threshold :  0.10D-06
 no EOMCCSD initial starts read in
 TCE RESTART OPTIONS
 READ_INT:   F
 WRITE_INT:  F
 READ_TA:    F
 WRITE_TA:   F
 READ_XA:    F
 WRITE_XA:   F
 READ_IN3:   F
 WRITE_IN3:  F
 SLICE:      F
 D4D5:       F
 quantumc:   F
 qrotation:  F
 pwtce:      F
 qducc:      T
 nacto:                         0
 nrotv:                         0
 nrot:                          0

            Memory Information
            ------------------
          Available GA space size is    1610612160 doubles
          Available MA space size is    1610610956 doubles

 Maximum block size        32 doubles

 tile_dim =     19

 Block   Spin    Irrep     Size     Offset   Alpha
 -------------------------------------------------
   1    alpha     a      5 doubles       0       1
   2    beta      a      5 doubles       5       1
   3    alpha     a     19 doubles      10       3
   4    beta      a     19 doubles      29       3

 Global array virtual files algorithm will be used

 Parallel file system coherency ......... OK

 #quartets = 3.081D+03 #integrals = 2.131D+04 #direct =  0.0% #cached =100.0%


 Integral file          = ./H2O.aoints.0
 Record size in doubles =  65536        No. of integs per rec  =  43688
 Max. records in memory =      4        Max. records in file   = 232223
 No. of bits per label  =      8        No. of bits per value  =     64


 Fock matrix recomputed
 1-e file size   =              576
 1-e file name   = ./H2O.f1
 Cpu & wall time / sec            0.0            0.0
 4-electron integrals stored in orbital form

 v2    file size   =           185666
 4-index algorithm nr.  13 is used
 imaxsize =       30
 imaxsize ichop =        0
 Cpu & wall time / sec            0.1            0.1
 T1-number-of-tasks                    1

 t1 file size   =               95
 t1 file name   = ./H2O.t1
 t1 file handle =       -998
 T2-number-of-boxes                    2

 t2 file size   =            18050
 t2 file name   = ./H2O.t2
 t2 file handle =       -996
CCSD iterations
 ---------------------------------------------------------
 Iter          Residuum       Correlation     Cpu    Wall 
 ---------------------------------------------------------
NEW TASK SCHEDULING
CCSD_T1_NTS --- OK
CCSD_T2_NTS --- OK
    1   0.1075478105734  -0.2043472272959     0.0     0.0
    2   0.0299090633260  -0.2098240217942     0.0     0.0
    3   0.0108127749354  -0.2126083053657     0.0     0.0
    4   0.0043371912350  -0.2133030278780     0.0     0.0
    5   0.0018192633857  -0.2135694250195     0.0     0.0
 MICROCYCLE DIIS UPDATE:                    5                    5
    6   0.0002084418488  -0.2137288585678     0.0     0.0
    7   0.0001000339706  -0.2137371810686     0.0     0.0
    8   0.0000461130536  -0.2137375439040     0.0     0.0
    9   0.0000266028555  -0.2137375967794     0.0     0.0
   10   0.0000147601488  -0.2137377601056     0.0     0.0
 MICROCYCLE DIIS UPDATE:                   10                    5
   11   0.0000016930500  -0.2137380697421     0.0     0.0
   12   0.0000006414951  -0.2137379836171     0.0     0.0
   13   0.0000002895690  -0.2137379947236     0.0     0.0
   14   0.0000001541422  -0.2137379917152     0.0     0.0
   15   0.0000000812288  -0.2137379909466     0.0     0.0
 -----------------------------------------------------------------
 Iterations converged
 CCSD correlation energy / hartree =        -0.213737990946583
 CCSD total energy / hartree       =       -76.238294613204246

 Singles contributions

 Doubles contributions
    10a   (alpha)    11a   (alpha) ---     4a   (alpha)     5a   (alpha)        0.0209966820
    10a   (alpha)    11a   (alpha) ---     5a   (alpha)     4a   (alpha)       -0.0209966820
    11a   (alpha)    10a   (alpha) ---     4a   (alpha)     5a   (alpha)       -0.0209966820
    11a   (alpha)    10a   (alpha) ---     5a   (alpha)     4a   (alpha)        0.0209966820
     7a   (alpha)     7a   (beta ) ---     3a   (alpha)     3a   (beta )       -0.0292517257
     7a   (alpha)     8a   (beta ) ---     3a   (alpha)     3a   (beta )        0.0202964129
     7a   (alpha)    11a   (beta ) ---     3a   (alpha)     5a   (beta )        0.0217124525
     8a   (alpha)     7a   (beta ) ---     3a   (alpha)     3a   (beta )        0.0202964129
     8a   (alpha)     8a   (beta ) ---     3a   (alpha)     3a   (beta )       -0.0354880940
     8a   (alpha)     8a   (beta ) ---     4a   (alpha)     4a   (beta )       -0.0241314118
     9a   (alpha)     9a   (beta ) ---     3a   (alpha)     3a   (beta )       -0.0313312390
    10a   (alpha)    10a   (beta ) ---     4a   (alpha)     4a   (beta )       -0.0376766951
    10a   (alpha)    11a   (beta ) ---     4a   (alpha)     5a   (beta )        0.0297214922
    11a   (alpha)     7a   (beta ) ---     5a   (alpha)     3a   (beta )        0.0217124525
    11a   (alpha)    10a   (beta ) ---     5a   (alpha)     4a   (beta )        0.0297214922
    11a   (alpha)    11a   (beta ) ---     5a   (alpha)     5a   (beta )       -0.0514748854
    11a   (alpha)    12a   (beta ) ---     5a   (alpha)     3a   (beta )        0.0220765158
    12a   (alpha)    11a   (beta ) ---     3a   (alpha)     5a   (beta )        0.0220765158
    12a   (alpha)    12a   (beta ) ---     3a   (alpha)     3a   (beta )       -0.0216151212
 Ground state specification:
 exp(T)|Ref>~(1+T)|Ref>
 ------- a(p)+/a(q) strings ----------

 singles norm

 doubles norm

 Reference string
   1.0000000000000000      :(1a)+ (2a)+ (3a)+ (4a)+ (5a)+ (1b)+ (2b)+ (3b)+ (4b)+ (5b)+ |0>

 Singles strings

 Doubles strings
 -------------------------------------
 enrep_tce =    9.0547756948714522     
  EHF(total)         =       -76.02455662
  Shift (HFtot-HFA)  =         0.00000000
 ALL OCCUPIED ORBITALS ARE ACTIVE IN DUCC --> NO SHIFT
 Number of active orbitals                    8
 Number of active alpha electrons                    5
 Number of active beta electrons                    5
  nos                    10
  nvs                    38
 noas                     5
 nobs                     5
 nvas                    19
 nvbs                    19
 nactv                     3
 DUCC MODEL =                     6
 NONHF =  T
 F-T1 correlation    =    2.4778791640343692E-009
 V-T1-T1 correlation =    1.6623647934264899E-005
 V-T2 correlation    =  -0.21375461707238014     
 Total correlation   =  -0.21373799094656670     
 F-T1(Ext) correlation         =   -2.4174373957938907E-008
 V-T1(Ext)-T1(Ext) correlation =    4.7309916181104920E-006
 V-T2(Ext) correlation         =  -0.19795509598218769     
 Total Ext correlation         =  -0.19795038916494354     
1-BODY TIME =    1.821 SECONDS.
  HHHH TIME =    2.113 SECONDS.
  PPPP TIME =    0.029 SECONDS.
  HHHP TIME =    0.608 SECONDS.
  PPPH TIME =    0.082 SECONDS.
  HPHP TIME =    0.356 SECONDS.
  HHPP TIME =    0.325 SECONDS.
 ONE-BODY UNITARY CHECK
 TWO-BODY UNITARY CHECK
                    2                    2                    2                    4   2.1184083477463031E-012
                    2                    2                    3                    4  -1.5555368722677209E-012
                    2                    2                    4                    2  -2.1184089908031288E-012
                    2                    2                    4                    3   1.5555371286308451E-012
                    2                    3                    3                    4   7.7611068613481216E-012
                    2                    3                    4                    3  -7.7243012333583216E-012
                    2                    4                    2                    2  -2.1184083477463031E-012
                    2                    4                    3                    2  -2.0994329321885608E-012
                    2                    5                    4                    5  -8.6301486790230086E-012
                    2                    5                    5                    2   1.9609869283954140E-012
                    2                    5                    5                    4   7.8154097776783615E-012
                    2                    7                    2                    9   1.7433676030575995E-012
                    2                    7                    3                    7  -4.4293080488089220E-012
                    2                    7                    3                    8  -8.6892992801068658E-012
                    2                    7                    3                    9   8.6496437724965791E-012
                    2                    7                    4                    7  -1.2190852494153859E-011
                    2                    7                    4                    8   3.1465185817113051E-012
                    2                    7                    4                    9  -2.4017454691716011E-012
                    2                    7                    8                    2   4.0514085142273615E-012
                    2                    7                    8                    3   8.6892992801068658E-012
                    2                    7                    8                    4  -1.0205178661761710E-011
                    2                    7                    9                    2   1.0072413389461410E-011
                    2                    7                    9                    3  -1.5909827708743274E-012
                    2                    7                    9                    4   2.4017454691716011E-012
                    2                    8                    3                    7  -8.1823436914874037E-012
                    2                    8                    3                    8  -6.9796414741557511E-012
                    2                    8                    3                    9  -8.1608921009834745E-012
                    2                    8                    4                    7   1.7244488850114495E-012
                    2                    8                    4                    8  -1.8815792673931853E-011
                    2                    8                    7                    4  -1.3924748940713494E-012
                    2                    8                    8                    2   9.0356611082142990E-012
                    2                    8                    8                    3   6.8066408629233188E-012
                    2                    8                    8                    4   1.5921951257436007E-011
                    2                    8                    9                    2  -1.7986736232378231E-012
                    2                    8                    9                    3   1.1091582513556020E-011
                    2                    9                    2                    7  -1.7433676030575995E-012
                    2                    9                    3                    7   5.1499236326151346E-012
                    2                    9                    3                    8  -1.0427443630778299E-011
                    2                    9                    3                    9  -7.7746292476837953E-012
                    2                    9                    4                    7  -2.2481599915025186E-012
                    2                    9                    4                    8  -2.3951266317490116E-012
                    2                    9                    4                    9  -2.4846721902171964E-011
                    2                    9                    5                   10  -6.5384919700761657E-012
                    2                    9                    7                    3   1.3924759105108861E-012
                    2                    9                    8                    2  -7.2493588822858390E-012
                    2                    9                    8                    3   1.1150479845012384E-011
                    2                    9                    8                    4   6.9538246688649608E-012
                    2                    9                    9                    2   2.5681679005629121E-012
                    2                    9                    9                    3   2.0857519270750524E-012
                    2                    9                    9                    4   2.4140023313634629E-011
                    2                    9                   10                    5   6.3984616216483658E-012
                    2                   10                    3                   10  -5.8364458963488727E-012
                    2                   10                    4                   10  -1.5784623608183779E-011
                    2                   10                    5                    9  -4.4411384292342149E-012
                    2                   10                    8                    5   5.5049828627876107E-012
                    2                   10                    9                    5   7.1542910484723166E-012
                    2                   10                   10                    2   1.4042100815458980E-012
                    2                   10                   10                    4   1.2256751169559266E-011
                    3                    2                    2                    4   2.0994329321885608E-012
                    3                    2                    4                    2  -1.5525329502899532E-012
                    3                    3                    3                    4   8.9509927756576094E-012
                    3                    3                    4                    3  -8.9509922837564602E-012
                    3                    4                    2                    2   1.5555368722677209E-012
                    3                    4                    2                    3  -7.7611068613481216E-012
                    3                    4                    3                    3  -8.9509927756576094E-012
                    3                    4                    4                    2  -1.4616292117602958E-012
                    3                    4                    4                    3  -2.0968782266095332E-012
                    3                    4                    4                    4   1.7093963582518458E-012
                    3                    5                    4                    5  -6.4501659222115926E-012
                    3                    5                    5                    2  -1.5919890731207198E-012
                    3                    5                    5                    4   8.3069073538236116E-012
                    3                    6                    3                    8   1.0808733465553222E-012
                    3                    7                    2                    7   4.4293080488089220E-012
                    3                    7                    2                    8   8.1823436914874037E-012
                    3                    7                    2                    9  -5.1499236326151346E-012
                    3                    7                    3                    8   3.7150635215713046E-012
                    3                    7                    4                    7  -6.3704833509065084E-012
                    3                    7                    4                    8  -1.3196700676676443E-012
                    3                    7                    4                    9   7.5109666750061699E-012
                    3                    7                    5                   10   6.5435478216469001E-012
                    3                    7                    7                    2  -4.0514065626634510E-012
                    3                    7                    7                    3  -9.0356611082142990E-012
                    3                    7                    7                    4   7.2493562802006251E-012
                    3                    7                    8                    3  -3.5420648619027828E-012
                    3                    7                    8                    4  -1.6110376921396607E-012
                    3                    7                    9                    2   4.8179492893093284E-012
                    3                    7                    9                    3   1.9145414420496110E-012
                    3                    7                    9                    4  -7.6174986457511196E-012
                    3                    7                   10                    5  -6.7416777455725496E-012
                    3                    8                    2                    7   8.6892992801068658E-012
                    3                    8                    2                    8   6.9796414741557511E-012
                    3                    8                    2                    9   1.0427443630778299E-011
                    3                    8                    3                    6  -1.0808733465553222E-012
                    3                    8                    3                    7  -3.7150635215713046E-012
                    3                    8                    3                    9   5.5296634242016363E-012
                    3                    8                    4                    7  -1.3552457767129766E-012
                    3                    8                    4                    8  -7.8796488648183449E-012
                    3                    8                    4                    9   2.5901988887078176E-012
                    3                    8                    5                   10   6.1562074882282047E-012
                    3                    8                    7                    2  -8.6892992801068658E-012
                    3                    8                    7                    3  -6.8066377187370186E-012
                    3                    8                    7                    4  -1.1150476375565432E-011
                    3                    8                    8                    2   3.5420626934984378E-012
                    3                    8                    8                    4   3.4213399257784771E-012
                    3                    8                    9                    2   2.0782785215001098E-012
                    3                    8                    9                    3  -1.0713478715285163E-012
                    3                    8                    9                    4  -2.5901850109200097E-012
                    3                    8                   10                    5  -6.1562074882282047E-012
                    3                    9                    2                    7  -8.6496437724965791E-012
                    3                    9                    2                    8   8.1608921009834745E-012
                    3                    9                    2                    9   7.7746292476837953E-012
                    3                    9                    3                    8  -5.5296634242016363E-012
                    3                    9                    4                    7   4.5427990796181872E-012
                    3                    9                    4                    8   1.0324102683867409E-012
                    3                    9                    4                    9  -2.4238457649403827E-011
                    3                    9                    5                   10  -1.0300532047322411E-011
                    3                    9                    7                    2   1.0205179203862796E-011
                    3                    9                    7                    3  -1.5921963400500339E-011
                    3                    9                    7                    4  -6.9538257530671332E-012
                    3                    9                    8                    2   1.6110619782683244E-012
                    3                    9                    8                    3  -3.4213253974693658E-012
                    3                    9                    9                    2  -6.0044318692456522E-012
                    3                    9                    9                    3  -3.1297187064183163E-012
                    3                    9                    9                    4   2.5947856114195283E-011
                    3                    9                   10                    5   1.0720368704047795E-011
                    3                   10                    2                   10   5.8364458963488727E-012
                    3                   10                    4                   10  -1.1475724884246752E-011
                    3                   10                    5                    7   5.2974256925519825E-012
                    3                   10                    5                    9  -6.1430033152301555E-012
                    3                   10                    7                    5  -5.5049836217291315E-012
                    3                   10                    9                    5   5.0255589620351593E-012
                    3                   10                   10                    2  -6.8894127870037375E-012
                    3                   10                   10                    3  -1.2672085603071537E-012
                    3                   10                   10                    4   1.4449910018532464E-011
                    4                    2                    2                    2   2.1184089908031288E-012
                    4                    2                    3                    2   1.5525329502899532E-012
                    4                    2                    3                    4   1.4616292117602958E-012
                    4                    3                    2                    2  -1.5555371286308451E-012
                    4                    3                    2                    3   7.7243012333583216E-012
                    4                    3                    3                    3   8.9509922837564602E-012
                    4                    3                    3                    4   2.0968782266095332E-012
                    4                    3                    4                    4  -1.7093991018047969E-012
                    4                    4                    3                    4  -1.7093963582518458E-012
                    4                    4                    4                    3   1.7093991018047969E-012
                    4                    5                    2                    5   8.6301486790230086E-012
                    4                    5                    3                    5   6.4501659222115926E-012
                    4                    7                    2                    7   1.2190852494153859E-011
                    4                    7                    2                    8  -1.7244488850114495E-012
                    4                    7                    2                    9   2.2481599915025186E-012
                    4                    7                    3                    7   6.3704833509065084E-012
                    4                    7                    3                    8   1.3552457767129766E-012
                    4                    7                    3                    9  -4.5427990796181872E-012
                    4                    7                    4                    9   1.1837475444309575E-012
                    4                    7                    5                   10   4.5488474098576148E-012
                    4                    7                    7                    2  -1.0072441145037025E-011
                    4                    7                    7                    3   1.7986719969345644E-012
                    4                    7                    7                    4  -2.5681679005629121E-012
                    4                    7                    8                    2  -4.8179513628459833E-012
                    4                    7                    8                    3  -2.0783028076287735E-012
                    4                    7                    8                    4   6.0044297008413072E-012
                    4                    7                   10                    5  -4.4088170614298150E-012
                    4                    8                    2                    7  -3.1465185817113051E-012
                    4                    8                    2                    8   1.8815792673931853E-011
                    4                    8                    2                    9   2.3951266317490116E-012
                    4                    8                    3                    7   1.3196700676676443E-012
                    4                    8                    3                    8   7.8796488648183449E-012
                    4                    8                    3                    9  -1.0324102683867409E-012
                    4                    8                    4                    9  -1.5091723985956318E-012
                    4                    8                    5                   10  -1.9955436093713544E-012
                    4                    8                    7                    2   1.5909822287732411E-012
                    4                    8                    7                    3  -1.1091603330237731E-011
                    4                    8                    7                    4  -2.0857536617985284E-012
                    4                    8                    8                    2  -1.9145501156669908E-012
                    4                    8                    8                    3   1.0713420168367849E-012
                    4                    8                    8                    4   3.1297187064183163E-012
                    4                    8                   10                    5   1.5757068510020172E-012
                    4                    9                    2                    7   2.4017454691716011E-012
                    4                    9                    2                    9   2.4846721902171964E-011
                    4                    9                    3                    7  -7.5109666750061699E-012
                    4                    9                    3                    8  -2.5901988887078176E-012
                    4                    9                    3                    9   2.4238457649403827E-011
                    4                    9                    4                    7  -1.1837475444309575E-012
                    4                    9                    4                    8   1.5091723985956318E-012
                    4                    9                    7                    2  -2.4017454691716011E-012
                    4                    9                    7                    4  -2.4139953924695590E-011
                    4                    9                    8                    2   7.6174901889741742E-012
                    4                    9                    8                    3   2.5901711331322019E-012
                    4                    9                    8                    4  -2.5947855680514414E-011
                    4                   10                    2                   10   1.5784623608183779E-011
                    4                   10                    3                   10   1.1475724884246752E-011
                    4                   10                    5                    7   2.6515040163488379E-012
                    4                   10                    7                    5  -7.1542494151088931E-012
                    4                   10                    8                    5  -5.0255594499261369E-012
                    4                   10                   10                    2  -3.1743149775387280E-012
                    5                    2                    2                    5  -1.9609869283954140E-012
                    5                    2                    3                    5   1.5919890731207198E-012
                    5                    3                    5                    4  -1.6666043545221498E-012
                    5                    4                    2                    5  -7.8154097776783615E-012
                    5                    4                    3                    5  -8.3069073538236116E-012
                    5                    4                    5                    3   1.6666043545221498E-012
                    5                    7                    3                   10  -5.2974256925519825E-012
                    5                    7                    4                   10  -2.6515040163488379E-012
                    5                    7                    5                    8  -1.1765574679887397E-012
                    5                    7                    7                    5  -1.4042100815458980E-012
                    5                    7                    8                    5   6.8894140473887630E-012
                    5                    7                    9                    5   3.1743288553265359E-012
                    5                    8                    5                    7   1.1765574679887397E-012
                    5                    8                    5                    9  -2.2877843283003463E-012
                    5                    8                    8                    5   1.2672085603071537E-012
                    5                    9                    2                   10   4.4411384292342149E-012
                    5                    9                    3                   10   6.1430033152301555E-012
                    5                    9                    5                    8   2.2877843283003463E-012
                    5                    9                    7                    5  -1.2256771986240977E-011
                    5                    9                    8                    5  -1.4449912837458112E-011
                    5                   10                    2                    9   6.5384919700761657E-012
                    5                   10                    3                    7  -6.5435478216469001E-012
                    5                   10                    3                    8  -6.1562074882282047E-012
                    5                   10                    3                    9   1.0300532047322411E-011
                    5                   10                    4                    7  -4.5488474098576148E-012
                    5                   10                    4                    8   1.9955436093713544E-012
                    5                   10                    7                    4  -6.3984373355197022E-012
                    5                   10                    8                    2   6.7416846844664535E-012
                    5                   10                    8                    3   6.1562074882282047E-012
                    5                   10                    8                    4  -1.0720368407586263E-011
                    5                   10                    9                    2   4.4087927753011513E-012
                    5                   10                    9                    3  -1.5757065587756504E-012
                    7                    2                    3                    7   4.0514065626634510E-012
                    7                    2                    3                    8   8.6892992801068658E-012
                    7                    2                    3                    9  -1.0205179203862796E-011
                    7                    2                    4                    7   1.0072441145037025E-011
                    7                    2                    4                    8  -1.5909822287732411E-012
                    7                    2                    4                    9   2.4017454691716011E-012
                    7                    2                    7                    4   1.7433363780350319E-012
                    7                    2                    8                    2  -4.4293132529793500E-012
                    7                    2                    8                    3  -8.6892992801068658E-012
                    7                    2                    8                    4   8.6496424172438635E-012
                    7                    2                    9                    2  -1.2190823003854767E-011
                    7                    2                    9                    3   3.1465176601394584E-012
                    7                    2                    9                    4  -2.4017454691716011E-012
                    7                    3                    2                    9  -1.3924759105108861E-012
                    7                    3                    3                    7   9.0356611082142990E-012
                    7                    3                    3                    8   6.8066377187370186E-012
                    7                    3                    3                    9   1.5921963400500339E-011
                    7                    3                    4                    7  -1.7986719969345644E-012
                    7                    3                    4                    8   1.1091603330237731E-011
                    7                    3                    8                    2  -8.1823992026386350E-012
                    7                    3                    8                    3  -6.9796389804907544E-012
                    7                    3                    8                    4  -8.1609163871121382E-012
                    7                    3                    9                    2   1.7244496439529702E-012
                    7                    3                    9                    3  -1.8815804816996184E-011
                    7                    4                    2                    8   1.3924748940713494E-012
                    7                    4                    3                    7  -7.2493562802006251E-012
                    7                    4                    3                    8   1.1150476375565432E-011
                    7                    4                    3                    9   6.9538257530671332E-012
                    7                    4                    4                    7   2.5681679005629121E-012
                    7                    4                    4                    8   2.0857536617985284E-012
                    7                    4                    4                    9   2.4139953924695590E-011
                    7                    4                    5                   10   6.3984373355197022E-012
                    7                    4                    7                    2  -1.7433363780350319E-012
                    7                    4                    8                    2   5.1499247845799428E-012
                    7                    4                    8                    3  -1.0427457508566107E-011
                    7                    4                    8                    4  -7.7746291392635780E-012
                    7                    4                    9                    2  -2.2481322359269029E-012
                    7                    4                    9                    3  -2.3951279327916186E-012
                    7                    4                    9                    4  -2.4846652513232925E-011
                    7                    4                   10                    5  -6.5384676839475020E-012
                    7                    5                    3                   10   5.5049836217291315E-012
                    7                    5                    4                   10   7.1542494151088931E-012
                    7                    5                    5                    7   1.4042100815458980E-012
                    7                    5                    5                    9   1.2256771986240977E-011
                    7                    5                    8                    5  -5.8364471702864254E-012
                    7                    5                    9                    5  -1.5784644424865490E-011
                    7                    5                   10                    4  -4.4410967958707914E-012
                    7                    7                    7                    9   2.1184101943358547E-012
                    7                    7                    8                    9  -1.5555367149344012E-012
                    7                    7                    9                    7  -2.1184096956187372E-012
                    7                    7                    9                    8   1.5555370226522065E-012
                    7                    8                    8                    9   7.7611059939863836E-012
                    7                    8                    9                    8  -7.7242968965496317E-012
                    7                    9                    7                    7  -2.1184101943358547E-012
                    7                    9                    8                    7  -2.0994348837524712E-012
                    7                   10                    9                   10  -8.6301365359586768E-012
                    7                   10                   10                    7   1.9609869283954140E-012
                    7                   10                   10                    9   7.8153985019757677E-012
                    8                    1                    8                    3   1.0808734143179580E-012
                    8                    2                    2                    7  -4.0514085142273615E-012
                    8                    2                    2                    8  -9.0356611082142990E-012
                    8                    2                    2                    9   7.2493588822858390E-012
                    8                    2                    3                    8  -3.5420626934984378E-012
                    8                    2                    3                    9  -1.6110619782683244E-012
                    8                    2                    4                    7   4.8179513628459833E-012
                    8                    2                    4                    8   1.9145501156669908E-012
                    8                    2                    4                    9  -7.6174901889741742E-012
                    8                    2                    5                   10  -6.7416846844664535E-012
                    8                    2                    7                    2   4.4293132529793500E-012
                    8                    2                    7                    3   8.1823992026386350E-012
                    8                    2                    7                    4  -5.1499247845799428E-012
                    8                    2                    8                    3   3.7150611363265251E-012
                    8                    2                    9                    2  -6.3704836761671602E-012
                    8                    2                    9                    3  -1.3196353731981247E-012
                    8                    2                    9                    4   7.5109642897613904E-012
                    8                    2                   10                    5   6.5435579047271042E-012
                    8                    3                    2                    7  -8.6892992801068658E-012
                    8                    3                    2                    8  -6.8066408629233188E-012
                    8                    3                    2                    9  -1.1150479845012384E-011
                    8                    3                    3                    7   3.5420648619027828E-012
                    8                    3                    3                    9   3.4213253974693658E-012
                    8                    3                    4                    7   2.0783028076287735E-012
                    8                    3                    4                    8  -1.0713420168367849E-012
                    8                    3                    4                    9  -2.5901711331322019E-012
                    8                    3                    5                   10  -6.1562074882282047E-012
                    8                    3                    7                    2   8.6892992801068658E-012
                    8                    3                    7                    3   6.9796389804907544E-012
                    8                    3                    7                    4   1.0427457508566107E-011
                    8                    3                    8                    1  -1.0808734143179580E-012
                    8                    3                    8                    2  -3.7150611363265251E-012
                    8                    3                    8                    4   5.5296520400788252E-012
                    8                    3                    9                    2  -1.3552076127965051E-012
                    8                    3                    9                    3  -7.8796419259244410E-012
                    8                    3                    9                    4   2.5901572553443941E-012
                    8                    3                   10                    5   6.1562005493343008E-012
                    8                    4                    2                    7   1.0205178661761710E-011
                    8                    4                    2                    8  -1.5921951257436007E-011
                    8                    4                    2                    9  -6.9538246688649608E-012
                    8                    4                    3                    7   1.6110376921396607E-012
                    8                    4                    3                    8  -3.4213399257784771E-012
                    8                    4                    4                    7  -6.0044297008413072E-012
                    8                    4                    4                    8  -3.1297187064183163E-012
                    8                    4                    4                    9   2.5947855680514414E-011
                    8                    4                    5                   10   1.0720368407586263E-011
                    8                    4                    7                    2  -8.6496424172438635E-012
                    8                    4                    7                    3   8.1609163871121382E-012
                    8                    4                    7                    4   7.7746291392635780E-012
                    8                    4                    8                    3  -5.5296520400788252E-012
                    8                    4                    9                    2   4.5427969112138422E-012
                    8                    4                    9                    3   1.0324796573257800E-012
                    8                    4                    9                    4  -2.4238457974664479E-011
                    8                    4                   10                    5  -1.0300531737308352E-011
                    8                    5                    2                   10  -5.5049828627876107E-012
                    8                    5                    4                   10   5.0255594499261369E-012
                    8                    5                    5                    7  -6.8894140473887630E-012
                    8                    5                    5                    8  -1.2672085603071537E-012
                    8                    5                    5                    9   1.4449912837458112E-011
                    8                    5                    7                    5   5.8364471702864254E-012
                    8                    5                    9                    5  -1.1475727269491531E-011
                    8                    5                   10                    2   5.2974246083498100E-012
                    8                    5                   10                    4  -6.1430032068099383E-012
                    8                    7                    7                    9   2.0994348837524712E-012
                    8                    7                    9                    7  -1.5525340344921257E-012
                    8                    8                    8                    9   8.9509917032415716E-012
                    8                    8                    9                    8  -8.9509910165096096E-012
                    8                    9                    7                    7   1.5555367149344012E-012
                    8                    9                    7                    8  -7.7611059939863836E-012
                    8                    9                    8                    8  -8.9509917032415716E-012
                    8                    9                    9                    7  -1.4616290491299699E-012
                    8                    9                    9                    8  -2.0968782266095332E-012
                    8                    9                    9                    9   1.7093969105250306E-012
                    8                   10                    9                   10  -6.4501665727328961E-012
                    8                   10                   10                    7  -1.5919901573228923E-012
                    8                   10                   10                    9   8.3069073538236116E-012
                    9                    2                    2                    7  -1.0072413389461410E-011
                    9                    2                    2                    8   1.7986736232378231E-012
                    9                    2                    2                    9  -2.5681679005629121E-012
                    9                    2                    3                    7  -4.8179492893093284E-012
                    9                    2                    3                    8  -2.0782785215001098E-012
                    9                    2                    3                    9   6.0044318692456522E-012
                    9                    2                    5                   10  -4.4087927753011513E-012
                    9                    2                    7                    2   1.2190823003854767E-011
                    9                    2                    7                    3  -1.7244496439529702E-012
                    9                    2                    7                    4   2.2481322359269029E-012
                    9                    2                    8                    2   6.3704836761671602E-012
                    9                    2                    8                    3   1.3552076127965051E-012
                    9                    2                    8                    4  -4.5427969112138422E-012
                    9                    2                    9                    4   1.1836503999163028E-012
                    9                    2                   10                    5   4.5488231237289511E-012
                    9                    3                    2                    7   1.5909827708743274E-012
                    9                    3                    2                    8  -1.1091582513556020E-011
                    9                    3                    2                    9  -2.0857519270750524E-012
                    9                    3                    3                    7  -1.9145414420496110E-012
                    9                    3                    3                    8   1.0713478715285163E-012
                    9                    3                    3                    9   3.1297187064183163E-012
                    9                    3                    5                   10   1.5757065587756504E-012
                    9                    3                    7                    2  -3.1465176601394584E-012
                    9                    3                    7                    3   1.8815804816996184E-011
                    9                    3                    7                    4   2.3951279327916186E-012
                    9                    3                    8                    2   1.3196353731981247E-012
                    9                    3                    8                    3   7.8796419259244410E-012
                    9                    3                    8                    4  -1.0324796573257800E-012
                    9                    3                    9                    4  -1.5091760848830182E-012
                    9                    3                   10                    5  -1.9955430960693884E-012
                    9                    4                    2                    7  -2.4017454691716011E-012
                    9                    4                    2                    9  -2.4140023313634629E-011
                    9                    4                    3                    7   7.6174986457511196E-012
                    9                    4                    3                    8   2.5901850109200097E-012
                    9                    4                    3                    9  -2.5947856114195283E-011
                    9                    4                    7                    2   2.4017454691716011E-012
                    9                    4                    7                    4   2.4846652513232925E-011
                    9                    4                    8                    2  -7.5109642897613904E-012
                    9                    4                    8                    3  -2.5901572553443941E-012
                    9                    4                    8                    4   2.4238457974664479E-011
                    9                    4                    9                    2  -1.1836503999163028E-012
                    9                    4                    9                    3   1.5091760848830182E-012
                    9                    5                    2                   10  -7.1542910484723166E-012
                    9                    5                    3                   10  -5.0255589620351593E-012
                    9                    5                    5                    7  -3.1743288553265359E-012
                    9                    5                    7                    5   1.5784644424865490E-011
                    9                    5                    8                    5   1.1475727269491531E-011
                    9                    5                   10                    2   2.6515456497122614E-012
                    9                    7                    7                    7   2.1184096956187372E-012
                    9                    7                    8                    7   1.5525340344921257E-012
                    9                    7                    8                    9   1.4616290491299699E-012
                    9                    8                    7                    7  -1.5555370226522065E-012
                    9                    8                    7                    8   7.7242968965496317E-012
                    9                    8                    8                    8   8.9509910165096096E-012
                    9                    8                    8                    9   2.0968782266095332E-012
                    9                    8                    9                    9  -1.7093984258868255E-012
                    9                    9                    8                    9  -1.7093969105250306E-012
                    9                    9                    9                    8   1.7093984258868255E-012
                    9                   10                    7                   10   8.6301365359586768E-012
                    9                   10                    8                   10   6.4501665727328961E-012
                   10                    2                    2                   10  -1.4042100815458980E-012
                   10                    2                    3                   10   6.8894127870037375E-012
                   10                    2                    4                   10   3.1743149775387280E-012
                   10                    2                    8                    5  -5.2974246083498100E-012
                   10                    2                    9                    5  -2.6515456497122614E-012
                   10                    2                   10                    3  -1.1765572918058867E-012
                   10                    3                    3                   10   1.2672085603071537E-012
                   10                    3                   10                    2   1.1765572918058867E-012
                   10                    3                   10                    4  -2.2877823767364358E-012
                   10                    4                    2                   10  -1.2256751169559266E-011
                   10                    4                    3                   10  -1.4449910018532464E-011
                   10                    4                    7                    5   4.4410967958707914E-012
                   10                    4                    8                    5   6.1430032068099383E-012
                   10                    4                   10                    3   2.2877823767364358E-012
                   10                    5                    2                    9  -6.3984616216483658E-012
                   10                    5                    3                    7   6.7416777455725496E-012
                   10                    5                    3                    8   6.1562074882282047E-012
                   10                    5                    3                    9  -1.0720368704047795E-011
                   10                    5                    4                    7   4.4088170614298150E-012
                   10                    5                    4                    8  -1.5757068510020172E-012
                   10                    5                    7                    4   6.5384676839475020E-012
                   10                    5                    8                    2  -6.5435579047271042E-012
                   10                    5                    8                    3  -6.1562005493343008E-012
                   10                    5                    8                    4   1.0300531737308352E-011
                   10                    5                    9                    2  -4.5488231237289511E-012
                   10                    5                    9                    3   1.9955430960693884E-012
                   10                    7                    7                   10  -1.9609869283954140E-012
                   10                    7                    8                   10   1.5919901573228923E-012
                   10                    8                   10                    9  -1.6666039208412808E-012
                   10                    9                    7                   10  -7.8153985019757677E-012
                   10                    9                    8                   10  -8.3069073538236116E-012
                   10                    9                   10                    8   1.6666039208412808E-012
 TWO-BODY ANTISYMMETRY CHECK
 TRANSFORMED ~FOCK~ MATRIX
    1    1       -20.5455255473
    1    2        -0.0022969603
    1    3         0.0000853509
    1    4         0.0017902069
    1    6        -0.0010881709
[...]
    7    7    8    3       -0.0051067678
    7    7    8    4       -0.0006811043
    7    7    8    6       -0.0107363718
    7    7    8    7       -0.0270799101
    7    7    8    8        0.3220270417
    7    8    8    1       -0.0001759671
    7    8    8    2       -0.0023410795
    7    8    8    3       -0.0022808636
    7    8    8    4       -0.0017555237
    7    8    8    6        0.0104899754
    7    8    8    7        0.0284931523
    7    8    8    8       -0.0756904214
    8    1    1    1        0.0378670409
    8    1    1    2       -0.0063757215
    8    1    1    3        0.0117797512
    8    1    1    4       -0.0019788503
    8    1    1    6       -0.0032426106
    8    1    1    7       -0.0059811396
    8    1    1    8        0.0069537508
    8    2    1    1       -0.0419217830
    8    2    1    2        0.0006813058
    8    2    1    3        0.0077231242
    8    2    1    4       -0.0030208953
    8    2    1    6       -0.0005509842
    8    2    1    7       -0.0042025598
    8    2    1    8        0.0046101611
    8    3    1    1        0.1409992864
    8    3    1    2       -0.0025331076
    8    3    1    3        0.0002363961
    8    3    1    4       -0.0043880959
    8    3    1    6       -0.0025464227
    8    3    1    7       -0.0000883607
    8    3    1    8        0.0011530021
    8    4    1    1       -0.0387477382
    8    4    1    2        0.0003754570
    8    4    1    3       -0.0075552285
    8    4    1    4       -0.0009568099
    8    4    1    6       -0.0000256660
    8    4    1    7        0.0043551035
    8    4    1    8       -0.0044536600
    8    5    1    5       -0.0029211688
    8    6    1    1       -0.0525755479
    8    6    1    2        0.0006902724
    8    6    1    3        0.0021030972
    8    6    1    4       -0.0019347620
    8    6    1    6       -0.0002651822
    8    6    1    7       -0.0011295157
    8    6    1    8        0.0011635416
    8    7    1    1       -0.1594438677
    8    7    1    2        0.0023729614
    8    7    1    3        0.0004947356
    8    7    1    4        0.0005953120
    8    7    1    6        0.0010183263
    8    7    1    7       -0.0002663886
    8    7    1    8       -0.0001759671
    8    8    1    1        0.5661688724
    8    8    1    2       -0.0023530462
    8    8    1    3       -0.0026451481
    8    8    1    4        0.0019467692
    8    8    1    6       -0.0002762280
    8    8    1    7        0.0013649788
    8    8    1    8       -0.0010909628
    8    1    2    1       -0.0061280110
    8    1    2    2        0.0000930985
    8    1    2    3        0.0123850046
    8    1    2    4       -0.0038275081
    8    1    2    6       -0.0007942179
    8    1    2    7       -0.0051568081
    8    1    2    8        0.0046101611
    8    2    2    1        0.0009058954
    8    2    2    2       -0.0169729949
    8    2    2    3        0.0082075516
    8    2    2    4       -0.0046416566
    8    2    2    6       -0.0095326393
    8    2    2    7       -0.0155074437
    8    2    2    8        0.0395934758
    8    3    2    1       -0.0033169123
    8    3    2    2        0.0345220306
    8    3    2    3        0.0176174203
    8    3    2    4       -0.0580387450
    8    3    2    6        0.0149852794
    8    3    2    7       -0.0000730550
    8    3    2    8       -0.0162228793
    8    4    2    1        0.0004297802
    8    4    2    2       -0.0166504292
    8    4    2    3       -0.0630922558
    8    4    2    4        0.0025860713
    8    4    2    6       -0.0067315931
    8    4    2    7        0.0119751831
    8    4    2    8        0.0078795722
    8    5    2    5       -0.0124318829
    8    6    2    1        0.0006857718
    8    6    2    2       -0.0349511639
    8    6    2    3        0.0133466258
    8    6    2    4       -0.0058073283
    8    6    2    6       -0.0062574938
    8    6    2    7       -0.0008396970
    8    6    2    8       -0.0100331398
    8    7    2    1        0.0024068583
    8    7    2    2       -0.0991130692
    8    7    2    3        0.0042595825
    8    7    2    4        0.0079785794
    8    7    2    6       -0.0127101622
    8    7    2    7        0.0002620622
    8    7    2    8       -0.0023410795
    8    8    2    1       -0.0023530462
    8    8    2    2        0.5094001346
    8    8    2    3       -0.0476557164
    8    8    2    4        0.0267170044
    8    8    2    6        0.0257108660
    8    8    2    7       -0.0017939471
    8    8    2    8        0.0307425824
    8    1    3    1        0.0106881585
    8    1    3    2        0.0122258959
    8    1    3    3       -0.0000814579
    8    1    3    4       -0.0023351080
    8    1    3    6        0.0021129635
    8    1    3    7       -0.0002917626
    8    1    3    8        0.0011530021
    8    2    3    1        0.0074488577
    8    2    3    2        0.0073305061
    8    2    3    3       -0.0048773002
    8    2    3    4       -0.0297107275
    8    2    3    6        0.0109637726
    8    2    3    7        0.0057781108
    8    2    3    8       -0.0162228793
    8    3    3    1        0.0001883628
    8    3    3    2        0.0168595394
    8    3    3    3        0.0116863329
    8    3    3    4        0.0079081559
    8    3    3    6       -0.0086655515
    8    3    3    7       -0.0361387612
    8    3    3    8        0.0843811454
    8    4    3    1       -0.0079712319
    8    4    3    2       -0.0659169327
    8    4    3    3       -0.0052430154
    8    4    3    4       -0.0057443336
    8    4    3    6        0.0129804806
    8    4    3    7        0.0064580468
    8    4    3    8       -0.0236404143
    8    5    3    5        0.0121813874
    8    6    3    1        0.0020015104
    8    6    3    2        0.0129638915
    8    6    3    3       -0.0324105433
    8    6    3    4        0.0100068626
    8    6    3    6       -0.0004014700
    8    6    3    7        0.0047226596
    8    6    3    8        0.0079589492
    8    7    3    1        0.0004956952
    8    7    3    2        0.0041831317
    8    7    3    3       -0.0947787551
    8    7    3    4        0.0026824391
    8    7    3    6       -0.0003930379
    8    7    3    7        0.0216646252
    8    7    3    8       -0.0022808636
    8    8    3    1       -0.0026451481
    8    8    3    2       -0.0476557164
    8    8    3    3        0.5199247638
    8    8    3    4       -0.0258740462
    8    8    3    6        0.0167406937
    8    8    3    7       -0.0364923533
    8    8    3    8       -0.0624156306
    8    1    4    1       -0.0017975417
    8    1    4    2       -0.0038746277
    8    1    4    3       -0.0023035807
    8    1    4    4        0.0025006300
    8    1    4    6       -0.0005123498
    8    1    4    7        0.0022776747
    8    1    4    8       -0.0044536600
    8    2    4    1       -0.0032092058
    8    2    4    2       -0.0047652034
    8    2    4    3       -0.0290921940
    8    2    4    4       -0.0114822939
    8    2    4    6       -0.0058110662
    8    2    4    7        0.0041151377
    8    2    4    8        0.0078795722
    8    3    4    1       -0.0047414118
    8    3    4    2       -0.0602789827
    8    3    4    3        0.0086222457
    8    3    4    4        0.0517457219
    8    3    4    6        0.0177128568
    8    3    4    7        0.0048704185
    8    3    4    8       -0.0236404143
    8    4    4    1       -0.0010418651
    8    4    4    2        0.0013682340
    8    4    4    3       -0.0032858429
    8    4    4    4       -0.0157998192
    8    4    4    6       -0.0062243370
    8    4    4    7       -0.0197502290
    8    4    4    8        0.0533013637
    8    5    4    5        0.0005125148
    8    6    4    1       -0.0019534955
    8    6    4    2       -0.0058163037
    8    6    4    3        0.0101058853
    8    6    4    4       -0.0284624953
    8    6    4    6       -0.0033152882
    8    6    4    7        0.0022356360
    8    6    4    8       -0.0096693632
    8    7    4    1        0.0007095594
    8    7    4    2        0.0082619685
    8    7    4    3        0.0026865992
    8    7    4    4       -0.0962282700
    8    7    4    6       -0.0045343938
    8    7    4    7        0.0001728243
    8    7    4    8       -0.0017555237
    8    8    4    1        0.0019467692
    8    8    4    2        0.0267170044
    8    8    4    3       -0.0258740462
    8    8    4    4        0.4801913866
    8    8    4    6        0.0052976903
    8    8    4    7       -0.0098168668
    8    8    4    8        0.0393767736
    8    1    5    5        0.0004668741
    8    2    5    5       -0.0206160798
    8    3    5    5        0.0579210274
    8    4    5    5       -0.0157694331
    8    5    5    1       -0.0031738115
    8    5    5    2       -0.0131550309
    8    5    5    3        0.0119691610
    8    5    5    4        0.0004920274
    8    5    5    6       -0.0033130646
    8    5    5    7       -0.0061290126
    8    5    5    8        0.0111087981
    8    6    5    5       -0.0299609316
    8    7    5    5       -0.0917708966
    8    8    5    5        0.4631870145
    8    1    6    1       -0.0033443031
    8    1    6    2       -0.0009701303
    8    1    6    3        0.0025086135
    8    1    6    4       -0.0005984071
    8    1    6    6       -0.0006547655
    8    1    6    7       -0.0024903469
    8    1    6    8        0.0011635416
    8    2    6    1       -0.0007388752
    8    2    6    2       -0.0101494574
    8    2    6    3        0.0138184047
    8    2    6    4       -0.0057622960
    8    2    6    6       -0.0023291965
    8    2    6    7        0.0078542297
    8    2    6    8       -0.0100331398
    8    3    6    1       -0.0021987802
    8    3    6    2        0.0166542169
    8    3    6    3       -0.0084919176
    8    3    6    4        0.0172020664
    8    3    6    6       -0.0143892924
    8    3    6    7       -0.0113525615
    8    3    6    8        0.0079589492
    8    4    6    1       -0.0001088076
    8    4    6    2       -0.0068322292
    8    4    6    3        0.0135985128
    8    4    6    4       -0.0062169943
    8    4    6    6       -0.0009119389
    8    4    6    7        0.0290526944
    8    4    6    8       -0.0096693632
    8    5    6    5       -0.0039645956
    8    6    6    1       -0.0002623189
    8    6    6    2       -0.0061927308
    8    6    6    3        0.0000459434
    8    6    6    4       -0.0031954962
    8    6    6    6       -0.0116811545
    8    6    6    7        0.0009418358
    8    6    6    8        0.0174287506
    8    7    6    1        0.0010367642
    8    7    6    2       -0.0128896585
    8    7    6    3       -0.0003766451
    8    7    6    4       -0.0052113054
    8    7    6    6       -0.0298512198
    8    7    6    7       -0.0012000572
    8    7    6    8        0.0104899754
    8    8    6    1       -0.0002762280
    8    8    6    2        0.0257108660
    8    8    6    3        0.0167406937
    8    8    6    4        0.0052976903
    8    8    6    6        0.3350866104
    8    8    6    7        0.0368447068
    8    8    6    8       -0.0390265072
    8    1    7    1       -0.0062047884
    8    1    7    2       -0.0054983521
    8    1    7    3       -0.0001974777
    8    1    7    4        0.0023342238
    8    1    7    6       -0.0024841672
    8    1    7    7        0.0001539007
    8    1    7    8       -0.0001759671
    8    2    7    1       -0.0045934262
    8    2    7    2       -0.0174501094
    8    2    7    3        0.0048830332
    8    2    7    4        0.0053765054
    8    2    7    6        0.0081417840
    8    2    7    7        0.0004862026
    8    2    7    8       -0.0023410795
    8    3    7    1       -0.0000319667
    8    3    7    2       -0.0004422419
    8    3    7    3       -0.0346819523
    8    3    7    4        0.0043757771
    8    3    7    6       -0.0112617987
    8    3    7    7       -0.0051067678
    8    3    7    8       -0.0022808636
    8    4    7    1        0.0044900560
    8    4    7    2        0.0129292179
    8    4    7    3        0.0057480548
    8    4    7    4       -0.0200341275
    8    4    7    6        0.0294960174
    8    4    7    7       -0.0006811043
    8    4    7    8       -0.0017555237
    8    5    7    5       -0.0065773952
    8    6    7    1       -0.0011066866
    8    6    7    2       -0.0008534854
    8    6    7    3        0.0047910385
    8    6    7    4        0.0019296594
    8    6    7    6        0.0009405774
    8    6    7    7       -0.0107363718
    8    6    7    8        0.0104899754
    8    7    7    1       -0.0002607915
    8    7    7    2        0.0002994397
    8    7    7    3        0.0217497975
    8    7    7    4        0.0001010440
    8    7    7    6       -0.0012072154
    8    7    7    7       -0.0270799101
    8    7    7    8        0.0284931523
    8    8    7    1        0.0013649788
    8    8    7    2       -0.0017939471
    8    8    7    3       -0.0364923533
    8    8    7    4       -0.0098168668
    8    8    7    6        0.0368447068
    8    8    7    7        0.3220270417
    8    8    7    8       -0.0756904214
    8    1    8    1        0.0070885565
    8    1    8    2        0.0050251851
    8    1    8    3        0.0009755364
    8    1    8    4       -0.0044153362
    8    1    8    6        0.0011673231
    8    1    8    7       -0.0001861518
    8    1    8    8       -0.0010909628
    8    2    8    1        0.0050251851
    8    2    8    2        0.0426414874
    8    2    8    3       -0.0153162557
    8    2    8    4        0.0069571281
    8    2    8    6       -0.0093294901
    8    2    8    7       -0.0020533002
    8    2    8    8        0.0307425824
    8    3    8    1        0.0009755364
    8    3    8    2       -0.0153162557
    8    3    8    3        0.0835485335
    8    3    8    4       -0.0220771092
    8    3    8    6        0.0074524442
    8    3    8    7       -0.0030881311
    8    3    8    8       -0.0624156306
    8    4    8    1       -0.0044153362
    8    4    8    2        0.0069571281
    8    4    8    3       -0.0220771092
    8    4    8    4        0.0533280911
    8    4    8    6       -0.0089678820
    8    4    8    7       -0.0013598239
    8    4    8    8        0.0393767736
    8    5    8    5        0.0103128321
    8    6    8    1        0.0011673231
    8    6    8    2       -0.0093294901
    8    6    8    3        0.0074524442
    8    6    8    4       -0.0089678820
    8    6    8    6        0.0173606022
    8    6    8    7        0.0104799972
    8    6    8    8       -0.0390265072
    8    7    8    1       -0.0001861518
    8    7    8    2       -0.0020533002
    8    7    8    3       -0.0030881311
    8    7    8    4       -0.0013598239
    8    7    8    6        0.0104799972
    8    7    8    7        0.0283975298
    8    7    8    8       -0.0756904214
    8    8    8    1       -0.0010909628
    8    8    8    2        0.0307425824
    8    8    8    3       -0.0624156306
    8    8    8    4        0.0393767736
    8    8    8    6       -0.0390265072
    8    8    8    7       -0.0756904214
    8    8    8    8        0.5360072533
 end_two_electron_integrals

 Parallel integral file used       1 records with       0 large values


 Task  times  cpu:        5.8s     wall:        5.9s


                                NWChem Input Module
                                -------------------


 Summary of allocated global arrays
-----------------------------------
  No active global arrays


MA_summarize_allocated_blocks: starting scan ...
MA_summarize_allocated_blocks: scan completed: 0 heap blocks, 0 stack blocks
MA usage statistics:

	allocation statistics:
					      heap	     stack
					      ----	     -----
	current number of blocks	         0	         0
	maximum number of blocks	        17	        42
	current total bytes		         0	         0
	maximum total bytes		   2110096	 141357496
	maximum total K-bytes		      2111	    141358
	maximum total M-bytes		         3	       142


                                     CITATION
                                     --------
                Please cite the following reference when publishing
                           results obtained with NWChem:

          E. Apra, E. J. Bylaska, W. A. de Jong, N. Govind, K. Kowalski,
       T. P. Straatsma, M. Valiev, H. J. J. van Dam, Y. Alexeev, J. Anchell,
       V. Anisimov, F. W. Aquino, R. Atta-Fynn, J. Autschbach, N. P. Bauman,
     J. C. Becca, D. E. Bernholdt, K. Bhaskaran-Nair, S. Bogatko, P. Borowski,
         J. Boschen, J. Brabec, A. Bruner, E. Cauet, Y. Chen, G. N. Chuev,
      C. J. Cramer, J. Daily, M. J. O. Deegan, T. H. Dunning Jr., M. Dupuis,
   K. G. Dyall, G. I. Fann, S. A. Fischer, A. Fonari, H. Fruchtl, L. Gagliardi,
      J. Garza, N. Gawande, S. Ghosh, K. Glaesemann, A. W. Gotz, J. Hammond,
       V. Helms, E. D. Hermes, K. Hirao, S. Hirata, M. Jacquelin, L. Jensen,
   B. G. Johnson, H. Jonsson, R. A. Kendall, M. Klemm, R. Kobayashi, V. Konkov,
      S. Krishnamoorthy, M. Krishnan, Z. Lin, R. D. Lins, R. J. Littlefield,
      A. J. Logsdail, K. Lopata, W. Ma, A. V. Marenich, J. Martin del Campo,
   D. Mejia-Rodriguez, J. E. Moore, J. M. Mullin, T. Nakajima, D. R. Nascimento,
    J. A. Nichols, P. J. Nichols, J. Nieplocha, A. Otero-de-la-Roza, B. Palmer,
    A. Panyala, T. Pirojsirikul, B. Peng, R. Peverati, J. Pittner, L. Pollack,
   R. M. Richard, P. Sadayappan, G. C. Schatz, W. A. Shelton, D. W. Silverstein,
   D. M. A. Smith, T. A. Soares, D. Song, M. Swart, H. L. Taylor, G. S. Thomas,
            V. Tipparaju, D. G. Truhlar, K. Tsemekhman, T. Van Voorhis,
      A. Vazquez-Mayagoitia, P. Verma, O. Villa, A. Vishnu, K. D. Vogiatzis,
        D. Wang, J. H. Weare, M. J. Williamson, T. L. Windus, K. Wolinski,
        A. T. Wong, Q. Wu, C. Yang, Q. Yu, M. Zacharias, Z. Zhang, Y. Zhao,
                                and R. J. Harrison
                        "NWChem: Past, present, and future
                         J. Chem. Phys. 152, 184102 (2020)
                               doi:10.1063/5.0004997

                                      AUTHORS
                                      -------
  E. Apra, E. J. Bylaska, N. Govind, K. Kowalski, M. Valiev, D. Mejia-Rodriguez,
       A. Kunitsa, N. P. Bauman, A. Panyala, W. A. de Jong, T. P. Straatsma,
        H. J. J. van Dam, D. Wang, T. L. Windus, J. Hammond, J. Autschbach,
    K. Bhaskaran-Nair, J. Brabec, K. Lopata, S. A. Fischer, S. Krishnamoorthy,
     M. Jacquelin, W. Ma, M. Klemm, O. Villa, Y. Chen, V. Anisimov, F. Aquino,
    S. Hirata, M. T. Hackler, Eric Hermes, L. Jensen, J. E. Moore, J. C. Becca,
      V. Konjkov, T. Risthaus, M. Malagoli, A. Marenich, A. Otero-de-la-Roza,
        J. Mullin, P. Nichols, R. Peverati, J. Pittner, Y. Zhao, P.-D. Fan,
        A. Fonari, M. J. Williamson, R. J. Harrison, J. R. Rehr, M. Dupuis,
     D. Silverstein, D. M. A. Smith, J. Nieplocha, V. Tipparaju, M. Krishnan,
     B. E. Van Kuiken, A. Vazquez-Mayagoitia, M. Swart, Q. Wu, T. Van Voorhis,
     A. A. Auer, M. Nooijen, L. D. Crosby, E. Brown, G. Cisneros, G. I. Fann,
   H. Fruchtl, J. Garza, K. Hirao, R. A. Kendall, J. A. Nichols, K. Tsemekhman,
    K. Wolinski, J. Anchell, D. E. Bernholdt, P. Borowski, T. Clark, D. Clerc,
   H. Dachsel, M. J. O. Deegan, K. Dyall, D. Elwood, E. Glendening, M. Gutowski,
   A. C. Hess, J. Jaffe, B. G. Johnson, J. Ju, R. Kobayashi, R. Kutteh, Z. Lin,
   R. Littlefield, X. Long, B. Meng, T. Nakajima, S. Niu, L. Pollack, M. Rosing,
   K. Glaesemann, G. Sandrone, M. Stave, H. Taylor, G. Thomas, J. H. van Lenthe,
                               A. T. Wong, Z. Zhang.

 Total times  cpu:        5.8s     wall:        5.9s
