 argument  1 = input.nw
  NWChem w/ OpenMP: maximum threads =    1



============================== echo of input deck ==============================
 echo
 start H2O
 title "H2O"

 memory total 24 gb

 geometry units bohr
 symmetry c1
        O  0.00000000  0.00000000  0.00000000
        H  0.00000000  2.0093605  0.00000000
        H  1.72558000 -0.64860000  0.00000000
 end

 basis spherical
   * library cc-pVDZ
 end

 scf
   vectors input h2o.mos
   vectors output h2o.mos
 end

 tce
   2eorb
   2emet 13
   ccsd
   maxiter 300
 end

# set tce:print_integrals T
# set tce:qorb 8
# set tce:qela 5
# set tce:qelb 5

 set tce:qducc T
 set tce:nactv 3
 set tce:nonhf T
 set tce:ducc_model 6

 set tce:printtol 0.02

 task tce
================================================================================


                                         
                                         


             Northwest Computational Chemistry Package (NWChem) 7.0.1
             --------------------------------------------------------


                    Environmental Molecular Sciences Laboratory
                       Pacific Northwest National Laboratory
                                Richland, WA 99352

                              Copyright (c) 1994-2020
                       Pacific Northwest National Laboratory
                            Battelle Memorial Institute

             NWChem is an open-source computational chemistry package
                        distributed under the terms of the
                      Educational Community License (ECL) 2.0
             A copy of the license is included with this distribution
                              in the LICENSE.TXT file

                                  ACKNOWLEDGMENT
                                  --------------

            This software and its documentation were developed at the
            EMSL at Pacific Northwest National Laboratory, a multiprogram
            national laboratory, operated for the U.S. Department of Energy
            by Battelle under Contract Number DE-AC05-76RL01830. Support
            for this work was provided by the Department of Energy Office
            of Biological and Environmental Research, Office of Basic
            Energy Sciences, and the Office of Advanced Scientific Computing.


           Job information
           ---------------

    hostname        = WE46210
    program         = /home/baum612/code/nwchem/bin/LINUX64/nwchem
    date            = Fri Sep  6 09:58:13 2024

    compiled        = Wed_Sep_04_02:00:17_2024
    source          = /home/baum612/code/nwchem
    nwchem branch   = 7.0.0
    nwchem revision = nwchem_on_git-4191-g39d87d64de
    ga revision     = 5.8.1
    use scalapack   = F
    input           = input.nw
    prefix          = H2O.
    data base       = ./H2O.db
    status          = startup
    nproc           =        1
    time left       =     -1s



           Memory information
           ------------------

    heap     =  805306366 doubles =   6144.0 Mbytes
    stack    =  805306363 doubles =   6144.0 Mbytes
    global   = 1610612736 doubles =  12288.0 Mbytes (distinct from heap & stack)
    total    = 3221225465 doubles =  24576.0 Mbytes
    verify   = yes
    hardfail = no 


           Directory information
           ---------------------

  0 permanent = .
  0 scratch   = .




                                NWChem Input Module
                                -------------------


                                        H2O
                                        ---
 Turning off AUTOSYM since
 SYMMETRY directive was detected!


          ------
          auto-z
          ------
  no constraints, skipping    0.0000000000000000     
  no constraints, skipping    0.0000000000000000     


                             Geometry "geometry" -> ""
                             -------------------------

 Output coordinates in a.u. (scale by  1.000000000 to convert to a.u.)

  No.       Tag          Charge          X              Y              Z
 ---- ---------------- ---------- -------------- -------------- --------------
    1 O                    8.0000    -0.17255800    -0.13607605     0.00000000
    2 H                    1.0000    -0.17255800     1.87328445     0.00000000
    3 H                    1.0000     1.55302200    -0.78467605     0.00000000

      Atomic Mass 
      ----------- 

      O                 15.994910
      H                  1.007825


 Effective nuclear repulsion energy (a.u.)       8.6366149252

            Nuclear Dipole moment (a.u.) 
            ----------------------------
        X                 Y               Z
 ---------------- ---------------- ----------------
    -0.0000000000     0.0000000000     0.0000000000



                                Z-matrix (autoz)
                                -------- 

 Units are Angstrom for bonds and degrees for angles

      Type          Name      I     J     K     L     M      Value
      ----------- --------  ----- ----- ----- ----- ----- ----------
    1 Stretch                  1     2                       1.06331
    2 Stretch                  1     3                       0.97551
    3 Bend                     2     1     3               110.59992


            XYZ format geometry
            -------------------
     3
 geometry
 O                    -0.09131377    -0.07200835     0.00000000
 H                    -0.09131377     0.99129951     0.00000000
 H                     0.82182391    -0.41523271     0.00000000

 ==============================================================================
                                internuclear distances
 ------------------------------------------------------------------------------
       center one      |      center two      | atomic units |       a.u.
 ------------------------------------------------------------------------------
    2 H                |   1 O                |     2.00936  |     2.00936
    3 H                |   1 O                |     1.84345  |     1.84345
 ------------------------------------------------------------------------------
                         number of included internuclear distances:          2
 ==============================================================================



 ==============================================================================
                                 internuclear angles
 ------------------------------------------------------------------------------
        center 1       |       center 2       |       center 3       |  degrees
 ------------------------------------------------------------------------------
    2 H                |   1 O                |   3 H                |   110.60
 ------------------------------------------------------------------------------
                            number of included internuclear angles:          1
 ==============================================================================





 Summary of "ao basis" -> "" (spherical)
 ------------------------------------------------------------------------------
       Tag                 Description            Shells   Functions and Types
 ---------------- ------------------------------  ------  ---------------------
 *                          cc-pVDZ                   on all atoms 


                      Basis "ao basis" -> "ao basis" (spherical)
                      -----
  O (Oxygen)
  ----------
            Exponent  Coefficients 
       -------------- ---------------------------------------------------------
  1 S  1.17200000E+04  0.000710
  1 S  1.75900000E+03  0.005470
  1 S  4.00800000E+02  0.027837
  1 S  1.13700000E+02  0.104800
  1 S  3.70300000E+01  0.283062
  1 S  1.32700000E+01  0.448719
  1 S  5.02500000E+00  0.270952
  1 S  1.01300000E+00  0.015458

  2 S  1.17200000E+04 -0.000160
  2 S  1.75900000E+03 -0.001263
  2 S  4.00800000E+02 -0.006267
  2 S  1.13700000E+02 -0.025716
  2 S  3.70300000E+01 -0.070924
  2 S  1.32700000E+01 -0.165411
  2 S  5.02500000E+00 -0.116955
  2 S  1.01300000E+00  0.557368

  3 S  3.02300000E-01  1.000000

  4 P  1.77000000E+01  0.043018
  4 P  3.85400000E+00  0.228913
  4 P  1.04600000E+00  0.508728

  5 P  2.75300000E-01  1.000000

  6 D  1.18500000E+00  1.000000

  H (Hydrogen)
  ------------
            Exponent  Coefficients 
       -------------- ---------------------------------------------------------
  1 S  1.30100000E+01  0.019685
  1 S  1.96200000E+00  0.137977
  1 S  4.44600000E-01  0.478148

  2 S  1.22000000E-01  1.000000

  3 P  7.27000000E-01  1.000000



 Summary of "ao basis" -> "ao basis" (spherical)
 ------------------------------------------------------------------------------
       Tag                 Description            Shells   Functions and Types
 ---------------- ------------------------------  ------  ---------------------
 O                          cc-pVDZ                  6       14   3s2p1d
 H                          cc-pVDZ                  3        5   2s1p


                                 NWChem SCF Module
                                 -----------------


                                        H2O



  ao basis        = "ao basis"
  functions       =    24
  atoms           =     3
  closed shells   =     5
  open shells     =     0
  charge          =   0.00
  wavefunction    = RHF 
  input vectors   = ./h2o.mos
  output vectors  = ./h2o.mos
  use symmetry    = F
  symmetry adapt  = F


 Summary of "ao basis" -> "ao basis" (spherical)
 ------------------------------------------------------------------------------
       Tag                 Description            Shells   Functions and Types
 ---------------- ------------------------------  ------  ---------------------
 O                          cc-pVDZ                  6       14   3s2p1d
 H                          cc-pVDZ                  3        5   2s1p



 Forming initial guess at       0.0s


 Loading old vectors from job with title :

H2O


 Starting SCF solution at       0.0s



 ----------------------------------------------
         Quadratically convergent ROHF

 Convergence threshold     :          1.000E-04
 Maximum no. of iterations :           30
 Final Fock-matrix accuracy:          1.000E-07
 ----------------------------------------------


 #quartets = 3.081D+03 #integrals = 2.131D+04 #direct =  0.0% #cached =100.0%


 Integral file          = ./H2O.aoints.0
 Record size in doubles =  65536        No. of integs per rec  =  43688
 Max. records in memory =      4        Max. records in file   = 232253
 No. of bits per label  =      8        No. of bits per value  =     64


              iter       energy          gnorm     gmax       time
             ----- ------------------- --------- --------- --------
                 1      -76.0127151020  9.41D-03  3.73D-03      0.0
                 2      -76.0127216982  4.56D-05  1.34D-05      0.1


       Final RHF  results 
       ------------------ 

         Total SCF energy =    -76.012721698241
      One-electron energy =   -122.160294720342
      Two-electron energy =     37.510958096889
 Nuclear repulsion energy =      8.636614925211

        Time for solution =      0.0s


             Final eigenvalues
             -----------------

              1      
    1  -20.5569
    2   -1.3049
    3   -0.6778
    4   -0.5426
    5   -0.4869
    6    0.1731
    7    0.2466
    8    0.7404
    9    0.8070
   10    1.1628
   11    1.1975
   12    1.2551
   13    1.4483
   14    1.5069
   15    1.6935

                       ROHF Final Molecular Orbital Analysis
                       -------------------------------------

 Vector    2  Occ=2.000000D+00  E=-1.304905D+00
              MO Center=  4.4D-02, -1.3D-02, -7.1D-18, r^2= 5.2D-01
   Bfn.  Coefficient  Atom+Function         Bfn.  Coefficient  Atom+Function  
  ----- ------------  ---------------      ----- ------------  ---------------
     2      0.448881  1 O  s                  3      0.418726  1 O  s          
    20      0.188019  3 H  s          

 Vector    3  Occ=2.000000D+00  E=-6.778244D-01
              MO Center=  7.4D-02,  7.8D-02,  2.3D-18, r^2= 8.3D-01
   Bfn.  Coefficient  Atom+Function         Bfn.  Coefficient  Atom+Function  
  ----- ------------  ---------------      ----- ------------  ---------------
     5      0.367405  1 O  py                20     -0.337198  3 H  s          
     4     -0.308973  1 O  px                15      0.298389  2 H  s          
     8      0.177431  1 O  py         

 Vector    4  Occ=2.000000D+00  E=-5.425842D-01
              MO Center= -1.2D-01, -5.6D-02, -1.7D-17, r^2= 7.2D-01
   Bfn.  Coefficient  Atom+Function         Bfn.  Coefficient  Atom+Function  
  ----- ------------  ---------------      ----- ------------  ---------------
     4      0.431434  1 O  px                 5      0.334789  1 O  py         
     3     -0.308025  1 O  s                  7      0.306869  1 O  px         
     8      0.236935  1 O  py                15      0.217034  2 H  s          
    20      0.174463  3 H  s          

 Vector    5  Occ=2.000000D+00  E=-4.869499D-01
              MO Center= -7.3D-02, -6.2D-02,  3.4D-17, r^2= 6.0D-01
   Bfn.  Coefficient  Atom+Function         Bfn.  Coefficient  Atom+Function  
  ----- ------------  ---------------      ----- ------------  ---------------
     6      0.632635  1 O  pz                 9      0.498996  1 O  pz         

 Vector    6  Occ=0.000000D+00  E= 1.730701D-01
              MO Center=  3.2D-01,  5.3D-01,  5.9D-18, r^2= 2.9D+00
   Bfn.  Coefficient  Atom+Function         Bfn.  Coefficient  Atom+Function  
  ----- ------------  ---------------      ----- ------------  ---------------
     3      0.933149  1 O  s                 16     -0.909275  2 H  s          
    21     -0.674486  3 H  s                  8      0.270008  1 O  py         
     7      0.230543  1 O  px                 5      0.161102  1 O  py         

 Vector    7  Occ=0.000000D+00  E= 2.466018D-01
              MO Center=  6.3D-01,  1.1D-01, -4.2D-17, r^2= 3.5D+00
   Bfn.  Coefficient  Atom+Function         Bfn.  Coefficient  Atom+Function  
  ----- ------------  ---------------      ----- ------------  ---------------
    21      1.433885  3 H  s                 16     -1.166962  2 H  s          
     8      0.531543  1 O  py                 7     -0.403675  1 O  px         
     5      0.235426  1 O  py                 3     -0.189234  1 O  s          
     4     -0.177710  1 O  px         

 Vector    8  Occ=0.000000D+00  E= 7.403998D-01
              MO Center= -9.9D-02,  8.6D-01,  5.2D-17, r^2= 1.4D+00
   Bfn.  Coefficient  Atom+Function         Bfn.  Coefficient  Atom+Function  
  ----- ------------  ---------------      ----- ------------  ---------------
    15      1.272016  2 H  s                 16     -1.017406  2 H  s          
     5     -0.292728  1 O  py                18      0.208732  2 H  py         
     3      0.207291  1 O  s                  8     -0.187463  1 O  py         
    21      0.172485  3 H  s                  2     -0.162717  1 O  s          

 Vector    9  Occ=0.000000D+00  E= 8.069909D-01
              MO Center=  6.7D-01, -3.3D-01,  1.8D-16, r^2= 1.3D+00
   Bfn.  Coefficient  Atom+Function         Bfn.  Coefficient  Atom+Function  
  ----- ------------  ---------------      ----- ------------  ---------------
    20      1.264481  3 H  s                 21     -0.864931  3 H  s          
     4     -0.280007  1 O  px                22      0.244017  3 H  px         
     7     -0.229657  1 O  px                 8      0.195984  1 O  py         
     2     -0.175740  1 O  s                  3      0.153289  1 O  s          
    17     -0.153612  2 H  px         

 Vector   10  Occ=0.000000D+00  E= 1.162820D+00
              MO Center= -1.4D-01,  1.9D-02,  2.7D-17, r^2= 1.2D+00
   Bfn.  Coefficient  Atom+Function         Bfn.  Coefficient  Atom+Function  
  ----- ------------  ---------------      ----- ------------  ---------------
     7      1.124214  1 O  px                 4     -0.710990  1 O  px         
     3      0.623823  1 O  s                 20     -0.458935  3 H  s          
     8      0.386141  1 O  py                 5     -0.347721  1 O  py         
    22      0.316072  3 H  px                15     -0.306012  2 H  s          
    21     -0.286643  3 H  s                 17      0.198023  2 H  px         

 Vector   11  Occ=0.000000D+00  E= 1.197516D+00
              MO Center= -9.0D-02, -8.5D-03,  3.3D-16, r^2= 1.1D+00
   Bfn.  Coefficient  Atom+Function         Bfn.  Coefficient  Atom+Function  
  ----- ------------  ---------------      ----- ------------  ---------------
     9     -0.979262  1 O  pz                 6      0.958141  1 O  pz         

 Vector   12  Occ=0.000000D+00  E= 1.255108D+00
              MO Center= -4.3D-02, -1.7D-01,  2.6D-17, r^2= 1.6D+00
   Bfn.  Coefficient  Atom+Function         Bfn.  Coefficient  Atom+Function  
  ----- ------------  ---------------      ----- ------------  ---------------
     8      1.489539  1 O  py                 7     -0.785783  1 O  px         
    21      0.707814  3 H  s                  5     -0.695697  1 O  py         
    16     -0.685669  2 H  s                 15     -0.400365  2 H  s          
    18      0.373181  2 H  py                20      0.316317  3 H  s          
     4      0.266805  1 O  px                22     -0.246205  3 H  px         

 Vector   13  Occ=0.000000D+00  E= 1.448349D+00
              MO Center=  3.3D-01,  2.6D-01, -5.7D-17, r^2= 1.2D+00
   Bfn.  Coefficient  Atom+Function         Bfn.  Coefficient  Atom+Function  
  ----- ------------  ---------------      ----- ------------  ---------------
    19      0.691184  2 H  pz                24     -0.659973  3 H  pz         

 Vector   14  Occ=0.000000D+00  E= 1.506886D+00
              MO Center= -8.2D-03,  2.0D-02, -3.1D-16, r^2= 1.4D+00
   Bfn.  Coefficient  Atom+Function         Bfn.  Coefficient  Atom+Function  
  ----- ------------  ---------------      ----- ------------  ---------------
     3      0.786502  1 O  s                  2     -0.677906  1 O  s          
    17      0.609827  2 H  px                 7     -0.554475  1 O  px         
    23      0.542385  3 H  py                 8     -0.363057  1 O  py         
    22      0.298714  3 H  px                 1     -0.273019  1 O  s          
    20      0.247693  3 H  s                 21     -0.243272  3 H  s          

 Vector   15  Occ=0.000000D+00  E= 1.693478D+00
              MO Center=  2.4D-01,  1.5D-01, -1.3D-16, r^2= 1.3D+00
   Bfn.  Coefficient  Atom+Function         Bfn.  Coefficient  Atom+Function  
  ----- ------------  ---------------      ----- ------------  ---------------
    24      0.787206  3 H  pz                19      0.735553  2 H  pz         
     9     -0.663996  1 O  pz         


 center of mass
 --------------
 x =  -0.07599894 y =  -0.05993136 z =   0.00000000

 moments of inertia (a.u.)
 ------------------
           4.388671617549           1.260390920337           0.000000000000
           1.260390920337           2.833002082974           0.000000000000
           0.000000000000           0.000000000000           7.221673700523

  Mulliken analysis of the total density
  --------------------------------------

    Atom       Charge   Shell Charges
 -----------   ------   -------------------------------------------------------
    1 O    8     8.39   2.00  0.84  0.88  2.78  1.89  0.01
    2 H    1     0.79   0.61  0.11  0.07
    3 H    1     0.82   0.67  0.07  0.08

       Multipole analysis of the density wrt the origin
       ------------------------------------------------

     L   x y z        total         open         nuclear
     -   - - -        -----         ----         -------
     0   0 0 0      0.000000      0.000000     10.000000

     1   1 0 0      0.634915      0.000000     -0.000000
     1   0 1 0      0.473005      0.000000      0.000000
     1   0 0 1     -0.000000      0.000000      0.000000

     2   2 0 0     -4.027154      0.000000      2.679864
     2   1 1 0     -0.800167      0.000000     -1.354021
     2   1 0 1      0.000000      0.000000      0.000000
     2   0 2 0     -3.232912      0.000000      4.273045
     2   0 1 1     -0.000000      0.000000      0.000000
     2   0 0 2     -5.337306      0.000000      0.000000


 Parallel integral file used       1 records with       0 large values

                   NWChem Extensible Many-Electron Theory Module
                   ---------------------------------------------

              ======================================================
                   This portion of the program was automatically
                  generated by a Tensor Contraction Engine (TCE).
                  The development of this portion of the program
                 and TCE was supported by US Department of Energy,
                Office of Science, Office of Basic Energy Science.
                      TCE is a product of Battelle and PNNL.
              Please cite: S.Hirata, J.Phys.Chem.A 107, 9887 (2003).
              ======================================================

                                        H2O


            General Information
            -------------------
      Number of processors :     1
         Wavefunction type : Restricted Hartree-Fock
          No. of electrons :    10
           Alpha electrons :     5
            Beta electrons :     5
           No. of orbitals :    48
            Alpha orbitals :    24
             Beta orbitals :    24
        Alpha frozen cores :     0
         Beta frozen cores :     0
     Alpha frozen virtuals :     0
      Beta frozen virtuals :     0
         Spin multiplicity : singlet 
    Number of AO functions :    24
       Number of AO shells :    12
        Use of symmetry is : off
      Symmetry adaption is : off
         Schwarz screening : 0.10D-09

          Correlation Information
          -----------------------
          Calculation type : Coupled-cluster singles & doubles                           
   Perturbative correction : none                                                        
            Max iterations :      300
        Residual threshold : 0.10D-06
     T(0) DIIS level shift : 0.00D+00
     L(0) DIIS level shift : 0.00D+00
     T(1) DIIS level shift : 0.00D+00
     L(1) DIIS level shift : 0.00D+00
     T(R) DIIS level shift : 0.00D+00
     T(I) DIIS level shift : 0.00D+00
   CC-T/L Amplitude update :  5-th order DIIS
                I/O scheme : Global Array Library
        L-threshold :  0.10D-06
        EOM-threshold :  0.10D-06
 no EOMCCSD initial starts read in
 TCE RESTART OPTIONS
 READ_INT:   F
 WRITE_INT:  F
 READ_TA:    F
 WRITE_TA:   F
 READ_XA:    F
 WRITE_XA:   F
 READ_IN3:   F
 WRITE_IN3:  F
 SLICE:      F
 D4D5:       F
 quantumc:   F
 qrotation:  F
 pwtce:      F
 qducc:      T
 nacto:                         0
 nrotv:                         0
 nrot:                          0

            Memory Information
            ------------------
          Available GA space size is    1610612160 doubles
          Available MA space size is    1610610956 doubles

 Maximum block size        32 doubles

 tile_dim =     19

 Block   Spin    Irrep     Size     Offset   Alpha
 -------------------------------------------------
   1    alpha     a      5 doubles       0       1
   2    beta      a      5 doubles       5       1
   3    alpha     a     19 doubles      10       3
   4    beta      a     19 doubles      29       3

 Global array virtual files algorithm will be used

 Parallel file system coherency ......... OK

 #quartets = 3.081D+03 #integrals = 2.131D+04 #direct =  0.0% #cached =100.0%


 Integral file          = ./H2O.aoints.0
 Record size in doubles =  65536        No. of integs per rec  =  43688
 Max. records in memory =      4        Max. records in file   = 232253
 No. of bits per label  =      8        No. of bits per value  =     64


 Fock matrix recomputed
 1-e file size   =              576
 1-e file name   = ./H2O.f1
 Cpu & wall time / sec            0.0            0.0
 4-electron integrals stored in orbital form

 v2    file size   =           185666
 4-index algorithm nr.  13 is used
 imaxsize =       30
 imaxsize ichop =        0
 Cpu & wall time / sec            0.1            0.1
 T1-number-of-tasks                    1

 t1 file size   =               95
 t1 file name   = ./H2O.t1
 t1 file handle =       -998
 T2-number-of-boxes                    2

 t2 file size   =            18050
 t2 file name   = ./H2O.t2
 t2 file handle =       -996
CCSD iterations
 ---------------------------------------------------------
 Iter          Residuum       Correlation     Cpu    Wall 
 ---------------------------------------------------------
NEW TASK SCHEDULING
CCSD_T1_NTS --- OK
CCSD_T2_NTS --- OK
    1   0.1102748860961  -0.2076799505898     0.0     0.0
    2   0.0316218177997  -0.2127544416534     0.0     0.0
    3   0.0118390741240  -0.2158604792513     0.0     0.0
    4   0.0049370686634  -0.2166465752705     0.0     0.0
    5   0.0021562157166  -0.2169664894799     0.0     0.0
 MICROCYCLE DIIS UPDATE:                    5                    5
    6   0.0002829292855  -0.2171720503331     0.0     0.0
    7   0.0001551477424  -0.2171820545427     0.0     0.0
    8   0.0000761953876  -0.2171829520244     0.0     0.0
    9   0.0000462860782  -0.2171831417595     0.0     0.0
   10   0.0000267502178  -0.2171834916657     0.0     0.0
 MICROCYCLE DIIS UPDATE:                   10                    5
   11   0.0000025169465  -0.2171841224313     0.0     0.0
   12   0.0000009249356  -0.2171840144320     0.0     0.0
   13   0.0000004257619  -0.2171840387280     0.0     0.0
   14   0.0000002220638  -0.2171840365262     0.0     0.0
   15   0.0000001159496  -0.2171840362615     0.0     0.0
 MICROCYCLE DIIS UPDATE:                   15                    5
   16   0.0000000210913  -0.2171840338211     0.0     0.0
 -----------------------------------------------------------------
 Iterations converged
 CCSD correlation energy / hartree =        -0.217184033821143
 CCSD total energy / hartree       =       -76.229905732062150

 Singles contributions

 Doubles contributions
    10a   (alpha)    11a   (alpha) ---     4a   (alpha)     5a   (alpha)        0.0200993830
    10a   (alpha)    11a   (alpha) ---     5a   (alpha)     4a   (alpha)       -0.0200993830
    11a   (alpha)    10a   (alpha) ---     4a   (alpha)     5a   (alpha)       -0.0200993830
    11a   (alpha)    10a   (alpha) ---     5a   (alpha)     4a   (alpha)        0.0200993830
     6a   (alpha)     6a   (beta ) ---     3a   (alpha)     3a   (beta )       -0.0200773578
     6a   (alpha)     6a   (beta ) ---     4a   (alpha)     4a   (beta )       -0.0246536757
     7a   (alpha)     7a   (beta ) ---     3a   (alpha)     3a   (beta )       -0.0331888910
     7a   (alpha)    11a   (beta ) ---     3a   (alpha)     5a   (beta )       -0.0223168805
     8a   (alpha)     8a   (beta ) ---     3a   (alpha)     3a   (beta )       -0.0320883675
     8a   (alpha)     8a   (beta ) ---     3a   (alpha)     4a   (beta )       -0.0217667580
     8a   (alpha)     8a   (beta ) ---     4a   (alpha)     3a   (beta )       -0.0217667580
     8a   (alpha)     8a   (beta ) ---     4a   (alpha)     4a   (beta )       -0.0240421076
     9a   (alpha)     9a   (beta ) ---     3a   (alpha)     3a   (beta )       -0.0351279751
    10a   (alpha)    10a   (beta ) ---     4a   (alpha)     4a   (beta )       -0.0356863390
    10a   (alpha)    11a   (beta ) ---     4a   (alpha)     5a   (beta )        0.0285719030
    11a   (alpha)     7a   (beta ) ---     5a   (alpha)     3a   (beta )       -0.0223168805
    11a   (alpha)    10a   (beta ) ---     5a   (alpha)     4a   (beta )        0.0285719030
    11a   (alpha)    11a   (beta ) ---     5a   (alpha)     5a   (beta )       -0.0510643633
    11a   (alpha)    12a   (beta ) ---     5a   (alpha)     3a   (beta )        0.0206571462
    12a   (alpha)    11a   (beta ) ---     3a   (alpha)     5a   (beta )        0.0206571462
    12a   (alpha)    12a   (beta ) ---     3a   (alpha)     3a   (beta )       -0.0200880750
 Ground state specification:
 exp(T)|Ref>~(1+T)|Ref>
 ------- a(p)+/a(q) strings ----------

 singles norm

 doubles norm

 Reference string
   1.0000000000000000      :(1a)+ (2a)+ (3a)+ (4a)+ (5a)+ (1b)+ (2b)+ (3b)+ (4b)+ (5b)+ |0>

 Singles strings

 Doubles strings
 -------------------------------------
 enrep_tce =    8.6366149252113047     
  EHF(total)         =       -76.01272170
  Shift (HFtot-HFA)  =         0.00000000
 ALL OCCUPIED ORBITALS ARE ACTIVE IN DUCC --> NO SHIFT
 Number of active orbitals                    8
 Number of active alpha electrons                    5
 Number of active beta electrons                    5
  nos                    10
  nvs                    38
 noas                     5
 nobs                     5
 nvas                    19
 nvbs                    19
 nactv                     3
 DUCC MODEL =                     6
 NONHF =  T
 F-T1 correlation    =   -5.9711064193883726E-009
 V-T1-T1 correlation =    2.1286942844272016E-005
 V-T2 correlation    =  -0.21720531479284977     
 Total correlation   =  -0.21718403382111193     
 F-T1(Ext) correlation         =    3.4718395902583946E-008
 V-T1(Ext)-T1(Ext) correlation =    8.3770933221110282E-006
 V-T2(Ext) correlation         =  -0.19609865264972318     
 Total Ext correlation         =  -0.19609024083800516     
1-BODY TIME =    1.518 SECONDS.
  HHHH TIME =    1.841 SECONDS.
  PPPP TIME =    0.027 SECONDS.
  HHHP TIME =    0.623 SECONDS.
  PPPH TIME =    0.079 SECONDS.
  HPHP TIME =    0.354 SECONDS.
  HHPP TIME =    0.336 SECONDS.
 ONE-BODY UNITARY CHECK
 TWO-BODY UNITARY CHECK
                    2                    2                    2                    4  -1.0488717941244460E-012
                    2                    2                    3                    4   2.3875748902554474E-012
                    2                    2                    4                    2   1.0488728019877741E-012
                    2                    2                    4                    3  -2.3875751350810563E-012
                    2                    3                    3                    2  -2.6335600367133338E-012
                    2                    3                    3                    4  -4.7510623907287552E-012
                    2                    3                    4                    3   4.9403120483404450E-012
                    2                    4                    2                    2   1.0488717941244460E-012
                    2                    4                    3                    2   3.3225705173278719E-012
                    2                    4                    4                    2   1.9697576902899527E-012
                    2                    4                    4                    4   1.0058568930435929E-012
                    2                    5                    3                    5  -1.7384592029823231E-012
                    2                    5                    4                    5   5.4755505685122330E-012
                    2                    5                    5                    3   1.8294753732772673E-012
                    2                    5                    5                    4  -4.5505821333335916E-012
                    2                    6                    8                    4   1.1000211700730456E-012
                    2                    7                    2                    8   2.1065978822454312E-012
                    2                    7                    2                    9  -1.8352524361331390E-012
                    2                    7                    3                    7  -1.5977722617188661E-012
                    2                    7                    3                    8   2.3454405084777363E-011
                    2                    7                    3                    9  -1.9563473237227402E-011
                    2                    7                    4                    7   7.8956598204005246E-012
                    2                    7                    4                    8   2.3901928613428991E-012
                    2                    7                    4                    9  -1.2829778905931732E-011
                    2                    7                    5                   10  -7.1273681401251565E-012
                    2                    7                    7                    3  -2.2580687319972981E-012
                    2                    7                    8                    2   1.7492431114707330E-012
                    2                    7                    8                    3  -2.3454405084777363E-011
                    2                    7                    8                    4   2.1951047750323749E-011
                    2                    7                    9                    2  -6.8467800873328599E-012
                    2                    7                    9                    3  -4.7777710607266322E-012
                    2                    7                    9                    4   1.2829778905931732E-011
                    2                    7                   10                    5   7.1273681401251565E-012
                    2                    8                    2                    7  -2.1065978822454312E-012
                    2                    8                    3                    7   1.7457368883810886E-011
                    2                    8                    3                    8  -1.3303754365506792E-011
                    2                    8                    3                    9   1.4721859148414396E-011
                    2                    8                    4                    7   1.0117631558947959E-012
                    2                    8                    4                    8   9.5791204829387411E-012
                    2                    8                    4                    9  -3.9321271932957202E-012
                    2                    8                    5                   10  -2.5676613613079269E-012
                    2                    8                    7                    2   2.2580669972738221E-012
                    2                    8                    8                    2  -2.0090484831314370E-011
                    2                    8                    8                    3   1.3208482918525277E-011
                    2                    8                    8                    4  -1.9472961437783098E-011
                    2                    8                    9                    2  -1.8122118389252151E-012
                    2                    8                    9                    3  -4.6388240471095799E-012
                    2                    8                    9                    4   3.7110540335172360E-012
                    2                    8                   10                    5   2.2781698402751793E-012
                    2                    9                    2                    7   1.8352524361331390E-012
                    2                    9                    3                    7  -1.3258057412340873E-011
                    2                    9                    3                    8   1.4229714628832824E-011
                    2                    9                    3                    9   1.3525456796226187E-012
                    2                    9                    4                    7  -8.7179014007787714E-012
                    2                    9                    4                    8  -1.3236373802572032E-012
                    2                    9                    4                    9   2.1555882079304922E-011
                    2                    9                    5                   10   7.3046811654986499E-012
                    2                    9                    8                    2   1.6580639639052208E-011
                    2                    9                    8                    3  -1.4503145212563240E-011
                    2                    9                    8                    4  -1.6749414355476944E-012
                    2                    9                    9                    2   1.0687561946554069E-011
                    2                    9                    9                    3   2.2232571686431335E-012
                    2                    9                    9                    4  -2.0550033896782338E-011
                    2                    9                   10                    5  -7.3141423473366274E-012
                    2                   10                    3                   10   3.8840757866920317E-012
                    2                   10                    4                   10   1.3346670990621590E-011
                    2                   10                    5                    7  -5.8387183976549295E-012
                    2                   10                    5                    9   3.6764688515766863E-012
                    2                   10                    8                    5  -5.6225527705899836E-012
                    2                   10                    9                    5  -7.8709920525721344E-012
                    2                   10                   10                    2   6.8337557834752261E-012
                    2                   10                   10                    3   2.4422068100465877E-012
                    2                   10                   10                    4  -8.2272175183639717E-012
                    3                    2                    2                    3   2.6335600367133338E-012
                    3                    2                    2                    4  -3.3225705173278719E-012
                    3                    2                    4                    2   3.2581281422805475E-012
                    3                    3                    3                    4  -1.3281458285984494E-011
                    3                    3                    4                    3   1.3281458953287638E-011
                    3                    4                    2                    2  -2.3875748902554474E-012
                    3                    4                    2                    3   4.7510623907287552E-012
                    3                    4                    3                    3   1.3281458285984494E-011
                    3                    4                    4                    2   1.0738120462261413E-012
                    3                    4                    4                    3   2.2676860389481135E-011
                    3                    4                    4                    4   2.7691411202952438E-012
                    3                    5                    2                    5   1.7384592029823231E-012
                    3                    5                    4                    5   1.3518946379020846E-011
                    3                    5                    5                    2   1.5382205058311893E-012
                    3                    5                    5                    3   1.6480816711350599E-011
                    3                    5                    5                    4  -1.2044691632961957E-011
                    3                    6                    3                    8  -1.4062201923736861E-012
                    3                    6                    4                    9  -1.4015147549450990E-012
                    3                    6                    5                   10  -1.1218027375081707E-012
                    3                    6                    8                    3   1.1030485335891682E-012
                    3                    6                    9                    4   1.3260174208662434E-012
                    3                    6                   10                    5   1.1826472960663192E-012
                    3                    7                    2                    7   1.5977722617188661E-012
                    3                    7                    2                    8  -1.7457368883810886E-011
                    3                    7                    2                    9   1.3258057412340873E-011
                    3                    7                    3                    8  -6.4429832996593106E-012
                    3                    7                    3                    9   1.7019875092616488E-012
                    3                    7                    4                    7   1.7922418757421177E-011
                    3                    7                    4                    8  -8.6222660955481700E-012
                    3                    7                    4                    9  -3.0612457013745598E-012
                    3                    7                    5                   10  -6.2909764203533669E-012
                    3                    7                    7                    2  -1.7492413767472570E-012
                    3                    7                    7                    3   2.0090484831314370E-011
                    3                    7                    7                    4  -1.6580611883476593E-011
                    3                    7                    8                    3   6.5382599508112538E-012
                    3                    7                    8                    4  -1.4607724752035978E-012
                    3                    7                    9                    2  -1.4664270232139787E-011
                    3                    7                    9                    3   8.1918395677949007E-012
                    3                    7                    9                    4   3.2823171264295681E-012
                    3                    7                   10                    5   6.5804670740243765E-012
                    3                    8                    2                    7  -2.3454405084777363E-011
                    3                    8                    2                    8   1.3303754365506792E-011
                    3                    8                    2                    9  -1.4229714628832824E-011
                    3                    8                    3                    6   1.4062201923736861E-012
                    3                    8                    3                    7   6.4429832996593106E-012
                    3                    8                    3                    9  -1.0899875186459740E-011
                    3                    8                    4                    6   1.0657134896785436E-012
                    3                    8                    4                    7  -1.4572579254412688E-012
                    3                    8                    4                    8   4.4387511461546625E-011
                    3                    8                    4                    9  -3.9005833285532532E-011
                    3                    8                    5                   10  -2.1383894655002678E-011
                    3                    8                    7                    2   2.3454377329201748E-011
                    3                    8                    7                    3  -1.3208487255333967E-011
                    3                    8                    7                    4   1.4503120926434576E-011
                    3                    8                    8                    1  -1.1030472325465612E-012
                    3                    8                    8                    2  -6.5382443382999700E-012
                    3                    8                    8                    4  -2.3815905844659646E-012
                    3                    8                    9                    1  -1.1859974807792995E-012
                    3                    8                    9                    2   1.1838516278395161E-012
                    3                    8                    9                    3  -3.1106038318046147E-011
                    3                    8                    9                    4   3.9005812468850820E-011
                    3                    8                   10                    5   2.1383898124449630E-011
                    3                    9                    2                    7   1.9563473237227402E-011
                    3                    9                    2                    8  -1.4721859148414396E-011
                    3                    9                    2                    9  -1.3525456796226187E-012
                    3                    9                    3                    7  -1.7019875092616488E-012
                    3                    9                    3                    8   1.0899875186459740E-011
                    3                    9                    4                    7  -2.6475922149105102E-012
                    3                    9                    4                    8  -2.2736104665632695E-011
                    3                    9                    4                    9   5.5161260975600257E-011
                    3                    9                    5                   10   1.8249528190711350E-011
                    3                    9                    7                    1  -1.1000222813802724E-012
                    3                    9                    7                    2  -2.1951052520813308E-011
                    3                    9                    7                    3   1.9472930212760531E-011
                    3                    9                    7                    4   1.6749275577598866E-012
                    3                    9                    8                    2   1.4607134946054146E-012
                    3                    9                    8                    3   2.3815832118911917E-012
                    3                    9                    9                    2   3.7213877812636298E-012
                    3                    9                    9                    3   4.5412784643872328E-011
                    3                    9                    9                    4  -5.2392113217281100E-011
                    3                    9                   10                    5  -1.8819704909051049E-011
                    3                   10                    2                   10  -3.8840757866920317E-012
                    3                   10                    4                   10   2.3263216006319531E-011
                    3                   10                    5                    7  -6.5694836723362293E-012
                    3                   10                    5                    8  -9.0729541935008484E-012
                    3                   10                    5                    9   8.7406601054218491E-012
                    3                   10                    7                    5   5.6225545053134596E-012
                    3                   10                    9                    5  -9.7441906973805281E-012
                    3                   10                   10                    2   8.1076694836978991E-012
                    3                   10                   10                    3   2.5553781313192303E-011
                    3                   10                   10                    4  -2.0785416790514155E-011
                    4                    2                    2                    2  -1.0488728019877741E-012
                    4                    2                    2                    4  -1.9697576902899527E-012
                    4                    2                    3                    2  -3.2581281422805475E-012
                    4                    2                    3                    4  -1.0738120462261413E-012
                    4                    2                    4                    4  -1.0058549667847918E-012
                    4                    3                    2                    2   2.3875751350810563E-012
                    4                    3                    2                    3  -4.9403120483404450E-012
                    4                    3                    3                    3  -1.3281458953287638E-011
                    4                    3                    3                    4  -2.2676860389481135E-011
                    4                    3                    4                    4  -2.7691422048679932E-012
                    4                    4                    2                    4  -1.0058568930435929E-012
                    4                    4                    3                    4  -2.7691411202952438E-012
                    4                    4                    4                    2   1.0058549667847918E-012
                    4                    4                    4                    3   2.7691422048679932E-012
                    4                    5                    2                    5  -5.4755505685122330E-012
                    4                    5                    3                    5  -1.3518946379020846E-011
                    4                    5                    5                    2   1.4577106882684987E-012
                    4                    5                    5                    3   3.4603674092803516E-012
                    4                    5                    5                    4  -1.5322187962851785E-012
                    4                    6                    3                    8  -1.0657134896785436E-012
                    4                    6                    8                    3   1.1859948786940855E-012
                    4                    7                    2                    7  -7.8956598204005246E-012
                    4                    7                    2                    8  -1.0117631558947959E-012
                    4                    7                    2                    9   8.7179014007787714E-012
                    4                    7                    3                    7  -1.7922418757421177E-011
                    4                    7                    3                    8   1.4572579254412688E-012
                    4                    7                    3                    9   2.6475922149105102E-012
                    4                    7                    4                    9  -1.8964690928768846E-012
                    4                    7                    5                   10  -4.8354445447706951E-012
                    4                    7                    7                    2   6.8467770515667770E-012
                    4                    7                    7                    3   1.8121892875200274E-012
                    4                    7                    7                    4  -1.0687561946554069E-011
                    4                    7                    8                    2   1.4664272400544132E-011
                    4                    7                    8                    3  -1.1838273417108525E-012
                    4                    7                    8                    4  -3.7214190062861974E-012
                    4                    7                   10                    5   4.8449057266086726E-012
                    4                    8                    2                    7  -2.3901928613428991E-012
                    4                    8                    2                    8  -9.5791204829387411E-012
                    4                    8                    2                    9   1.3236373802572032E-012
                    4                    8                    3                    7   8.6222660955481700E-012
                    4                    8                    3                    8  -4.4387511461546625E-011
                    4                    8                    3                    9   2.2736104665632695E-011
                    4                    8                    4                    9  -1.4470057096982458E-012
                    4                    8                    5                   10  -2.9508498509273062E-012
                    4                    8                    7                    2   4.7777678081201147E-012
                    4                    8                    7                    3   4.6388552721321474E-012
                    4                    8                    7                    4  -2.2232589033666095E-012
                    4                    8                    8                    2  -8.1918187511131890E-012
                    4                    8                    8                    3   3.1106045256940051E-011
                    4                    8                    8                    4  -4.5412784643872328E-011
                    4                    8                    9                    4  -1.3221403138974352E-012
                    4                    8                   10                    5   3.5210280871500466E-012
                    4                    9                    2                    7   1.2829778905931732E-011
                    4                    9                    2                    8   3.9321271932957202E-012
                    4                    9                    2                    9  -2.1555882079304922E-011
                    4                    9                    3                    6   1.4015147549450990E-012
                    4                    9                    3                    7   3.0612457013745598E-012
                    4                    9                    3                    8   3.9005833285532532E-011
                    4                    9                    3                    9  -5.5161260975600257E-011
                    4                    9                    4                    7   1.8964690928768846E-012
                    4                    9                    4                    8   1.4470057096982458E-012
                    4                    9                    5                   10   4.9707044036395587E-012
                    4                    9                    7                    2  -1.2829778905931732E-011
                    4                    9                    7                    3  -3.7110713807519957E-012
                    4                    9                    7                    4   2.0550006141206723E-011
                    4                    9                    8                    1  -1.3260187219088504E-012
                    4                    9                    8                    2  -3.2822997791948083E-012
                    4                    9                    8                    3  -3.9005763896593493E-011
                    4                    9                    8                    4   5.2392111482557624E-011
                    4                    9                    9                    3   1.3221576611321950E-012
                    4                    9                   10                    5  -4.9707182814273665E-012
                    4                   10                    2                   10  -1.3346670990621590E-011
                    4                   10                    3                   10  -2.3263216006319531E-011
                    4                   10                    5                    7  -3.6806807601763580E-012
                    4                   10                    5                    8  -1.7980361123604016E-012
                    4                   10                    5                    9   2.5788815527505449E-012
                    4                   10                    7                    5   7.8710267470416539E-012
                    4                   10                    8                    5   9.7441876616144452E-012
                    4                   10                   10                    2   5.1384799193421316E-012
                    4                   10                   10                    3   5.2585123755388707E-012
                    4                   10                   10                    4  -4.1107117709771046E-012
                    5                    2                    3                    5  -1.5382205058311893E-012
                    5                    2                    4                    5  -1.4577106882684987E-012
                    5                    2                    5                    3   1.4472026008127692E-012
                    5                    3                    2                    5  -1.8294753732772673E-012
                    5                    3                    3                    5  -1.6480816711350599E-011
                    5                    3                    4                    5  -3.4603674092803516E-012
                    5                    3                    5                    2  -1.4472026008127692E-012
                    5                    3                    5                    4   1.9861126632214621E-012
                    5                    4                    2                    5   4.5505821333335916E-012
                    5                    4                    3                    5   1.2044691632961957E-011
                    5                    4                    4                    5   1.5322187962851785E-012
                    5                    4                    5                    3  -1.9861126632214621E-012
                    5                    7                    2                   10   5.8387183976549295E-012
                    5                    7                    3                   10   6.5694836723362293E-012
                    5                    7                    4                   10   3.6806807601763580E-012
                    5                    7                    5                    8   1.7813866701188452E-012
                    5                    7                    7                    5  -6.8337557834752261E-012
                    5                    7                    8                    5  -8.1076690500170301E-012
                    5                    7                    9                    5  -5.1384729804482276E-012
                    5                    8                    3                   10   9.0729541935008484E-012
                    5                    8                    4                   10   1.7980361123604016E-012
                    5                    8                    5                    7  -1.7813866701188452E-012
                    5                    8                    5                    9   2.7807010166691626E-012
                    5                    8                    7                    5  -2.4422087616104982E-012
                    5                    8                    8                    5  -2.5553781313192303E-011
                    5                    8                    9                    5  -5.2585002324745389E-012
                    5                    9                    2                   10  -3.6764688515766863E-012
                    5                    9                    3                   10  -8.7406601054218491E-012
                    5                    9                    4                   10  -2.5788815527505449E-012
                    5                    9                    5                    8  -2.7807010166691626E-012
                    5                    9                    7                    5   8.2272105794700678E-012
                    5                    9                    8                    5   2.0785404647449823E-011
                    5                    9                    9                    5   4.1107117709771046E-012
                    5                   10                    2                    7   7.1273681401251565E-012
                    5                   10                    2                    8   2.5676613613079269E-012
                    5                   10                    2                    9  -7.3046811654986499E-012
                    5                   10                    3                    6   1.1218027375081707E-012
                    5                   10                    3                    7   6.2909764203533669E-012
                    5                   10                    3                    8   2.1383894655002678E-011
                    5                   10                    3                    9  -1.8249528190711350E-011
                    5                   10                    4                    7   4.8354445447706951E-012
                    5                   10                    4                    8   2.9508498509273062E-012
                    5                   10                    4                    9  -4.9707044036395587E-012
                    5                   10                    7                    2  -7.1273681401251565E-012
                    5                   10                    7                    3  -2.2781776465308212E-012
                    5                   10                    7                    4   7.3141354084427235E-012
                    5                   10                    8                    1  -1.1826477297471882E-012
                    5                   10                    8                    2  -6.5804601351304726E-012
                    5                   10                    8                    3  -2.1383891185555726E-011
                    5                   10                    8                    4   1.8819707727976698E-011
                    5                   10                    9                    2  -4.8448987877147687E-012
                    5                   10                    9                    3  -3.5210300387139570E-012
                    5                   10                    9                    4   4.9706766480639430E-012
                    7                    1                    3                    9   1.1000222813802724E-012
                    7                    2                    2                    8  -2.2580669972738221E-012
                    7                    2                    3                    7   1.7492413767472570E-012
                    7                    2                    3                    8  -2.3454377329201748E-011
                    7                    2                    3                    9   2.1951052520813308E-011
                    7                    2                    4                    7  -6.8467770515667770E-012
                    7                    2                    4                    8  -4.7777678081201147E-012
                    7                    2                    4                    9   1.2829778905931732E-011
                    7                    2                    5                   10   7.1273681401251565E-012
                    7                    2                    7                    3   2.1065996169689072E-012
                    7                    2                    7                    4  -1.8352598087079119E-012
                    7                    2                    8                    2  -1.5977774658892940E-012
                    7                    2                    8                    3   2.3454377329201748E-011
                    7                    2                    8                    4  -1.9563470418301754E-011
                    7                    2                    9                    2   7.8956567846344416E-012
                    7                    2                    9                    3   2.3901909097789886E-012
                    7                    2                    9                    4  -1.2829778905931732E-011
                    7                    2                   10                    5  -7.1273681401251565E-012
                    7                    3                    2                    7   2.2580687319972981E-012
                    7                    3                    3                    7  -2.0090484831314370E-011
                    7                    3                    3                    8   1.3208487255333967E-011
                    7                    3                    3                    9  -1.9472930212760531E-011
                    7                    3                    4                    7  -1.8121892875200274E-012
                    7                    3                    4                    8  -4.6388552721321474E-012
                    7                    3                    4                    9   3.7110713807519957E-012
                    7                    3                    5                   10   2.2781776465308212E-012
                    7                    3                    7                    2  -2.1065996169689072E-012
                    7                    3                    8                    2   1.7457590928415812E-011
                    7                    3                    8                    3  -1.3303755232868530E-011
                    7                    3                    8                    4   1.4721925067906483E-011
                    7                    3                    9                    2   1.0117700947886998E-012
                    7                    3                    9                    3   9.5791014009805053E-012
                    7                    3                    9                    4  -3.9321428058070040E-012
                    7                    3                   10                    5  -2.5676700349253068E-012
                    7                    4                    3                    7   1.6580611883476593E-011
                    7                    4                    3                    8  -1.4503120926434576E-011
                    7                    4                    3                    9  -1.6749275577598866E-012
                    7                    4                    4                    7   1.0687561946554069E-011
                    7                    4                    4                    8   2.2232589033666095E-012
                    7                    4                    4                    9  -2.0550006141206723E-011
                    7                    4                    5                   10  -7.3141354084427235E-012
                    7                    4                    7                    2   1.8352598087079119E-012
                    7                    4                    8                    2  -1.3258061749149563E-011
                    7                    4                    8                    3   1.4229690342704160E-011
                    7                    4                    8                    4   1.3525743025599724E-012
                    7                    4                    9                    2  -8.7180956898080808E-012
                    7                    4                    9                    3  -1.3236512580450110E-012
                    7                    4                    9                    4   2.1555854323729307E-011
                    7                    4                   10                    5   7.3046742266047460E-012
                    7                    5                    3                   10  -5.6225545053134596E-012
                    7                    5                    4                   10  -7.8710267470416539E-012
                    7                    5                    5                    7   6.8337557834752261E-012
                    7                    5                    5                    8   2.4422087616104982E-012
                    7                    5                    5                    9  -8.2272105794700678E-012
                    7                    5                    8                    5   3.8840736182876867E-012
                    7                    5                    9                    5   1.3346650173939878E-011
                    7                    5                   10                    2  -5.8388571755330076E-012
                    7                    5                   10                    4   3.6765104849401098E-012
                    7                    7                    7                    9  -1.0488703253881338E-012
                    7                    7                    8                    9   2.3875750761879681E-012
                    7                    7                    9                    7   1.0488724496408864E-012
                    7                    7                    9                    8  -2.3875751596471832E-012
                    7                    8                    8                    7  -2.6340041259231839E-012
                    7                    8                    8                    9  -4.7510623907287552E-012
                    7                    8                    9                    8   4.9403103136169690E-012
                    7                    9                    7                    7   1.0488703253881338E-012
                    7                    9                    8                    7   3.3225713846896099E-012
                    7                    9                    9                    7   1.9697576902899527E-012
                    7                    9                    9                    9   1.0058554818394501E-012
                    7                   10                    8                   10  -1.7384613713866681E-012
                    7                   10                    9                   10   5.4755453643418051E-012
                    7                   10                   10                    8   1.8294740722346603E-012
                    7                   10                   10                    9  -4.5505786638866397E-012
                    8                    1                    3                    8   1.1030472325465612E-012
                    8                    1                    4                    9   1.3260187219088504E-012
                    8                    1                    5                   10   1.1826477297471882E-012
                    8                    1                    8                    3  -1.4062186744906446E-012
                    8                    1                    9                    4  -1.4015160559877060E-012
                    8                    1                   10                    5  -1.1218031711890397E-012
                    8                    2                    2                    7  -1.7492431114707330E-012
                    8                    2                    2                    8   2.0090484831314370E-011
                    8                    2                    2                    9  -1.6580639639052208E-011
                    8                    2                    3                    8   6.5382443382999700E-012
                    8                    2                    3                    9  -1.4607134946054146E-012
                    8                    2                    4                    7  -1.4664272400544132E-011
                    8                    2                    4                    8   8.1918187511131890E-012
                    8                    2                    4                    9   3.2822997791948083E-012
                    8                    2                    5                   10   6.5804601351304726E-012
                    8                    2                    7                    2   1.5977774658892940E-012
                    8                    2                    7                    3  -1.7457590928415812E-011
                    8                    2                    7                    4   1.3258061749149563E-011
                    8                    2                    8                    3  -6.4429746260419307E-012
                    8                    2                    8                    4   1.7020187342842164E-012
                    8                    2                    9                    2   1.7922453451890696E-011
                    8                    2                    9                    3  -8.6223077289115935E-012
                    8                    2                    9                    4  -3.0612266194163240E-012
                    8                    2                   10                    5  -6.2909703488212010E-012
                    8                    3                    2                    7   2.3454405084777363E-011
                    8                    3                    2                    8  -1.3208482918525277E-011
                    8                    3                    2                    9   1.4503145212563240E-011
                    8                    3                    3                    6  -1.1030485335891682E-012
                    8                    3                    3                    7  -6.5382599508112538E-012
                    8                    3                    3                    9  -2.3815832118911917E-012
                    8                    3                    4                    6  -1.1859948786940855E-012
                    8                    3                    4                    7   1.1838273417108525E-012
                    8                    3                    4                    8  -3.1106045256940051E-011
                    8                    3                    4                    9   3.9005763896593493E-011
                    8                    3                    5                   10   2.1383891185555726E-011
                    8                    3                    7                    2  -2.3454377329201748E-011
                    8                    3                    7                    3   1.3303755232868530E-011
                    8                    3                    7                    4  -1.4229690342704160E-011
                    8                    3                    8                    1   1.4062186744906446E-012
                    8                    3                    8                    2   6.4429746260419307E-012
                    8                    3                    8                    4  -1.0899873885417133E-011
                    8                    3                    9                    1   1.0657165254446266E-012
                    8                    3                    9                    2  -1.4572822115699324E-012
                    8                    3                    9                    3   4.4387500185844031E-011
                    8                    3                    9                    4  -3.9005750018805685E-011
                    8                    3                   10                    5  -2.1383894655002678E-011
                    8                    4                    2                    6  -1.1000211700730456E-012
                    8                    4                    2                    7  -2.1951047750323749E-011
                    8                    4                    2                    8   1.9472961437783098E-011
                    8                    4                    2                    9   1.6749414355476944E-012
                    8                    4                    3                    7   1.4607724752035978E-012
                    8                    4                    3                    8   2.3815905844659646E-012
                    8                    4                    4                    7   3.7214190062861974E-012
                    8                    4                    4                    8   4.5412784643872328E-011
                    8                    4                    4                    9  -5.2392111482557624E-011
                    8                    4                    5                   10  -1.8819707727976698E-011
                    8                    4                    7                    2   1.9563470418301754E-011
                    8                    4                    7                    3  -1.4721925067906483E-011
                    8                    4                    7                    4  -1.3525743025599724E-012
                    8                    4                    8                    2  -1.7020187342842164E-012
                    8                    4                    8                    3   1.0899873885417133E-011
                    8                    4                    9                    2  -2.6476060926983180E-012
                    8                    4                    9                    3  -2.2736118543420503E-011
                    8                    4                    9                    4   5.5161247097812449E-011
                    8                    4                   10                    5   1.8249530792796564E-011
                    8                    5                    2                   10   5.6225527705899836E-012
                    8                    5                    4                   10  -9.7441876616144452E-012
                    8                    5                    5                    7   8.1076690500170301E-012
                    8                    5                    5                    8   2.5553781313192303E-011
                    8                    5                    5                    9  -2.0785404647449823E-011
                    8                    5                    7                    5  -3.8840736182876867E-012
                    8                    5                    9                    5   2.3263207332702152E-011
                    8                    5                   10                    2  -6.5694819376127533E-012
                    8                    5                   10                    3  -9.0729541935008484E-012
                    8                    5                   10                    4   8.7406575033366352E-012
                    8                    7                    7                    8   2.6340041259231839E-012
                    8                    7                    7                    9  -3.3225713846896099E-012
                    8                    7                    9                    7   3.2581281422805475E-012
                    8                    8                    8                    9  -1.3281456798514971E-011
                    8                    8                    9                    8   1.3281455558326387E-011
[...]
    7    7    8    3       -0.0017615985
    7    7    8    4       -0.0051712289
    7    7    8    6       -0.0291822004
    7    7    8    7       -0.0219372953
    7    7    8    8        0.3085016162
    7    8    8    1       -0.0003931605
    7    8    8    2       -0.0042517303
    7    8    8    3       -0.0053711378
    7    8    8    4       -0.0041954717
    7    8    8    6        0.0220889497
    7    8    8    7        0.0220547278
    7    8    8    8       -0.0668931032
    8    1    1    1        0.0740097070
    8    1    1    2       -0.0122969131
    8    1    1    3       -0.0087983560
    8    1    1    4       -0.0051890165
    8    1    1    6       -0.0074697375
    8    1    1    7       -0.0042358606
    8    1    1    8        0.0079220641
    8    2    1    1       -0.0800878899
    8    2    1    2        0.0013944967
    8    2    1    3       -0.0053263364
    8    2    1    4       -0.0068345684
    8    2    1    6       -0.0019867149
    8    2    1    7       -0.0034564244
    8    2    1    8        0.0040984575
    8    3    1    1       -0.1057417996
    8    3    1    2        0.0019588949
    8    3    1    3       -0.0001038833
    8    3    1    4        0.0027120240
    8    3    1    6        0.0019128212
    8    3    1    7       -0.0001539605
    8    3    1    8       -0.0015146660
    8    4    1    1       -0.0892394083
    8    4    1    2        0.0007506522
    8    4    1    3        0.0053193394
    8    4    1    4       -0.0012053142
    8    4    1    6        0.0005206159
    8    4    1    7        0.0031575549
    8    4    1    8       -0.0022262354
    8    5    1    5       -0.0058037854
    8    6    1    1       -0.1352888859
    8    6    1    2        0.0018369173
    8    6    1    3       -0.0013853933
    8    6    1    4       -0.0041551679
    8    6    1    6       -0.0007346285
    8    6    1    7       -0.0010267789
    8    6    1    8        0.0013396275
    8    7    1    1       -0.1224220480
    8    7    1    2        0.0018003752
    8    7    1    3       -0.0008593066
    8    7    1    4        0.0006341170
    8    7    1    6        0.0007821067
    8    7    1    7       -0.0005297849
    8    7    1    8       -0.0003931605
    8    8    1    1        0.5260872378
    8    8    1    2       -0.0022629183
    8    8    1    3        0.0038572028
    8    8    1    4        0.0050782297
    8    8    1    6        0.0011236684
    8    8    1    7        0.0023591615
    8    8    1    8       -0.0022600928
    8    1    2    1       -0.0117921556
    8    1    2    2        0.0006923243
    8    1    2    3       -0.0086908127
    8    1    2    4       -0.0087193162
    8    1    2    6       -0.0025932301
    8    1    2    7       -0.0042242297
    8    1    2    8        0.0040984575
    8    2    2    1        0.0018500560
    8    2    2    2       -0.0327970132
    8    2    2    3       -0.0079533465
    8    2    2    4       -0.0115934198
    8    2    2    6       -0.0219474627
    8    2    2    7       -0.0111318649
    8    2    2    8        0.0356053926
    8    3    2    1        0.0024829533
    8    3    2    2       -0.0300801579
    8    3    2    3        0.0298778161
    8    3    2    4        0.0439987742
    8    3    2    6       -0.0109223211
    8    3    2    7        0.0006954796
    8    3    2    8        0.0244137426
    8    4    2    1        0.0009903255
    8    4    2    2       -0.0385800094
    8    4    2    3        0.0477513780
    8    4    2    4        0.0117569260
    8    4    2    6       -0.0139609492
    8    4    2    7        0.0105298626
    8    4    2    8        0.0180108954
    8    5    2    5       -0.0247491463
    8    6    2    1        0.0018359687
    8    6    2    2       -0.0888187432
    8    6    2    3       -0.0108049742
    8    6    2    4       -0.0119791205
    8    6    2    6       -0.0154256392
    8    6    2    7        0.0014157549
    8    6    2    8       -0.0052522818
    8    7    2    1        0.0018197823
    8    7    2    2       -0.0763617210
    8    7    2    3       -0.0089413871
    8    7    2    4        0.0067038310
    8    7    2    6       -0.0093588473
    8    7    2    7        0.0020955678
    8    7    2    8       -0.0042517303
    8    8    2    1       -0.0022629183
    8    8    2    2        0.4709440069
    8    8    2    3        0.0759615041
    8    8    2    4        0.0437424166
    8    8    2    6        0.0239737330
    8    8    2    7       -0.0069079056
    8    8    2    8        0.0420929226
    8    1    3    1       -0.0081208109
    8    1    3    2       -0.0086238606
    8    1    3    3       -0.0006325854
    8    1    3    4        0.0009640252
    8    1    3    6       -0.0014302259
    8    1    3    7        0.0006202138
    8    1    3    8       -0.0015146660
    8    2    3    1       -0.0051976977
    8    2    3    2       -0.0080641538
    8    2    3    3       -0.0103458143
    8    2    3    4        0.0223008583
    8    2    3    6       -0.0101584311
    8    2    3    7       -0.0117531451
    8    2    3    8        0.0244137426
    8    3    3    1       -0.0001247006
    8    3    3    2        0.0292576654
    8    3    3    3       -0.0066594376
    8    3    3    4        0.0220672691
    8    3    3    6       -0.0238653162
    8    3    3    7       -0.0276692305
    8    3    3    8        0.0726801262
    8    4    3    1        0.0056418785
    8    4    3    2        0.0489811636
    8    4    3    3       -0.0074969962
    8    4    3    4        0.0118704456
    8    4    3    6       -0.0157272775
    8    4    3    7       -0.0157589012
    8    4    3    8        0.0441562400
    8    5    3    5       -0.0088440360
    8    6    3    1       -0.0013269029
    8    6    3    2       -0.0105642245
    8    6    3    3       -0.0830993156
    8    6    3    4       -0.0100733729
    8    6    3    6       -0.0011866579
    8    6    3    7       -0.0132123984
    8    6    3    8       -0.0164861865
    8    7    3    1       -0.0008492177
    8    7    3    2       -0.0088774231
    8    7    3    3       -0.0725281773
    8    7    3    4       -0.0059155696
    8    7    3    6       -0.0007615304
    8    7    3    7       -0.0177594175
    8    7    3    8       -0.0053711378
    8    8    3    1        0.0038572028
    8    8    3    2        0.0759615041
    8    8    3    3        0.4879811550
    8    8    3    4        0.0513577337
    8    8    3    6       -0.0315864995
    8    8    3    7        0.0271199465
    8    8    3    8        0.1019318087
    8    1    4    1       -0.0046608032
    8    1    4    2       -0.0086891449
    8    1    4    3        0.0009646918
    8    1    4    4        0.0052391518
    8    1    4    6       -0.0007948537
    8    1    4    7        0.0020544959
    8    1    4    8       -0.0022262354
    8    2    4    1       -0.0070040032
    8    2    4    2       -0.0118485917
    8    2    4    3        0.0222296262
    8    2    4    4       -0.0165195678
    8    2    4    6       -0.0132259733
    8    2    4    7        0.0028577015
    8    2    4    8        0.0180108954
    8    3    4    1        0.0029880375
    8    3    4    2        0.0451195917
    8    3    4    3        0.0228605626
    8    3    4    4       -0.0298738140
    8    3    4    6       -0.0196565181
    8    3    4    7       -0.0119872728
    8    3    4    8        0.0441562400
    8    4    4    1       -0.0014177090
    8    4    4    2        0.0108744255
    8    4    4    3        0.0112371555
    8    4    4    4       -0.0342268730
    8    4    4    6       -0.0202083586
    8    4    4    7       -0.0174093086
    8    4    4    8        0.0491659869
    8    5    4    5       -0.0000692061
    8    6    4    1       -0.0041650569
    8    6    4    2       -0.0119129131
    8    6    4    3       -0.0100568188
    8    6    4    4       -0.0768381767
    8    6    4    6       -0.0087891707
    8    6    4    7        0.0010970415
    8    6    4    8       -0.0088508747
    8    7    4    1        0.0007105163
    8    7    4    2        0.0068917994
    8    7    4    3       -0.0057248589
    8    7    4    4       -0.0752054056
    8    7    4    6       -0.0047082850
    8    7    4    7       -0.0008375205
    8    7    4    8       -0.0041954717
    8    8    4    1        0.0050782297
    8    8    4    2        0.0437424166
    8    8    4    3        0.0513577337
    8    8    4    4        0.4510360054
    8    8    4    6       -0.0038524598
    8    8    4    7       -0.0187059382
    8    8    4    8        0.0709389637
    8    1    5    5        0.0009592536
    8    2    5    5       -0.0398649004
    8    3    5    5       -0.0437537790
    8    4    5    5       -0.0366620800
    8    5    5    1       -0.0062822461
    8    5    5    2       -0.0263169802
    8    5    5    3       -0.0094166573
    8    5    5    4       -0.0003050832
    8    5    5    6       -0.0078846077
    8    5    5    7       -0.0045590557
    8    5    5    8        0.0129260423
    8    6    5    5       -0.0778435115
    8    7    5    5       -0.0715081015
    8    8    5    5        0.4333748684
    8    1    6    1       -0.0076872900
    8    1    6    2       -0.0029837221
    8    1    6    3       -0.0016367088
    8    1    6    4       -0.0010363349
    8    1    6    6       -0.0019873622
    8    1    6    7       -0.0017059706
    8    1    6    8        0.0013396275
    8    2    6    1       -0.0023993130
    8    2    6    2       -0.0236599752
    8    2    6    3       -0.0107858133
    8    2    6    4       -0.0133914532
    8    2    6    6       -0.0042241644
    8    2    6    7        0.0057452510
    8    2    6    8       -0.0052522818
    8    3    6    1        0.0017193939
    8    3    6    2       -0.0108552546
    8    3    6    3       -0.0234845284
    8    3    6    4       -0.0184387852
    8    3    6    6        0.0167742462
    8    3    6    7        0.0220175682
    8    3    6    8       -0.0164861865
    8    4    6    1        0.0003134474
    8    4    6    2       -0.0143512946
    8    4    6    3       -0.0152479573
    8    4    6    4       -0.0200697143
    8    4    6    6        0.0037280604
    8    4    6    7        0.0231585624
    8    4    6    8       -0.0088508747
    8    5    6    5       -0.0092977497
    8    6    6    1       -0.0007248383
    8    6    6    2       -0.0153719362
    8    6    6    3       -0.0015514193
    8    6    6    4       -0.0087198611
    8    6    6    6       -0.0330681365
    8    6    6    7       -0.0011478571
    8    6    6    8        0.0354155298
    8    7    6    1        0.0007981460
    8    7    6    2       -0.0094435319
    8    7    6    3       -0.0008459112
    8    7    6    4       -0.0051050520
    8    7    6    6       -0.0255789891
    8    7    6    7       -0.0034279184
    8    7    6    8        0.0220889497
    8    8    6    1        0.0011236684
    8    8    6    2        0.0239737330
    8    8    6    3       -0.0315864995
    8    8    6    4       -0.0038524598
    8    8    6    6        0.3558522016
    8    8    6    7        0.0702549225
    8    8    6    8       -0.0889575098
    8    1    7    1       -0.0043953081
    8    1    7    2       -0.0044411594
    8    1    7    3        0.0003976779
    8    1    7    4        0.0021650162
    8    1    7    6       -0.0017007741
    8    1    7    7        0.0007346544
    8    1    7    8       -0.0003931605
    8    2    7    1       -0.0037011490
    8    2    7    2       -0.0125387470
    8    2    7    3       -0.0107228537
    8    2    7    4        0.0045309450
    8    2    7    6        0.0059161864
    8    2    7    7        0.0002757922
    8    2    7    8       -0.0042517303
    8    3    7    1       -0.0002811819
    8    3    7    2        0.0003320242
    8    3    7    3       -0.0268056340
    8    3    7    4       -0.0117940720
    8    3    7    6        0.0219232197
    8    3    7    7       -0.0017615985
    8    3    7    8       -0.0053711378
    8    4    7    1        0.0033293672
    8    4    7    2        0.0119575888
    8    4    7    3       -0.0146075055
    8    4    7    4       -0.0183611552
    8    4    7    6        0.0232694270
    8    4    7    7       -0.0051712289
    8    4    7    8       -0.0041954717
    8    5    7    5       -0.0050854790
    8    6    7    1       -0.0010071079
    8    6    7    2        0.0014819159
    8    6    7    3       -0.0133284071
    8    6    7    4        0.0007537267
    8    6    7    6       -0.0011630861
    8    6    7    7       -0.0291822004
    8    6    7    8        0.0220889497
    8    7    7    1       -0.0005221631
    8    7    7    2        0.0020759684
    8    7    7    3       -0.0177433910
    8    7    7    4       -0.0009978159
    8    7    7    6       -0.0034365717
    8    7    7    7       -0.0219372953
    8    7    7    8        0.0220547278
    8    8    7    1        0.0023591615
    8    8    7    2       -0.0069079056
    8    8    7    3        0.0271199465
    8    8    7    4       -0.0187059382
    8    8    7    6        0.0702549225
    8    8    7    7        0.3085016162
    8    8    7    8       -0.0668931032
    8    1    8    1        0.0081277408
    8    1    8    2        0.0044774322
    8    1    8    3       -0.0013135016
    8    1    8    4       -0.0021615323
    8    1    8    6        0.0013336929
    8    1    8    7       -0.0004066457
    8    1    8    8       -0.0022600928
    8    2    8    1        0.0044774322
    8    2    8    2        0.0380938027
    8    2    8    3        0.0236179067
    8    2    8    4        0.0169577730
    8    2    8    6       -0.0049844879
    8    2    8    7       -0.0039407825
    8    2    8    8        0.0420929226
    8    3    8    1       -0.0013135016
    8    3    8    2        0.0236179067
    8    3    8    3        0.0719309041
    8    3    8    4        0.0429511376
    8    3    8    6       -0.0157649002
    8    3    8    7       -0.0049242705
    8    3    8    8        0.1019318087
    8    4    8    1       -0.0021615323
    8    4    8    2        0.0169577730
    8    4    8    3        0.0429511376
    8    4    8    4        0.0498697965
    8    4    8    6       -0.0084469456
    8    4    8    7       -0.0038552486
    8    4    8    8        0.0709389637
    8    5    8    5        0.0134767204
    8    6    8    1        0.0013336929
    8    6    8    2       -0.0049844879
    8    6    8    3       -0.0157649002
    8    6    8    4       -0.0084469456
    8    6    8    6        0.0353819013
    8    6    8    7        0.0220315622
    8    6    8    8       -0.0889575098
    8    7    8    1       -0.0004066457
    8    7    8    2       -0.0039407825
    8    7    8    3       -0.0049242705
    8    7    8    4       -0.0038552486
    8    7    8    6        0.0220315622
    8    7    8    7        0.0219829349
    8    7    8    8       -0.0668931032
    8    8    8    1       -0.0022600928
    8    8    8    2        0.0420929226
    8    8    8    3        0.1019318087
    8    8    8    4        0.0709389637
    8    8    8    6       -0.0889575098
    8    8    8    7       -0.0668931032
    8    8    8    8        0.6093952939
 end_two_electron_integrals

 Parallel integral file used       1 records with       0 large values


 Task  times  cpu:        5.2s     wall:        5.3s


                                NWChem Input Module
                                -------------------


 Summary of allocated global arrays
-----------------------------------
  No active global arrays


MA_summarize_allocated_blocks: starting scan ...
MA_summarize_allocated_blocks: scan completed: 0 heap blocks, 0 stack blocks
MA usage statistics:

	allocation statistics:
					      heap	     stack
					      ----	     -----
	current number of blocks	         0	         0
	maximum number of blocks	        17	        42
	current total bytes		         0	         0
	maximum total bytes		   2110096	 141357496
	maximum total K-bytes		      2111	    141358
	maximum total M-bytes		         3	       142


                                     CITATION
                                     --------
                Please cite the following reference when publishing
                           results obtained with NWChem:

          E. Apra, E. J. Bylaska, W. A. de Jong, N. Govind, K. Kowalski,
       T. P. Straatsma, M. Valiev, H. J. J. van Dam, Y. Alexeev, J. Anchell,
       V. Anisimov, F. W. Aquino, R. Atta-Fynn, J. Autschbach, N. P. Bauman,
     J. C. Becca, D. E. Bernholdt, K. Bhaskaran-Nair, S. Bogatko, P. Borowski,
         J. Boschen, J. Brabec, A. Bruner, E. Cauet, Y. Chen, G. N. Chuev,
      C. J. Cramer, J. Daily, M. J. O. Deegan, T. H. Dunning Jr., M. Dupuis,
   K. G. Dyall, G. I. Fann, S. A. Fischer, A. Fonari, H. Fruchtl, L. Gagliardi,
      J. Garza, N. Gawande, S. Ghosh, K. Glaesemann, A. W. Gotz, J. Hammond,
       V. Helms, E. D. Hermes, K. Hirao, S. Hirata, M. Jacquelin, L. Jensen,
   B. G. Johnson, H. Jonsson, R. A. Kendall, M. Klemm, R. Kobayashi, V. Konkov,
      S. Krishnamoorthy, M. Krishnan, Z. Lin, R. D. Lins, R. J. Littlefield,
      A. J. Logsdail, K. Lopata, W. Ma, A. V. Marenich, J. Martin del Campo,
   D. Mejia-Rodriguez, J. E. Moore, J. M. Mullin, T. Nakajima, D. R. Nascimento,
    J. A. Nichols, P. J. Nichols, J. Nieplocha, A. Otero-de-la-Roza, B. Palmer,
    A. Panyala, T. Pirojsirikul, B. Peng, R. Peverati, J. Pittner, L. Pollack,
   R. M. Richard, P. Sadayappan, G. C. Schatz, W. A. Shelton, D. W. Silverstein,
   D. M. A. Smith, T. A. Soares, D. Song, M. Swart, H. L. Taylor, G. S. Thomas,
            V. Tipparaju, D. G. Truhlar, K. Tsemekhman, T. Van Voorhis,
      A. Vazquez-Mayagoitia, P. Verma, O. Villa, A. Vishnu, K. D. Vogiatzis,
        D. Wang, J. H. Weare, M. J. Williamson, T. L. Windus, K. Wolinski,
        A. T. Wong, Q. Wu, C. Yang, Q. Yu, M. Zacharias, Z. Zhang, Y. Zhao,
                                and R. J. Harrison
                        "NWChem: Past, present, and future
                         J. Chem. Phys. 152, 184102 (2020)
                               doi:10.1063/5.0004997

                                      AUTHORS
                                      -------
  E. Apra, E. J. Bylaska, N. Govind, K. Kowalski, M. Valiev, D. Mejia-Rodriguez,
       A. Kunitsa, N. P. Bauman, A. Panyala, W. A. de Jong, T. P. Straatsma,
        H. J. J. van Dam, D. Wang, T. L. Windus, J. Hammond, J. Autschbach,
    K. Bhaskaran-Nair, J. Brabec, K. Lopata, S. A. Fischer, S. Krishnamoorthy,
     M. Jacquelin, W. Ma, M. Klemm, O. Villa, Y. Chen, V. Anisimov, F. Aquino,
    S. Hirata, M. T. Hackler, Eric Hermes, L. Jensen, J. E. Moore, J. C. Becca,
      V. Konjkov, T. Risthaus, M. Malagoli, A. Marenich, A. Otero-de-la-Roza,
        J. Mullin, P. Nichols, R. Peverati, J. Pittner, Y. Zhao, P.-D. Fan,
        A. Fonari, M. J. Williamson, R. J. Harrison, J. R. Rehr, M. Dupuis,
     D. Silverstein, D. M. A. Smith, J. Nieplocha, V. Tipparaju, M. Krishnan,
     B. E. Van Kuiken, A. Vazquez-Mayagoitia, M. Swart, Q. Wu, T. Van Voorhis,
     A. A. Auer, M. Nooijen, L. D. Crosby, E. Brown, G. Cisneros, G. I. Fann,
   H. Fruchtl, J. Garza, K. Hirao, R. A. Kendall, J. A. Nichols, K. Tsemekhman,
    K. Wolinski, J. Anchell, D. E. Bernholdt, P. Borowski, T. Clark, D. Clerc,
   H. Dachsel, M. J. O. Deegan, K. Dyall, D. Elwood, E. Glendening, M. Gutowski,
   A. C. Hess, J. Jaffe, B. G. Johnson, J. Ju, R. Kobayashi, R. Kutteh, Z. Lin,
   R. Littlefield, X. Long, B. Meng, T. Nakajima, S. Niu, L. Pollack, M. Rosing,
   K. Glaesemann, G. Sandrone, M. Stave, H. Taylor, G. Thomas, J. H. van Lenthe,
                               A. T. Wong, Z. Zhang.

 Total times  cpu:        5.3s     wall:        5.4s
