 argument  1 = input.nw
  NWChem w/ OpenMP: maximum threads =    1



============================== echo of input deck ==============================
 echo
 start H2O
 title "H2O"

 memory total 24 gb

 geometry units bohr
 symmetry c1
        O  0.00000000  0.00000000  0.00000000
        H  0.00000000  2.01857775  0.00000000
        H  1.72558000 -0.64860000  0.00000000
 end

 basis spherical
   * library cc-pVDZ
 end

 scf
   vectors input h2o.mos
   vectors output h2o.mos
 end

 tce
   2eorb
   2emet 13
   ccsd
   maxiter 300
 end

# set tce:print_integrals T
# set tce:qorb 8
# set tce:qela 5
# set tce:qelb 5

 set tce:qducc T
 set tce:nactv 3
 set tce:nonhf T
 set tce:ducc_model 6

 set tce:printtol 0.02

 task tce
================================================================================


                                         
                                         


             Northwest Computational Chemistry Package (NWChem) 7.0.1
             --------------------------------------------------------


                    Environmental Molecular Sciences Laboratory
                       Pacific Northwest National Laboratory
                                Richland, WA 99352

                              Copyright (c) 1994-2020
                       Pacific Northwest National Laboratory
                            Battelle Memorial Institute

             NWChem is an open-source computational chemistry package
                        distributed under the terms of the
                      Educational Community License (ECL) 2.0
             A copy of the license is included with this distribution
                              in the LICENSE.TXT file

                                  ACKNOWLEDGMENT
                                  --------------

            This software and its documentation were developed at the
            EMSL at Pacific Northwest National Laboratory, a multiprogram
            national laboratory, operated for the U.S. Department of Energy
            by Battelle under Contract Number DE-AC05-76RL01830. Support
            for this work was provided by the Department of Energy Office
            of Biological and Environmental Research, Office of Basic
            Energy Sciences, and the Office of Advanced Scientific Computing.


           Job information
           ---------------

    hostname        = WE46210
    program         = /home/baum612/code/nwchem/bin/LINUX64/nwchem
    date            = Fri Sep  6 09:58:20 2024

    compiled        = Wed_Sep_04_02:00:17_2024
    source          = /home/baum612/code/nwchem
    nwchem branch   = 7.0.0
    nwchem revision = nwchem_on_git-4191-g39d87d64de
    ga revision     = 5.8.1
    use scalapack   = F
    input           = input.nw
    prefix          = H2O.
    data base       = ./H2O.db
    status          = startup
    nproc           =        1
    time left       =     -1s



           Memory information
           ------------------

    heap     =  805306366 doubles =   6144.0 Mbytes
    stack    =  805306363 doubles =   6144.0 Mbytes
    global   = 1610612736 doubles =  12288.0 Mbytes (distinct from heap & stack)
    total    = 3221225465 doubles =  24576.0 Mbytes
    verify   = yes
    hardfail = no 


           Directory information
           ---------------------

  0 permanent = .
  0 scratch   = .




                                NWChem Input Module
                                -------------------


                                        H2O
                                        ---
 Turning off AUTOSYM since
 SYMMETRY directive was detected!


          ------
          auto-z
          ------
  no constraints, skipping    0.0000000000000000     
  no constraints, skipping    0.0000000000000000     


                             Geometry "geometry" -> ""
                             -------------------------

 Output coordinates in a.u. (scale by  1.000000000 to convert to a.u.)

  No.       Tag          Charge          X              Y              Z
 ---- ---------------- ---------- -------------- -------------- --------------
    1 O                    8.0000    -0.17255800    -0.13699778     0.00000000
    2 H                    1.0000    -0.17255800     1.88157998     0.00000000
    3 H                    1.0000     1.55302200    -0.78559778     0.00000000

      Atomic Mass 
      ----------- 

      O                 15.994910
      H                  1.007825


 Effective nuclear repulsion energy (a.u.)       8.6176668213

            Nuclear Dipole moment (a.u.) 
            ----------------------------
        X                 Y               Z
 ---------------- ---------------- ----------------
    -0.0000000000    -0.0000000000     0.0000000000



                                Z-matrix (autoz)
                                -------- 

 Units are Angstrom for bonds and degrees for angles

      Type          Name      I     J     K     L     M      Value
      ----------- --------  ----- ----- ----- ----- ----- ----------
    1 Stretch                  1     2                       1.06819
    2 Stretch                  1     3                       0.97551
    3 Bend                     2     1     3               110.59992


            XYZ format geometry
            -------------------
     3
 geometry
 O                    -0.09131377    -0.07249611     0.00000000
 H                    -0.09131377     0.99568931     0.00000000
 H                     0.82182391    -0.41572047     0.00000000

 ==============================================================================
                                internuclear distances
 ------------------------------------------------------------------------------
       center one      |      center two      | atomic units |       a.u.
 ------------------------------------------------------------------------------
    3 H                |   1 O                |     1.84345  |     1.84345
 ------------------------------------------------------------------------------
                         number of included internuclear distances:          1
 ==============================================================================





 Summary of "ao basis" -> "" (spherical)
 ------------------------------------------------------------------------------
       Tag                 Description            Shells   Functions and Types
 ---------------- ------------------------------  ------  ---------------------
 *                          cc-pVDZ                   on all atoms 


                      Basis "ao basis" -> "ao basis" (spherical)
                      -----
  O (Oxygen)
  ----------
            Exponent  Coefficients 
       -------------- ---------------------------------------------------------
  1 S  1.17200000E+04  0.000710
  1 S  1.75900000E+03  0.005470
  1 S  4.00800000E+02  0.027837
  1 S  1.13700000E+02  0.104800
  1 S  3.70300000E+01  0.283062
  1 S  1.32700000E+01  0.448719
  1 S  5.02500000E+00  0.270952
  1 S  1.01300000E+00  0.015458

  2 S  1.17200000E+04 -0.000160
  2 S  1.75900000E+03 -0.001263
  2 S  4.00800000E+02 -0.006267
  2 S  1.13700000E+02 -0.025716
  2 S  3.70300000E+01 -0.070924
  2 S  1.32700000E+01 -0.165411
  2 S  5.02500000E+00 -0.116955
  2 S  1.01300000E+00  0.557368

  3 S  3.02300000E-01  1.000000

  4 P  1.77000000E+01  0.043018
  4 P  3.85400000E+00  0.228913
  4 P  1.04600000E+00  0.508728

  5 P  2.75300000E-01  1.000000

  6 D  1.18500000E+00  1.000000

  H (Hydrogen)
  ------------
            Exponent  Coefficients 
       -------------- ---------------------------------------------------------
  1 S  1.30100000E+01  0.019685
  1 S  1.96200000E+00  0.137977
  1 S  4.44600000E-01  0.478148

  2 S  1.22000000E-01  1.000000

  3 P  7.27000000E-01  1.000000



 Summary of "ao basis" -> "ao basis" (spherical)
 ------------------------------------------------------------------------------
       Tag                 Description            Shells   Functions and Types
 ---------------- ------------------------------  ------  ---------------------
 O                          cc-pVDZ                  6       14   3s2p1d
 H                          cc-pVDZ                  3        5   2s1p


                                 NWChem SCF Module
                                 -----------------


                                        H2O



  ao basis        = "ao basis"
  functions       =    24
  atoms           =     3
  closed shells   =     5
  open shells     =     0
  charge          =   0.00
  wavefunction    = RHF 
  input vectors   = ./h2o.mos
  output vectors  = ./h2o.mos
  use symmetry    = F
  symmetry adapt  = F


 Summary of "ao basis" -> "ao basis" (spherical)
 ------------------------------------------------------------------------------
       Tag                 Description            Shells   Functions and Types
 ---------------- ------------------------------  ------  ---------------------
 O                          cc-pVDZ                  6       14   3s2p1d
 H                          cc-pVDZ                  3        5   2s1p



 Forming initial guess at       0.0s


 Loading old vectors from job with title :

H2O


 Starting SCF solution at       0.0s



 ----------------------------------------------
         Quadratically convergent ROHF

 Convergence threshold     :          1.000E-04
 Maximum no. of iterations :           30
 Final Fock-matrix accuracy:          1.000E-07
 ----------------------------------------------


 #quartets = 3.081D+03 #integrals = 2.131D+04 #direct =  0.0% #cached =100.0%


 Integral file          = ./H2O.aoints.0
 Record size in doubles =  65536        No. of integs per rec  =  43688
 Max. records in memory =      4        Max. records in file   = 232251
 No. of bits per label  =      8        No. of bits per value  =     64


              iter       energy          gnorm     gmax       time
             ----- ------------------- --------- --------- --------
                 1      -76.0118184251  9.35D-03  3.69D-03      0.1
                 2      -76.0118249501  4.58D-05  1.35D-05      0.1


       Final RHF  results 
       ------------------ 

         Total SCF energy =    -76.011824950143
      One-electron energy =   -122.125044794281
      Two-electron energy =     37.495553022828
 Nuclear repulsion energy =      8.617666821309

        Time for solution =      0.0s


             Final eigenvalues
             -----------------

              1      
    1  -20.5573
    2   -1.3041
    3   -0.6767
    4   -0.5421
    5   -0.4868
    6    0.1724
    7    0.2463
    8    0.7374
    9    0.8071
   10    1.1627
   11    1.1971
   12    1.2558
   13    1.4482
   14    1.5074
   15    1.6930

                       ROHF Final Molecular Orbital Analysis
                       -------------------------------------

 Vector    2  Occ=2.000000D+00  E=-1.304060D+00
              MO Center=  4.4D-02, -1.5D-02, -7.3D-18, r^2= 5.2D-01
   Bfn.  Coefficient  Atom+Function         Bfn.  Coefficient  Atom+Function  
  ----- ------------  ---------------      ----- ------------  ---------------
     2      0.449049  1 O  s                  3      0.419915  1 O  s          
    20      0.188263  3 H  s          

 Vector    3  Occ=2.000000D+00  E=-6.766811D-01
              MO Center=  7.4D-02,  7.9D-02,  2.0D-18, r^2= 8.3D-01
   Bfn.  Coefficient  Atom+Function         Bfn.  Coefficient  Atom+Function  
  ----- ------------  ---------------      ----- ------------  ---------------
     5      0.365537  1 O  py                20     -0.337778  3 H  s          
     4     -0.310977  1 O  px                15      0.296592  2 H  s          
     8      0.177180  1 O  py         

 Vector    4  Occ=2.000000D+00  E=-5.420905D-01
              MO Center= -1.2D-01, -5.4D-02, -1.8D-17, r^2= 7.2D-01
   Bfn.  Coefficient  Atom+Function         Bfn.  Coefficient  Atom+Function  
  ----- ------------  ---------------      ----- ------------  ---------------
     4      0.430009  1 O  px                 5      0.336025  1 O  py         
     3     -0.306812  1 O  s                  7      0.306244  1 O  px         
     8      0.238061  1 O  py                15      0.218218  2 H  s          
    20      0.173085  3 H  s          

 Vector    5  Occ=2.000000D+00  E=-4.868415D-01
              MO Center= -7.3D-02, -6.3D-02,  3.5D-17, r^2= 6.0D-01
   Bfn.  Coefficient  Atom+Function         Bfn.  Coefficient  Atom+Function  
  ----- ------------  ---------------      ----- ------------  ---------------
     6      0.632739  1 O  pz                 9      0.499035  1 O  pz         

 Vector    6  Occ=0.000000D+00  E= 1.723887D-01
              MO Center=  3.1D-01,  5.4D-01,  5.9D-18, r^2= 2.9D+00
   Bfn.  Coefficient  Atom+Function         Bfn.  Coefficient  Atom+Function  
  ----- ------------  ---------------      ----- ------------  ---------------
     3      0.928545  1 O  s                 16     -0.912764  2 H  s          
    21     -0.665827  3 H  s                  8      0.274332  1 O  py         
     7      0.228221  1 O  px                 5      0.164129  1 O  py         

 Vector    7  Occ=0.000000D+00  E= 2.462555D-01
              MO Center=  6.4D-01,  1.0D-01,  4.0D-17, r^2= 3.5D+00
   Bfn.  Coefficient  Atom+Function         Bfn.  Coefficient  Atom+Function  
  ----- ------------  ---------------      ----- ------------  ---------------
    21      1.436370  3 H  s                 16     -1.154640  2 H  s          
     8      0.529508  1 O  py                 7     -0.404592  1 O  px         
     5      0.235182  1 O  py                 3     -0.199428  1 O  s          
     4     -0.178523  1 O  px         

 Vector    8  Occ=0.000000D+00  E= 7.373687D-01
              MO Center= -9.9D-02,  8.7D-01, -9.8D-17, r^2= 1.4D+00
   Bfn.  Coefficient  Atom+Function         Bfn.  Coefficient  Atom+Function  
  ----- ------------  ---------------      ----- ------------  ---------------
    15      1.272550  2 H  s                 16     -1.023906  2 H  s          
     5     -0.292395  1 O  py                 3      0.210179  1 O  s          
    18      0.205820  2 H  py                 8     -0.182015  1 O  py         
    21      0.170811  3 H  s                  2     -0.163112  1 O  s          

 Vector    9  Occ=0.000000D+00  E= 8.071329D-01
              MO Center=  6.7D-01, -3.3D-01,  1.5D-16, r^2= 1.3D+00
   Bfn.  Coefficient  Atom+Function         Bfn.  Coefficient  Atom+Function  
  ----- ------------  ---------------      ----- ------------  ---------------
    20      1.265575  3 H  s                 21     -0.865119  3 H  s          
     4     -0.279839  1 O  px                22      0.243998  3 H  px         
     7     -0.231455  1 O  px                 8      0.196116  1 O  py         
     2     -0.175011  1 O  s                 17     -0.153310  2 H  px         
     3      0.151381  1 O  s          

 Vector   10  Occ=0.000000D+00  E= 1.162662D+00
              MO Center= -1.4D-01,  2.4D-02, -2.7D-16, r^2= 1.2D+00
   Bfn.  Coefficient  Atom+Function         Bfn.  Coefficient  Atom+Function  
  ----- ------------  ---------------      ----- ------------  ---------------
     7      1.129193  1 O  px                 4     -0.713141  1 O  px         
     3      0.619144  1 O  s                 20     -0.459074  3 H  s          
     8      0.370510  1 O  py                 5     -0.341899  1 O  py         
    22      0.318044  3 H  px                15     -0.298986  2 H  s          
    21     -0.293372  3 H  s                 17      0.201110  2 H  px         

 Vector   11  Occ=0.000000D+00  E= 1.197140D+00
              MO Center= -9.1D-02, -5.8D-03, -6.5D-17, r^2= 1.1D+00
   Bfn.  Coefficient  Atom+Function         Bfn.  Coefficient  Atom+Function  
  ----- ------------  ---------------      ----- ------------  ---------------
     9     -0.977592  1 O  pz                 6      0.957226  1 O  pz         

 Vector   12  Occ=0.000000D+00  E= 1.255775D+00
              MO Center= -3.9D-02, -1.8D-01, -1.2D-15, r^2= 1.6D+00
   Bfn.  Coefficient  Atom+Function         Bfn.  Coefficient  Atom+Function  
  ----- ------------  ---------------      ----- ------------  ---------------
     8      1.489087  1 O  py                 7     -0.774616  1 O  px         
     5     -0.700766  1 O  py                21      0.703663  3 H  s          
    16     -0.680249  2 H  s                 15     -0.398833  2 H  s          
    18      0.373357  2 H  py                20      0.312823  3 H  s          
     4      0.259252  1 O  px                22     -0.243074  3 H  px         

 Vector   13  Occ=0.000000D+00  E= 1.448241D+00
              MO Center=  3.3D-01,  2.6D-01,  1.2D-15, r^2= 1.2D+00
   Bfn.  Coefficient  Atom+Function         Bfn.  Coefficient  Atom+Function  
  ----- ------------  ---------------      ----- ------------  ---------------
    19      0.691303  2 H  pz                24     -0.659281  3 H  pz         

 Vector   14  Occ=0.000000D+00  E= 1.507422D+00
              MO Center= -9.2D-03,  2.1D-02,  2.2D-16, r^2= 1.4D+00
   Bfn.  Coefficient  Atom+Function         Bfn.  Coefficient  Atom+Function  
  ----- ------------  ---------------      ----- ------------  ---------------
     3      0.785324  1 O  s                  2     -0.678306  1 O  s          
    17      0.609574  2 H  px                 7     -0.554843  1 O  px         
    23      0.542643  3 H  py                 8     -0.362645  1 O  py         
    22      0.297503  3 H  px                 1     -0.273234  1 O  s          
    20      0.247866  3 H  s                 21     -0.243182  3 H  s          

 Vector   15  Occ=0.000000D+00  E= 1.693043D+00
              MO Center=  2.4D-01,  1.5D-01, -3.5D-16, r^2= 1.3D+00
   Bfn.  Coefficient  Atom+Function         Bfn.  Coefficient  Atom+Function  
  ----- ------------  ---------------      ----- ------------  ---------------
    24      0.787688  3 H  pz                19      0.734006  2 H  pz         
     9     -0.664607  1 O  pz         


 center of mass
 --------------
 x =  -0.07599894 y =  -0.06033731 z =   0.00000000

 moments of inertia (a.u.)
 ------------------
           4.424669182040           1.261287893612           0.000000000000
           1.261287893612           2.833002082974           0.000000000000
           0.000000000000           0.000000000000           7.257671265014

  Mulliken analysis of the total density
  --------------------------------------

    Atom       Charge   Shell Charges
 -----------   ------   -------------------------------------------------------
    1 O    8     8.39   2.00  0.84  0.88  2.78  1.89  0.01
    2 H    1     0.79   0.61  0.11  0.07
    3 H    1     0.82   0.67  0.07  0.08

       Multipole analysis of the density wrt the origin
       ------------------------------------------------

     L   x y z        total         open         nuclear
     -   - - -        -----         ----         -------
     0   0 0 0      0.000000      0.000000     10.000000

     1   1 0 0      0.634726      0.000000     -0.000000
     1   0 1 0      0.474506      0.000000     -0.000000
     1   0 0 1     -0.000000      0.000000      0.000000

     2   2 0 0     -4.030707      0.000000      2.679864
     2   1 1 0     -0.801112      0.000000     -1.355612
     2   1 0 1      0.000000      0.000000      0.000000
     2   0 2 0     -3.224883      0.000000      4.307654
     2   0 1 1     -0.000000      0.000000      0.000000
     2   0 0 2     -5.341262      0.000000      0.000000


 Parallel integral file used       1 records with       0 large values

                   NWChem Extensible Many-Electron Theory Module
                   ---------------------------------------------

              ======================================================
                   This portion of the program was automatically
                  generated by a Tensor Contraction Engine (TCE).
                  The development of this portion of the program
                 and TCE was supported by US Department of Energy,
                Office of Science, Office of Basic Energy Science.
                      TCE is a product of Battelle and PNNL.
              Please cite: S.Hirata, J.Phys.Chem.A 107, 9887 (2003).
              ======================================================

                                        H2O


            General Information
            -------------------
      Number of processors :     1
         Wavefunction type : Restricted Hartree-Fock
          No. of electrons :    10
           Alpha electrons :     5
            Beta electrons :     5
           No. of orbitals :    48
            Alpha orbitals :    24
             Beta orbitals :    24
        Alpha frozen cores :     0
         Beta frozen cores :     0
     Alpha frozen virtuals :     0
      Beta frozen virtuals :     0
         Spin multiplicity : singlet 
    Number of AO functions :    24
       Number of AO shells :    12
        Use of symmetry is : off
      Symmetry adaption is : off
         Schwarz screening : 0.10D-09

          Correlation Information
          -----------------------
          Calculation type : Coupled-cluster singles & doubles                           
   Perturbative correction : none                                                        
            Max iterations :      300
        Residual threshold : 0.10D-06
     T(0) DIIS level shift : 0.00D+00
     L(0) DIIS level shift : 0.00D+00
     T(1) DIIS level shift : 0.00D+00
     L(1) DIIS level shift : 0.00D+00
     T(R) DIIS level shift : 0.00D+00
     T(I) DIIS level shift : 0.00D+00
   CC-T/L Amplitude update :  5-th order DIIS
                I/O scheme : Global Array Library
        L-threshold :  0.10D-06
        EOM-threshold :  0.10D-06
 no EOMCCSD initial starts read in
 TCE RESTART OPTIONS
 READ_INT:   F
 WRITE_INT:  F
 READ_TA:    F
 WRITE_TA:   F
 READ_XA:    F
 WRITE_XA:   F
 READ_IN3:   F
 WRITE_IN3:  F
 SLICE:      F
 D4D5:       F
 quantumc:   F
 qrotation:  F
 pwtce:      F
 qducc:      T
 nacto:                         0
 nrotv:                         0
 nrot:                          0

            Memory Information
            ------------------
          Available GA space size is    1610612160 doubles
          Available MA space size is    1610610956 doubles

 Maximum block size        32 doubles

 tile_dim =     19

 Block   Spin    Irrep     Size     Offset   Alpha
 -------------------------------------------------
   1    alpha     a      5 doubles       0       1
   2    beta      a      5 doubles       5       1
   3    alpha     a     19 doubles      10       3
   4    beta      a     19 doubles      29       3

 Global array virtual files algorithm will be used

 Parallel file system coherency ......... OK

 #quartets = 3.081D+03 #integrals = 2.131D+04 #direct =  0.0% #cached =100.0%


 Integral file          = ./H2O.aoints.0
 Record size in doubles =  65536        No. of integs per rec  =  43688
 Max. records in memory =      4        Max. records in file   = 232251
 No. of bits per label  =      8        No. of bits per value  =     64


 Fock matrix recomputed
 1-e file size   =              576
 1-e file name   = ./H2O.f1
 Cpu & wall time / sec            0.0            0.0
 4-electron integrals stored in orbital form

 v2    file size   =           185666
 4-index algorithm nr.  13 is used
 imaxsize =       30
 imaxsize ichop =        0
 Cpu & wall time / sec            0.1            0.1
 T1-number-of-tasks                    1

 t1 file size   =               95
 t1 file name   = ./H2O.t1
 t1 file handle =       -998
 T2-number-of-boxes                    2

 t2 file size   =            18050
 t2 file name   = ./H2O.t2
 t2 file handle =       -996
CCSD iterations
 ---------------------------------------------------------
 Iter          Residuum       Correlation     Cpu    Wall 
 ---------------------------------------------------------
NEW TASK SCHEDULING
CCSD_T1_NTS --- OK
CCSD_T2_NTS --- OK
    1   0.1104201700815  -0.2078468776484     0.0     0.0
    2   0.0317154159656  -0.2129020236602     0.0     0.0
    3   0.0118974534968  -0.2160260091434     0.0     0.0
    4   0.0049723683504  -0.2168174296720     0.0     0.0
    5   0.0021766616738  -0.2171405620755     0.0     0.0
 MICROCYCLE DIIS UPDATE:                    5                    5
    6   0.0002876258266  -0.2173490527520     0.0     0.0
    7   0.0001585940693  -0.2173591543705     0.0     0.0
    8   0.0000781193063  -0.2173600898804     0.0     0.0
    9   0.0000475708370  -0.2173602897739     0.0     0.0
   10   0.0000275503687  -0.2173606531753     0.0     0.0
 MICROCYCLE DIIS UPDATE:                   10                    5
   11   0.0000025715469  -0.2173613073549     0.0     0.0
   12   0.0000009431237  -0.2173611986545     0.0     0.0
   13   0.0000004346564  -0.2173612239148     0.0     0.0
   14   0.0000002264850  -0.2173612218231     0.0     0.0
   15   0.0000001182446  -0.2173612216098     0.0     0.0
 MICROCYCLE DIIS UPDATE:                   15                    5
   16   0.0000000215660  -0.2173612191606     0.0     0.0
 -----------------------------------------------------------------
 Iterations converged
 CCSD correlation energy / hartree =        -0.217361219160558
 CCSD total energy / hartree       =       -76.229186169303787

 Singles contributions

 Doubles contributions
    10a   (alpha)    11a   (alpha) ---     4a   (alpha)     5a   (alpha)        0.0200088829
    10a   (alpha)    11a   (alpha) ---     5a   (alpha)     4a   (alpha)       -0.0200088829
    11a   (alpha)    10a   (alpha) ---     4a   (alpha)     5a   (alpha)       -0.0200088829
    11a   (alpha)    10a   (alpha) ---     5a   (alpha)     4a   (alpha)        0.0200088829
     6a   (alpha)     6a   (beta ) ---     3a   (alpha)     3a   (beta )       -0.0203590521
     6a   (alpha)     6a   (beta ) ---     4a   (alpha)     4a   (beta )       -0.0252017174
     7a   (alpha)     7a   (beta ) ---     3a   (alpha)     3a   (beta )       -0.0333132773
     7a   (alpha)    11a   (beta ) ---     3a   (alpha)     5a   (beta )       -0.0223050804
     8a   (alpha)     8a   (beta ) ---     3a   (alpha)     3a   (beta )       -0.0318831503
     8a   (alpha)     8a   (beta ) ---     3a   (alpha)     4a   (beta )       -0.0219101765
     8a   (alpha)     8a   (beta ) ---     4a   (alpha)     3a   (beta )       -0.0219101765
     8a   (alpha)     8a   (beta ) ---     4a   (alpha)     4a   (beta )       -0.0242351617
     9a   (alpha)     9a   (beta ) ---     3a   (alpha)     3a   (beta )       -0.0352668360
    10a   (alpha)    10a   (beta ) ---     4a   (alpha)     4a   (beta )       -0.0354708549
    10a   (alpha)    11a   (beta ) ---     4a   (alpha)     5a   (beta )        0.0284475375
    11a   (alpha)     7a   (beta ) ---     5a   (alpha)     3a   (beta )       -0.0223050804
    11a   (alpha)    10a   (beta ) ---     5a   (alpha)     4a   (beta )        0.0284475375
    11a   (alpha)    11a   (beta ) ---     5a   (alpha)     5a   (beta )       -0.0510143754
    11a   (alpha)    12a   (beta ) ---     5a   (alpha)     3a   (beta )        0.0205248908
    12a   (alpha)    11a   (beta ) ---     3a   (alpha)     5a   (beta )        0.0205248908
 Ground state specification:
 exp(T)|Ref>~(1+T)|Ref>
 ------- a(p)+/a(q) strings ----------

 singles norm

 doubles norm

 Reference string
   1.0000000000000000      :(1a)+ (2a)+ (3a)+ (4a)+ (5a)+ (1b)+ (2b)+ (3b)+ (4b)+ (5b)+ |0>

 Singles strings

 Doubles strings
 -------------------------------------
 enrep_tce =    8.6176668213091254     
  EHF(total)         =       -76.01182495
  Shift (HFtot-HFA)  =         0.00000000
 ALL OCCUPIED ORBITALS ARE ACTIVE IN DUCC --> NO SHIFT
 Number of active orbitals                    8
 Number of active alpha electrons                    5
 Number of active beta electrons                    5
  nos                    10
  nvs                    38
 noas                     5
 nobs                     5
 nvas                    19
 nvbs                    19
 nactv                     3
 DUCC MODEL =                     6
 NONHF =  T
 F-T1 correlation    =   -6.9329968121714835E-009
 V-T1-T1 correlation =    2.1594629517232091E-005
 V-T2 correlation    =  -0.21738280685705319     
 Total correlation   =  -0.21736121916053278     
 F-T1(Ext) correlation         =    3.4784084631450293E-008
 V-T1(Ext)-T1(Ext) correlation =    8.5675295840886076E-006
 V-T2(Ext) correlation         =  -0.19605747842213145     
 Total Ext correlation         =  -0.19604887610846272     
1-BODY TIME =    1.756 SECONDS.
  HHHH TIME =    1.859 SECONDS.
  PPPP TIME =    0.027 SECONDS.
  HHHP TIME =    0.604 SECONDS.
  PPPH TIME =    0.077 SECONDS.
  HPHP TIME =    0.332 SECONDS.
  HHPP TIME =    0.324 SECONDS.
 ONE-BODY UNITARY CHECK
 TWO-BODY UNITARY CHECK
                    2                    2                    2                    4  -1.0789944535081673E-012
                    2                    2                    3                    4   2.4178726146948599E-012
                    2                    2                    4                    2   1.0789931533920026E-012
                    2                    2                    4                    3  -2.4178726916160394E-012
                    2                    3                    3                    2  -2.6874058534076539E-012
                    2                    3                    3                    4  -4.8475459757391093E-012
                    2                    3                    4                    3   5.0368598181194102E-012
                    2                    4                    2                    2   1.0789944535081673E-012
                    2                    4                    3                    2   3.3434158219769472E-012
                    2                    4                    4                    2   2.0397017408413376E-012
                    2                    4                    4                    4   1.0059655746151735E-012
                    2                    5                    3                    5  -1.8587718170204326E-012
                    2                    5                    4                    5   5.5400233012203870E-012
                    2                    5                    5                    3   1.9187199572223701E-012
                    2                    5                    5                    4  -4.6348758164782566E-012
                    2                    6                    8                    4   1.1100035550003912E-012
                    2                    7                    2                    8   2.1612590189734604E-012
                    2                    7                    2                    9  -1.8775822910321871E-012
                    2                    7                    3                    7  -1.8653828481873802E-012
                    2                    7                    3                    8   2.4034274570539083E-011
                    2                    7                    3                    9  -1.9803290734685119E-011
                    2                    7                    4                    7   7.9517152411223702E-012
                    2                    7                    4                    8   2.8414111341579229E-012
                    2                    7                    4                    9  -1.3279252697451227E-011
                    2                    7                    5                   10  -7.1306294202599929E-012
                    2                    7                    7                    3  -2.2948084404950109E-012
                    2                    7                    8                    2   1.9989340044324067E-012
                    2                    7                    8                    3  -2.4034246814963467E-011
                    2                    7                    8                    4   2.2221167831140698E-011
                    2                    7                    9                    2  -6.8727267800439140E-012
                    2                    7                    9                    3  -5.2592858453687219E-012
                    2                    7                    9                    4   1.3279252697451227E-011
                    2                    7                   10                    5   7.1306155424721851E-012
                    2                    8                    2                    7  -2.1612590189734604E-012
                    2                    8                    3                    7   1.7930767981511053E-011
                    2                    8                    3                    8  -1.4006934501153978E-011
                    2                    8                    3                    9   1.4999911035484814E-011
                    2                    8                    4                    7   1.3528826496578272E-012
                    2                    8                    4                    8   9.6391523235483945E-012
                    2                    8                    4                    9  -3.9482410396640688E-012
                    2                    8                    5                   10  -2.7353969783705523E-012
                    2                    8                    7                    2   2.2948136446654388E-012
                    2                    8                    8                    2  -2.0620172236363032E-011
                    2                    8                    8                    3   1.3920244297527251E-011
                    2                    8                    8                    4  -1.9847347723644937E-011
                    2                    8                    9                    2  -2.2117134512722458E-012
                    2                    8                    9                    3  -4.6023948541140669E-012
                    2                    8                    9                    4   3.7124851803849168E-012
                    2                    8                   10                    5   2.4424446840032310E-012
                    2                    9                    2                    7   1.8775822910321871E-012
                    2                    9                    3                    7  -1.3413803488099285E-011
                    2                    9                    3                    8   1.4467205211587952E-011
                    2                    9                    3                    9   1.2061792536988136E-012
                    2                    9                    4                    7  -9.0046581302516415E-012
                    2                    9                    4                    8  -1.3101724566366713E-012
                    2                    9                    4                    9   2.1918633574813384E-011
                    2                    9                    5                   10   7.4117136039664189E-012
                    2                    9                    8                    2   1.6757215406948411E-011
                    2                    9                    8                    3  -1.4772748996305651E-011
                    2                    9                    8                    4  -1.6669096658539218E-012
                    2                    9                    9                    2   1.1044276604366132E-011
                    2                    9                    9                    3   2.2984340125598024E-012
                    2                    9                    9                    4  -2.0912674369988338E-011
                    2                    9                   10                    5  -7.4238809544269202E-012
                    2                   10                    3                   10   3.7354982388576596E-012
                    2                   10                    4                   10   1.3532425180429186E-011
                    2                   10                    5                    7  -5.8477944708812402E-012
                    2                   10                    5                    9   3.7337216651778249E-012
                    2                   10                    8                    5  -5.5942776452932996E-012
                    2                   10                    9                    5  -7.9924331042313668E-012
                    2                   10                   10                    2   6.8325345381481384E-012
                    2                   10                   10                    3   2.5897285618053933E-012
                    2                   10                   10                    4  -8.3685558482926581E-012
                    3                    2                    2                    3   2.6874058534076539E-012
                    3                    2                    2                    4  -3.3434158219769472E-012
                    3                    2                    4                    2   3.3327438031527379E-012
                    3                    3                    3                    4  -1.3337721315169047E-011
                    3                    3                    4                    3   1.3337723316469673E-011
                    3                    4                    2                    2  -2.4178726146948599E-012
                    3                    4                    2                    3   4.8475459757391093E-012
                    3                    4                    3                    3   1.3337721315169047E-011
                    3                    4                    4                    2   1.0240246151038690E-012
                    3                    4                    4                    3   2.3220425582337612E-011
                    3                    4                    4                    4   3.0675151909507821E-012
                    3                    5                    2                    5   1.8587718170204326E-012
                    3                    5                    4                    5   1.3853152999732110E-011
                    3                    5                    5                    2   1.5308739519104275E-012
                    3                    5                    5                    3   1.6722290219206570E-011
                    3                    5                    5                    4  -1.2144054858942432E-011
                    3                    6                    3                    8  -1.4151144448956710E-012
                    3                    6                    4                    9  -1.4192850453925709E-012
                    3                    6                    5                   10  -1.1311214551806836E-012
                    3                    6                    8                    3   1.1092695772346728E-012
                    3                    6                    9                    4   1.3400613084468826E-012
                    3                    6                   10                    5   1.1924404606095118E-012
                    3                    7                    2                    7   1.8653828481873802E-012
                    3                    7                    2                    8  -1.7930767981511053E-011
                    3                    7                    2                    9   1.3413803488099285E-011
                    3                    7                    3                    8  -6.5385791399308335E-012
                    3                    7                    3                    9   1.6424760856947884E-012
                    3                    7                    4                    7   1.8480255520314515E-011
                    3                    7                    4                    8  -9.0277750552925085E-012
                    3                    7                    4                    9  -2.9537153972691854E-012
                    3                    7                    5                   10  -6.3023353896740630E-012
                    3                    7                    7                    2  -1.9989426780497865E-012
                    3                    7                    7                    3   2.0620172236363032E-011
                    3                    7                    7                    4  -1.6757208468054507E-011
                    3                    7                    8                    3   6.6252780171749404E-012
                    3                    7                    8                    4  -1.3697341871843349E-012
                    3                    7                    9                    2  -1.5147509115076563E-011
                    3                    7                    9                    3   8.5657175796782781E-012
                    3                    7                    9                    4   3.1894712565483374E-012
                    3                    7                   10                    5   6.5952842145944324E-012
                    3                    8                    2                    7  -2.4034274570539083E-011
                    3                    8                    2                    8   1.4006934501153978E-011
                    3                    8                    2                    9  -1.4467205211587952E-011
                    3                    8                    3                    6   1.4151144448956710E-012
                    3                    8                    3                    7   6.5385791399308335E-012
                    3                    8                    3                    9  -1.0977383498728122E-011
                    3                    8                    4                    6   1.0985995099743739E-012
                    3                    8                    4                    7  -1.5963827482146087E-012
                    3                    8                    4                    8   4.6045027166097263E-011
                    3                    8                    4                    9  -4.0097418441131794E-011
                    3                    8                    5                   10  -2.1767566915631420E-011
                    3                    8                    7                    2   2.4034274570539083E-011
                    3                    8                    7                    3  -1.3920233021824657E-011
                    3                    8                    7                    4   1.4772797568562979E-011
                    3                    8                    8                    1  -1.1092704445964108E-012
                    3                    8                    8                    2  -6.6252914612818792E-012
                    3                    8                    8                    4  -2.3603311145869998E-012
                    3                    8                    9                    1  -1.2180833598718355E-012
                    3                    8                    9                    2   1.2907938606865343E-012
                    3                    8                    9                    3  -3.2707312119101273E-011
                    3                    8                    9                    4   4.0097418441131794E-011
                    3                    8                   10                    5   2.1767566915631420E-011
                    3                    9                    2                    7   1.9803290734685119E-011
                    3                    9                    2                    8  -1.4999911035484814E-011
                    3                    9                    2                    9  -1.2061792536988136E-012
                    3                    9                    3                    7  -1.6424760856947884E-012
                    3                    9                    3                    8   1.0977383498728122E-011
                    3                    9                    4                    7  -2.5307533846330443E-012
                    3                    9                    4                    8  -2.3373733504250538E-011
                    3                    9                    4                    9   5.6009943211199342E-011
                    3                    9                    5                   10   1.8396468159584400E-011
                    3                    9                    7                    1  -1.1100030942144679E-012
                    3                    9                    7                    2  -2.2221163711172442E-011
                    3                    9                    7                    3   1.9847326906963225E-011
                    3                    9                    7                    4   1.6669114005773977E-012
                    3                    9                    8                    2   1.3697445955251908E-012
                    3                    9                    8                    3   2.3603458597365456E-012
                    3                    9                    9                    2   3.5547641219491055E-012
                    3                    9                    9                    3   4.6593728875166107E-011
                    3                    9                    9                    4  -5.2942416076118270E-011
                    3                    9                   10                    5  -1.8970631922993197E-011
                    3                   10                    2                   10  -3.7354982388576596E-012
                    3                   10                    4                   10   2.3797245424228564E-011
                    3                   10                    5                    7  -6.6133704415549666E-012
                    3                   10                    5                    8  -9.2348420577259560E-012
                    3                   10                    5                    9   8.7918383510909859E-012
                    3                   10                    7                    5   5.5942785126550376E-012
                    3                   10                    9                    5  -9.9440338775791393E-012
                    3                   10                   10                    2   8.1442205410175994E-012
                    3                   10                   10                    3   2.5956570226526310E-011
                    3                   10                   10                    4  -2.0935959563206374E-011
                    4                    2                    2                    2  -1.0789931533920026E-012
                    4                    2                    2                    4  -2.0397017408413376E-012
                    4                    2                    3                    2  -3.3327438031527379E-012
                    4                    2                    3                    4  -1.0240246151038690E-012
                    4                    2                    4                    4  -1.0059697080763991E-012
                    4                    3                    2                    2   2.4178726916160394E-012
                    4                    3                    2                    3  -5.0368598181194102E-012
                    4                    3                    3                    3  -1.3337723316469673E-011
                    4                    3                    3                    4  -2.3220425582337612E-011
                    4                    3                    4                    4  -3.0675152043047859E-012
                    4                    4                    2                    4  -1.0059655746151735E-012
                    4                    4                    3                    4  -3.0675151909507821E-012
                    4                    4                    4                    2   1.0059697080763991E-012
                    4                    4                    4                    3   3.0675152043047859E-012
                    4                    5                    2                    5  -5.5400233012203870E-012
                    4                    5                    3                    5  -1.3853152999732110E-011
                    4                    5                    5                    2   1.4620648441932005E-012
                    4                    5                    5                    3   3.7215057424599962E-012
                    4                    5                    5                    4  -1.7763568394002505E-012
                    4                    6                    3                    8  -1.0985995099743739E-012
                    4                    6                    8                    3   1.2180820588292285E-012
                    4                    7                    2                    7  -7.9517152411223702E-012
                    4                    7                    2                    8  -1.3528826496578272E-012
                    4                    7                    2                    9   9.0046581302516415E-012
                    4                    7                    3                    7  -1.8480255520314515E-011
                    4                    7                    3                    8   1.5963827482146087E-012
                    4                    7                    3                    9   2.5307533846330443E-012
                    4                    7                    4                    9  -1.9127338601876431E-012
                    4                    7                    5                   10  -4.8971139643416706E-012
                    4                    7                    7                    2   6.8727207085117481E-012
                    4                    7                    7                    3   2.2116891651435822E-012
                    4                    7                    7                    4  -1.1044276604366132E-011
                    4                    7                    8                    2   1.5147512584523515E-011
                    4                    7                    8                    3  -1.2908424329438617E-012
                    4                    7                    8                    4  -3.5547571830552016E-012
                    4                    7                   10                    5   4.9092813148021719E-012
                    4                    8                    2                    7  -2.8414111341579229E-012
                    4                    8                    2                    8  -9.6391523235483945E-012
                    4                    8                    2                    9   1.3101724566366713E-012
                    4                    8                    3                    7   9.0277750552925085E-012
                    4                    8                    3                    8  -4.6045027166097263E-011
                    4                    8                    3                    9   2.3373733504250538E-011
                    4                    8                    4                    9  -1.6639224720282897E-012
                    4                    8                    5                   10  -3.3457112948165335E-012
                    4                    8                    7                    2   5.2592830264430734E-012
                    4                    8                    7                    3   4.6023566901975954E-012
                    4                    8                    7                    4  -2.2984409514537063E-012
                    4                    8                    8                    2  -8.5657037018904703E-012
                    4                    8                    8                    3   3.2707304746526500E-011
                    4                    8                    8                    4  -4.6593728875166107E-011
                    4                    8                    9                    4  -1.4035942547119262E-012
                    4                    8                   10                    5   3.9198724561401166E-012
                    4                    9                    2                    7   1.3279252697451227E-011
                    4                    9                    2                    8   3.9482410396640688E-012
                    4                    9                    2                    9  -2.1918633574813384E-011
                    4                    9                    3                    6   1.4192850453925709E-012
                    4                    9                    3                    7   2.9537153972691854E-012
                    4                    9                    3                    8   4.0097418441131794E-011
                    4                    9                    3                    9  -5.6009943211199342E-011
                    4                    9                    4                    7   1.9127338601876431E-012
                    4                    9                    4                    8   1.6639224720282897E-012
                    4                    9                    5                   10   5.3366477903438181E-012
                    4                    9                    7                    2  -1.3279252697451227E-011
                    4                    9                    7                    3  -3.7124591595327772E-012
                    4                    9                    7                    4   2.0912674369988338E-011
                    4                    9                    8                    1  -1.3400641273725311E-012
                    4                    9                    8                    2  -3.1894955426770011E-012
                    4                    9                    8                    3  -4.0097425380025697E-011
                    4                    9                    8                    4   5.2942402198330463E-011
                    4                    9                    9                    3   1.4036133366701620E-012
                    4                    9                   10                    5  -5.3365992180864907E-012
                    4                   10                    2                   10  -1.3532425180429186E-011
                    4                   10                    3                   10  -2.3797245424228564E-011
                    4                   10                    5                    7  -3.7531089347453417E-012
                    4                   10                    5                    8  -1.9649967417101344E-012
                    4                   10                    5                    9   2.7412794256775896E-012
                    4                   10                    7                    5   7.9924018792087992E-012
                    4                   10                    8                    5   9.9440356123026152E-012
                    4                   10                   10                    2   5.2151824525559221E-012
                    4                   10                   10                    3   5.6865397807248641E-012
                    4                   10                   10                    4  -4.5181636210145371E-012
                    5                    2                    3                    5  -1.5308739519104275E-012
                    5                    2                    4                    5  -1.4620648441932005E-012
                    5                    2                    5                    3   1.4709240769850140E-012
                    5                    3                    2                    5  -1.9187199572223701E-012
                    5                    3                    3                    5  -1.6722290219206570E-011
                    5                    3                    4                    5  -3.7215057424599962E-012
                    5                    3                    5                    2  -1.4709240769850140E-012
                    5                    3                    5                    4   2.0124110711172705E-012
                    5                    4                    2                    5   4.6348758164782566E-012
                    5                    4                    3                    5   1.2144054858942432E-011
                    5                    4                    4                    5   1.7763568394002505E-012
                    5                    4                    5                    3  -2.0124110711172705E-012
                    5                    7                    2                   10   5.8477944708812402E-012
                    5                    7                    3                   10   6.6133704415549666E-012
                    5                    7                    4                   10   3.7531089347453417E-012
                    5                    7                    5                    8   1.8189894035458565E-012
                    5                    7                    7                    5  -6.8325345381481384E-012
                    5                    7                    8                    5  -8.1442133852832610E-012
                    5                    7                    9                    5  -5.2152587803888650E-012
                    5                    8                    3                   10   9.2348420577259560E-012
                    5                    8                    4                   10   1.9649967417101344E-012
                    5                    8                    5                    7  -1.8189894035458565E-012
                    5                    8                    5                    9   2.8252539197026749E-012
                    5                    8                    7                    5  -2.5897359343801662E-012
                    5                    8                    8                    5  -2.5956459204223847E-011
                    5                    8                    9                    5  -5.6865380460013881E-012
                    5                    9                    2                   10  -3.7337216651778249E-012
                    5                    9                    3                   10  -8.7918383510909859E-012
                    5                    9                    4                   10  -2.7412794256775896E-012
                    5                    9                    5                    8  -2.8252539197026749E-012
                    5                    9                    7                    5   8.3686321761256011E-012
                    5                    9                    8                    5   2.0935959563206374E-011
                    5                    9                    9                    5   4.5182746433169996E-012
                    5                   10                    2                    7   7.1306294202599929E-012
                    5                   10                    2                    8   2.7353969783705523E-012
                    5                   10                    2                    9  -7.4117136039664189E-012
                    5                   10                    3                    6   1.1311214551806836E-012
                    5                   10                    3                    7   6.3023353896740630E-012
                    5                   10                    3                    8   2.1767566915631420E-011
                    5                   10                    3                    9  -1.8396468159584400E-011
                    5                   10                    4                    7   4.8971139643416706E-012
                    5                   10                    4                    8   3.3457112948165335E-012
                    5                   10                    4                    9  -5.3366477903438181E-012
                    5                   10                    7                    2  -7.1306155424721851E-012
                    5                   10                    7                    3  -2.4424299388536852E-012
                    5                   10                    7                    4   7.4238983016616800E-012
                    5                   10                    8                    1  -1.1924365574816909E-012
                    5                   10                    8                    2  -6.5953032965526681E-012
                    5                   10                    8                    3  -2.1767566915631420E-011
                    5                   10                    8                    4   1.8970636259801887E-011
                    5                   10                    9                    2  -4.9092986620369317E-012
                    5                   10                    9                    3  -3.9198772266296755E-012
                    5                   10                    9                    4   5.3366477903438181E-012
                    7                    1                    3                    9   1.1100030942144679E-012
                    7                    2                    2                    8  -2.2948136446654388E-012
                    7                    2                    3                    7   1.9989426780497865E-012
                    7                    2                    3                    8  -2.4034274570539083E-011
                    7                    2                    3                    9   2.2221163711172442E-011
                    7                    2                    4                    7  -6.8727207085117481E-012
                    7                    2                    4                    8  -5.2592830264430734E-012
                    7                    2                    4                    9   1.3279252697451227E-011
                    7                    2                    5                   10   7.1306155424721851E-012
                    7                    2                    7                    3   2.1612486106326045E-012
                    7                    2                    7                    4  -1.8775814236704491E-012
                    7                    2                    8                    2  -1.8653793787404283E-012
                    7                    2                    8                    3   2.4034246814963467E-011
                    7                    2                    8                    4  -1.9803295938855547E-011
                    7                    2                    9                    2   7.9517139400797632E-012
                    7                    2                    9                    3   2.8414122183600954E-012
                    7                    2                    9                    4  -1.3279252697451227E-011
                    7                    2                   10                    5  -7.1306294202599929E-012
                    7                    3                    2                    7   2.2948084404950109E-012
                    7                    3                    3                    7  -2.0620172236363032E-011
                    7                    3                    3                    8   1.3920233021824657E-011
                    7                    3                    3                    9  -1.9847326906963225E-011
                    7                    3                    4                    7  -2.2116891651435822E-012
                    7                    3                    4                    8  -4.6023566901975954E-012
                    7                    3                    4                    9   3.7124591595327772E-012
                    7                    3                    5                   10   2.4424299388536852E-012
                    7                    3                    7                    2  -2.1612486106326045E-012
                    7                    3                    8                    2   1.7930823492662284E-011
                    7                    3                    8                    3  -1.4006945343175703E-011
                    7                    3                    8                    4   1.4999834707651871E-011
                    7                    3                    9                    2   1.3528856854239102E-012
                    7                    3                    9                    3   9.6391315068666827E-012
                    7                    3                    9                    4  -3.9482150188119292E-012
                    7                    3                   10                    5  -2.7353804984975305E-012
                    7                    4                    3                    7   1.6757208468054507E-011
                    7                    4                    3                    8  -1.4772797568562979E-011
                    7                    4                    3                    9  -1.6669114005773977E-012
                    7                    4                    4                    7   1.1044276604366132E-011
                    7                    4                    4                    8   2.2984409514537063E-012
                    7                    4                    4                    9  -2.0912674369988338E-011
                    7                    4                    5                   10  -7.4238983016616800E-012
                    7                    4                    7                    2   1.8775814236704491E-012
                    7                    4                    8                    2  -1.3413802620737547E-011
                    7                    4                    8                    3   1.4467257253292232E-011
                    7                    4                    8                    4   1.2061740495283857E-012
                    7                    4                    9                    2  -9.0046858858272572E-012
                    7                    4                    9                    3  -1.3101689871897193E-012
                    7                    4                    9                    4   2.1918661330389000E-011
                    7                    4                   10                    5   7.4117309512011786E-012
                    7                    5                    3                   10  -5.5942785126550376E-012
                    7                    5                    4                   10  -7.9924018792087992E-012
                    7                    5                    5                    7   6.8325345381481384E-012
                    7                    5                    5                    8   2.5897359343801662E-012
                    7                    5                    5                    9  -8.3686321761256011E-012
                    7                    5                    8                    5   3.7354884810381073E-012
                    7                    5                    9                    5   1.3532501508262129E-011
                    7                    5                   10                    2  -5.8478777376080870E-012
                    7                    5                   10                    4   3.7336904401552573E-012
                    7                    7                    7                    9  -1.0789952429973646E-012
                    7                    7                    8                    9   2.4178722373398208E-012
                    7                    7                    9                    7   1.0789940987617320E-012
                    7                    7                    9                    8  -2.4178723638256626E-012
                    7                    8                    8                    7  -2.6880719872224290E-012
                    7                    8                    8                    9  -4.8475477104625853E-012
                    7                    8                    9                    8   5.0368615528428862E-012
                    7                    9                    7                    7   1.0789952429973646E-012
                    7                    9                    8                    7   3.3434175567004232E-012
                    7                    9                    9                    7   2.0397017408413376E-012
                    7                    9                    9                    9   1.0059684782654424E-012
                    7                   10                    8                   10  -1.8587718170204326E-012
                    7                   10                    9                   10   5.5400267706673390E-012
                    7                   10                   10                    8   1.9187195235415011E-012
                    7                   10                   10                    9  -4.6348775512017326E-012
                    8                    1                    3                    8   1.1092704445964108E-012
                    8                    1                    4                    9   1.3400641273725311E-012
                    8                    1                    5                   10   1.1924365574816909E-012
                    8                    1                    8                    3  -1.4151153122574089E-012
                    8                    1                    9                    4  -1.4192878643182194E-012
                    8                    1                   10                    5  -1.1311175520528627E-012
                    8                    2                    2                    7  -1.9989340044324067E-012
                    8                    2                    2                    8   2.0620172236363032E-011
                    8                    2                    2                    9  -1.6757215406948411E-011
                    8                    2                    3                    8   6.6252914612818792E-012
                    8                    2                    3                    9  -1.3697445955251908E-012
                    8                    2                    4                    7  -1.5147512584523515E-011
                    8                    2                    4                    8   8.5657037018904703E-012
                    8                    2                    4                    9   3.1894955426770011E-012
                    8                    2                    5                   10   6.5953032965526681E-012
                    8                    2                    7                    2   1.8653793787404283E-012
                    8                    2                    7                    3  -1.7930823492662284E-011
                    8                    2                    7                    4   1.3413802620737547E-011
                    8                    2                    8                    3  -6.5385899819525584E-012
                    8                    2                    8                    4   1.6424899634825962E-012
                    8                    2                    9                    2   1.8480272867549274E-011
                    8                    2                    9                    3  -9.0277646469516526E-012
                    8                    2                    9                    4  -2.9537414181213251E-012
                    8                    2                   10                    5  -6.3023518695470848E-012
                    8                    3                    2                    7   2.4034246814963467E-011
                    8                    3                    2                    8  -1.3920244297527251E-011
                    8                    3                    2                    9   1.4772748996305651E-011
                    8                    3                    3                    6  -1.1092695772346728E-012
                    8                    3                    3                    7  -6.6252780171749404E-012
                    8                    3                    3                    9  -2.3603458597365456E-012
                    8                    3                    4                    6  -1.2180820588292285E-012
                    8                    3                    4                    7   1.2908424329438617E-012
                    8                    3                    4                    8  -3.2707304746526500E-011
                    8                    3                    4                    9   4.0097425380025697E-011
                    8                    3                    5                   10   2.1767566915631420E-011
                    8                    3                    7                    2  -2.4034246814963467E-011
                    8                    3                    7                    3   1.4006945343175703E-011
                    8                    3                    7                    4  -1.4467257253292232E-011
                    8                    3                    8                    1   1.4151153122574089E-012
                    8                    3                    8                    2   6.5385899819525584E-012
                    8                    3                    8                    4  -1.0977389136579419E-011
                    8                    3                    9                    1   1.0986003773361119E-012
                    8                    3                    9                    2  -1.5963307065103294E-012
                    8                    3                    9                    3   4.6045041911246809E-011
                    8                    3                    9                    4  -4.0097432318919601E-011
                    8                    3                   10                    5  -2.1767566915631420E-011
                    8                    4                    2                    6  -1.1100035550003912E-012
                    8                    4                    2                    7  -2.2221167831140698E-011
                    8                    4                    2                    8   1.9847347723644937E-011
                    8                    4                    2                    9   1.6669096658539218E-012
                    8                    4                    3                    7   1.3697341871843349E-012
                    8                    4                    3                    8   2.3603311145869998E-012
                    8                    4                    4                    7   3.5547571830552016E-012
                    8                    4                    4                    8   4.6593728875166107E-011
                    8                    4                    4                    9  -5.2942402198330463E-011
                    8                    4                    5                   10  -1.8970636259801887E-011
                    8                    4                    7                    2   1.9803295938855547E-011
                    8                    4                    7                    3  -1.4999834707651871E-011
                    8                    4                    7                    4  -1.2061740495283857E-012
                    8                    4                    8                    2  -1.6424899634825962E-012
                    8                    4                    8                    3   1.0977389136579419E-011
                    8                    4                    9                    2  -2.5307516499095684E-012
                    8                    4                    9                    3  -2.3373705748674922E-011
                    8                    4                    9                    4   5.6009925863964583E-011
                    8                    4                   10                    5   1.8396474664797435E-011
                    8                    5                    2                   10   5.5942776452932996E-012
                    8                    5                    4                   10  -9.9440356123026152E-012
                    8                    5                    5                    7   8.1442133852832610E-012
                    8                    5                    5                    8   2.5956459204223847E-011
                    8                    5                    5                    9  -2.0935959563206374E-011
                    8                    5                    7                    5  -3.7354884810381073E-012
                    8                    5                    9                    5   2.3797247158952040E-011
                    8                    5                   10                    2  -6.6133669721080146E-012
                    8                    5                   10                    3  -9.2348524660668119E-012
                    8                    5                   10                    4   8.7918392184527239E-012
                    8                    7                    7                    8   2.6880719872224290E-012
                    8                    7                    7                    9  -3.3434175567004232E-012
                    8                    7                    9                    7   3.3327455378762139E-012
                    8                    8                    8                    9  -1.3337720373347767E-011
                    8                    8                    9                    8   1.3337718071694552E-011
                    8                    9                    7                    7  -2.4178722373398208E-012
                    8                    9                    7                    8   4.8475477104625853E-012
                    8                    9                    8                    8   1.3337720373347767E-011
                    8                    9                    9                    7   1.0240198446143101E-012
                    8                    9                    9                    8   2.3220425582337612E-011
                    8                    9                    9                    9   3.0675152316453799E-012
                    8                   10                    7                   10   1.8587718170204326E-012
                    8                   10                    9                   10   1.3853152999732110E-011
[...]
    7    7    8    3       -0.0020450297
    7    7    8    4       -0.0054372783
    7    7    8    6       -0.0296140870
    7    7    8    7       -0.0218076403
    7    7    8    8        0.3074081411
    7    8    8    1       -0.0003991358
    7    8    8    2       -0.0042726104
    7    8    8    3       -0.0055106927
    7    8    8    4       -0.0042920674
    7    8    8    6        0.0222729887
    7    8    8    7        0.0218783344
    7    8    8    8       -0.0663918944
    8    1    1    1        0.0737150919
    8    1    1    2       -0.0122362572
    8    1    1    3       -0.0087328523
    8    1    1    4       -0.0052532716
    8    1    1    6       -0.0075148560
    8    1    1    7       -0.0041787181
    8    1    1    8        0.0078804020
    8    2    1    1       -0.0796432039
    8    2    1    2        0.0013964634
    8    2    1    3       -0.0052565745
    8    2    1    4       -0.0068603099
    8    2    1    6       -0.0020406827
    8    2    1    7       -0.0034415707
    8    2    1    8        0.0040815584
    8    3    1    1       -0.1047582368
    8    3    1    2        0.0019443686
    8    3    1    3       -0.0001379466
    8    3    1    4        0.0026698103
    8    3    1    6        0.0018951572
    8    3    1    7       -0.0001773161
    8    3    1    8       -0.0014863090
    8    4    1    1       -0.0898496919
    8    4    1    2        0.0007578044
    8    4    1    3        0.0052710017
    8    4    1    4       -0.0011602427
    8    4    1    6        0.0005611882
    8    4    1    7        0.0031267479
    8    4    1    8       -0.0021989373
    8    5    1    5       -0.0057844235
    8    6    1    1       -0.1369286239
    8    6    1    2        0.0018623336
    8    6    1    3       -0.0013595143
    8    6    1    4       -0.0041591125
    8    6    1    6       -0.0007452348
    8    6    1    7       -0.0010284737
    8    6    1    8        0.0013337232
    8    7    1    1       -0.1214354716
    8    7    1    2        0.0017845120
    8    7    1    3       -0.0008472397
    8    7    1    4        0.0006447222
    8    7    1    6        0.0007781970
    8    7    1    7       -0.0005261188
    8    7    1    8       -0.0003991358
    8    8    1    1        0.5237655437
    8    8    1    2       -0.0022581864
    8    8    1    3        0.0038139129
    8    8    1    4        0.0050928213
    8    8    1    6        0.0011615623
    8    8    1    7        0.0023546347
    8    8    1    8       -0.0022577986
    8    1    2    1       -0.0117338144
    8    1    2    2        0.0007223937
    8    1    2    3       -0.0085857894
    8    1    2    4       -0.0087626304
    8    1    2    6       -0.0026546904
    8    1    2    7       -0.0042059887
    8    1    2    8        0.0040815584
    8    2    2    1        0.0018490237
    8    2    2    2       -0.0326166164
    8    2    2    3       -0.0080094848
    8    2    2    4       -0.0117395873
    8    2    2    6       -0.0220705916
    8    2    2    7       -0.0109892790
    8    2    2    8        0.0352159123
    8    3    2    1        0.0024619652
    8    3    2    2       -0.0299840472
    8    3    2    3        0.0294515174
    8    3    2    4        0.0436777568
    8    3    2    6       -0.0107913815
    8    3    2    7        0.0007369417
    8    3    2    8        0.0241716914
    8    4    2    1        0.0010009415
    8    4    2    2       -0.0388882251
    8    4    2    3        0.0473991102
    8    4    2    4        0.0122172205
    8    4    2    6       -0.0139335757
    8    4    2    7        0.0105591779
    8    4    2    8        0.0180926347
    8    5    2    5       -0.0246765436
    8    6    2    1        0.0018614901
    8    6    2    2       -0.0898428856
    8    6    2    3       -0.0107813095
    8    6    2    4       -0.0119658606
    8    6    2    6       -0.0155516531
    8    6    2    7        0.0015817954
    8    6    2    8       -0.0052866705
    8    7    2    1        0.0018036267
    8    7    2    2       -0.0757734093
    8    7    2    3       -0.0089366221
    8    7    2    4        0.0066735155
    8    7    2    6       -0.0092311064
    8    7    2    7        0.0022033455
    8    7    2    8       -0.0042726104
    8    8    2    1       -0.0022581864
    8    8    2    2        0.4687730993
    8    8    2    3        0.0755511452
    8    8    2    4        0.0440720794
    8    8    2    6        0.0237286624
    8    8    2    7       -0.0071401391
    8    8    2    8        0.0418201818
    8    1    3    1       -0.0080625844
    8    1    3    2       -0.0085190990
    8    1    3    3       -0.0006617584
    8    1    3    4        0.0009050638
    8    1    3    6       -0.0014122654
    8    1    3    7        0.0006182283
    8    1    3    8       -0.0014863090
    8    2    3    1       -0.0051290917
    8    2    3    2       -0.0081245320
    8    2    3    3       -0.0104244642
    8    2    3    4        0.0221223898
    8    2    3    6       -0.0101893255
    8    2    3    7       -0.0117039970
    8    2    3    8        0.0241716914
    8    3    3    1       -0.0001603241
    8    3    3    2        0.0288340180
    8    3    3    3       -0.0065732893
    8    3    3    4        0.0223765161
    8    3    3    6       -0.0241856400
    8    3    3    7       -0.0273994317
    8    3    3    8        0.0720369203
    8    4    3    1        0.0055911181
    8    4    3    2        0.0486136687
    8    4    3    3       -0.0073606179
    8    4    3    4        0.0122973242
    8    4    3    6       -0.0160151669
    8    4    3    7       -0.0158604004
    8    4    3    8        0.0443255908
    8    5    3    5       -0.0088066297
    8    6    3    1       -0.0013016288
    8    6    3    2       -0.0105422750
    8    6    3    3       -0.0840726505
    8    6    3    4       -0.0101720882
    8    6    3    6       -0.0012869981
    8    6    3    7       -0.0134044407
    8    6    3    8       -0.0166842285
    8    7    3    1       -0.0008374989
    8    7    3    2       -0.0088742052
    8    7    3    3       -0.0719520205
    8    7    3    4       -0.0058932989
    8    7    3    6       -0.0008714994
    8    7    3    7       -0.0176467284
    8    7    3    8       -0.0055106927
    8    8    3    1        0.0038139129
    8    8    3    2        0.0755511452
    8    8    3    3        0.4861278747
    8    8    3    4        0.0517391642
    8    8    3    6       -0.0317351472
    8    8    3    7        0.0267893491
    8    8    3    8        0.1020309132
    8    1    4    1       -0.0047188733
    8    1    4    2       -0.0087297475
    8    1    4    3        0.0009064015
    8    1    4    4        0.0052355876
    8    1    4    6       -0.0007755330
    8    1    4    7        0.0020591904
    8    1    4    8       -0.0021989373
    8    2    4    1       -0.0070257070
    8    2    4    2       -0.0119955785
    8    2    4    3        0.0220507148
    8    2    4    4       -0.0161090524
    8    2    4    6       -0.0132830681
    8    2    4    7        0.0028299000
    8    2    4    8        0.0180926347
    8    3    4    1        0.0029428824
    8    3    4    2        0.0447804881
    8    3    4    3        0.0231691632
    8    3    4    4       -0.0290391248
    8    3    4    6       -0.0199260418
    8    3    4    7       -0.0120632425
    8    3    4    8        0.0443255908
    8    4    4    1       -0.0013710611
    8    4    4    2        0.0113642759
    8    4    4    3        0.0116821931
    8    4    4    4       -0.0341844869
    8    4    4    6       -0.0207375760
    8    4    4    7       -0.0174443028
    8    4    4    8        0.0493756101
    8    5    4    5       -0.0001470002
    8    6    4    1       -0.0041680324
    8    6    4    2       -0.0118962265
    8    6    4    3       -0.0101513807
    8    6    4    4       -0.0779855970
    8    6    4    6       -0.0089049335
    8    6    4    7        0.0010562099
    8    6    4    8       -0.0091012330
    8    7    4    1        0.0007203396
    8    7    4    2        0.0068597708
    8    7    4    3       -0.0057011893
    8    7    4    4       -0.0747173732
    8    7    4    6       -0.0047221058
    8    7    4    7       -0.0009156884
    8    7    4    8       -0.0042920674
    8    8    4    1        0.0050928213
    8    8    4    2        0.0440720794
    8    8    4    3        0.0517391642
    8    8    4    4        0.4499997917
    8    8    4    6       -0.0045268547
    8    8    4    7       -0.0187889544
    8    8    4    8        0.0717055501
    8    1    5    5        0.0009576766
    8    2    5    5       -0.0396679703
    8    3    5    5       -0.0433615301
    8    4    5    5       -0.0369300460
    8    5    5    1       -0.0062613608
    8    5    5    2       -0.0262395936
    8    5    5    3       -0.0093869170
    8    5    5    4       -0.0003900073
    8    5    5    6       -0.0079421364
    8    5    5    7       -0.0045116953
    8    5    5    8        0.0128268181
    8    6    5    5       -0.0788324399
    8    7    5    5       -0.0710023376
    8    8    5    5        0.4317419910
    8    1    6    1       -0.0077335891
    8    1    6    2       -0.0030466598
    8    1    6    3       -0.0016175448
    8    1    6    4       -0.0010177864
    8    1    6    6       -0.0020255406
    8    1    6    7       -0.0016757518
    8    1    6    8        0.0013337232
    8    2    6    1       -0.0024554635
    8    2    6    2       -0.0238042658
    8    2    6    3       -0.0107850403
    8    2    6    4       -0.0134392753
    8    2    6    6       -0.0041693771
    8    2    6    7        0.0056972125
    8    2    6    8       -0.0052866705
    8    3    6    1        0.0017030241
    8    3    6    2       -0.0107097537
    8    3    6    3       -0.0238057467
    8    3    6    4       -0.0186991477
    8    3    6    6        0.0170708229
    8    3    6    7        0.0218664555
    8    3    6    8       -0.0166842285
    8    4    6    1        0.0003540453
    8    4    6    2       -0.0143142905
    8    4    6    3       -0.0155162424
    8    4    6    4       -0.0206037125
    8    4    6    6        0.0041566556
    8    4    6    7        0.0230682874
    8    4    6    8       -0.0091012330
    8    5    6    5       -0.0093648661
    8    6    6    1       -0.0007351768
    8    6    6    2       -0.0154997522
    8    6    6    3       -0.0016531709
    8    6    6    4       -0.0088452016
    8    6    6    6       -0.0336851761
    8    6    6    7       -0.0012867470
    8    6    6    8        0.0361204134
    8    7    6    1        0.0007941860
    8    7    6    2       -0.0093153578
    8    7    6    3       -0.0009543953
    8    7    6    4       -0.0051170664
    8    7    6    6       -0.0255735626
    8    7    6    7       -0.0035006770
    8    7    6    8        0.0222729887
    8    8    6    1        0.0011615623
    8    8    6    2        0.0237286624
    8    8    6    3       -0.0317351472
    8    8    6    4       -0.0045268547
    8    8    6    6        0.3569586873
    8    8    6    7        0.0705513754
    8    8    6    8       -0.0898043927
    8    1    7    1       -0.0043359199
    8    1    7    2       -0.0044185916
    8    1    7    3        0.0003962973
    8    1    7    4        0.0021697897
    8    1    7    6       -0.0016705625
    8    1    7    7        0.0007614579
    8    1    7    8       -0.0003991358
    8    2    7    1       -0.0036821028
    8    2    7    2       -0.0123845973
    8    2    7    3       -0.0106830700
    8    2    7    4        0.0045113171
    8    2    7    6        0.0058673998
    8    2    7    7        0.0002532198
    8    2    7    8       -0.0042726104
    8    3    7    1       -0.0003041722
    8    3    7    2        0.0003588264
    8    3    7    3       -0.0265440135
    8    3    7    4       -0.0118734953
    8    3    7    6        0.0217720452
    8    3    7    7       -0.0020450297
    8    3    7    8       -0.0055106927
    8    4    7    1        0.0032986254
    8    4    7    2        0.0119897423
    8    4    7    3       -0.0147027677
    8    4    7    4       -0.0183920101
    8    4    7    6        0.0231742113
    8    4    7    7       -0.0054372783
    8    4    7    8       -0.0042920674
    8    5    7    5       -0.0050317294
    8    6    7    1       -0.0010088971
    8    6    7    2        0.0016490798
    8    6    7    3       -0.0135194951
    8    6    7    4        0.0007103950
    8    6    7    6       -0.0013021099
    8    6    7    7       -0.0296140870
    8    6    7    8        0.0222729887
    8    7    7    1       -0.0005186532
    8    7    7    2        0.0021826139
    8    7    7    3       -0.0176281440
    8    7    7    4       -0.0010733486
    8    7    7    6       -0.0035092312
    8    7    7    7       -0.0218076403
    8    7    7    8        0.0218783344
    8    8    7    1        0.0023546347
    8    8    7    2       -0.0071401391
    8    8    7    3        0.0267893491
    8    8    7    4       -0.0187889544
    8    8    7    6        0.0705513754
    8    8    7    7        0.3074081411
    8    8    7    8       -0.0663918944
    8    1    8    1        0.0080856583
    8    1    8    2        0.0044570185
    8    1    8    3       -0.0012876547
    8    1    8    4       -0.0021323388
    8    1    8    6        0.0013276090
    8    1    8    7       -0.0004124786
    8    1    8    8       -0.0022577986
    8    2    8    1        0.0044570185
    8    2    8    2        0.0376951083
    8    2    8    3        0.0233860707
    8    2    8    4        0.0170583082
    8    2    8    6       -0.0050218977
    8    2    8    7       -0.0039673905
    8    2    8    8        0.0418201818
    8    3    8    1       -0.0012876547
    8    3    8    2        0.0233860707
    8    3    8    3        0.0713036833
    8    3    8    4        0.0431247353
    8    3    8    6       -0.0159649644
    8    3    8    7       -0.0050713695
    8    3    8    8        0.1020309132
    8    4    8    1       -0.0021323388
    8    4    8    2        0.0170583082
    8    4    8    3        0.0431247353
    8    4    8    4        0.0500657629
    8    4    8    6       -0.0086950863
    8    4    8    7       -0.0039582947
    8    4    8    8        0.0717055501
    8    5    8    5        0.0133887760
    8    6    8    1        0.0013276090
    8    6    8    2       -0.0050218977
    8    6    8    3       -0.0159649644
    8    6    8    4       -0.0086950863
    8    6    8    6        0.0360854915
    8    6    8    7        0.0222149250
    8    6    8    8       -0.0898043927
    8    7    8    1       -0.0004124786
    8    7    8    2       -0.0039673905
    8    7    8    3       -0.0050713695
    8    7    8    4       -0.0039582947
    8    7    8    6        0.0222149250
    8    7    8    7        0.0218073939
    8    7    8    8       -0.0663918944
    8    8    8    1       -0.0022577986
    8    8    8    2        0.0418201818
    8    8    8    3        0.1020309132
    8    8    8    4        0.0717055501
    8    8    8    6       -0.0898043927
    8    8    8    7       -0.0663918944
    8    8    8    8        0.6085079052
 end_two_electron_integrals

 Parallel integral file used       1 records with       0 large values


 Task  times  cpu:        5.4s     wall:        5.5s


                                NWChem Input Module
                                -------------------


 Summary of allocated global arrays
-----------------------------------
  No active global arrays


MA_summarize_allocated_blocks: starting scan ...
MA_summarize_allocated_blocks: scan completed: 0 heap blocks, 0 stack blocks
MA usage statistics:

	allocation statistics:
					      heap	     stack
					      ----	     -----
	current number of blocks	         0	         0
	maximum number of blocks	        17	        42
	current total bytes		         0	         0
	maximum total bytes		   2110096	 141357496
	maximum total K-bytes		      2111	    141358
	maximum total M-bytes		         3	       142


                                     CITATION
                                     --------
                Please cite the following reference when publishing
                           results obtained with NWChem:

          E. Apra, E. J. Bylaska, W. A. de Jong, N. Govind, K. Kowalski,
       T. P. Straatsma, M. Valiev, H. J. J. van Dam, Y. Alexeev, J. Anchell,
       V. Anisimov, F. W. Aquino, R. Atta-Fynn, J. Autschbach, N. P. Bauman,
     J. C. Becca, D. E. Bernholdt, K. Bhaskaran-Nair, S. Bogatko, P. Borowski,
         J. Boschen, J. Brabec, A. Bruner, E. Cauet, Y. Chen, G. N. Chuev,
      C. J. Cramer, J. Daily, M. J. O. Deegan, T. H. Dunning Jr., M. Dupuis,
   K. G. Dyall, G. I. Fann, S. A. Fischer, A. Fonari, H. Fruchtl, L. Gagliardi,
      J. Garza, N. Gawande, S. Ghosh, K. Glaesemann, A. W. Gotz, J. Hammond,
       V. Helms, E. D. Hermes, K. Hirao, S. Hirata, M. Jacquelin, L. Jensen,
   B. G. Johnson, H. Jonsson, R. A. Kendall, M. Klemm, R. Kobayashi, V. Konkov,
      S. Krishnamoorthy, M. Krishnan, Z. Lin, R. D. Lins, R. J. Littlefield,
      A. J. Logsdail, K. Lopata, W. Ma, A. V. Marenich, J. Martin del Campo,
   D. Mejia-Rodriguez, J. E. Moore, J. M. Mullin, T. Nakajima, D. R. Nascimento,
    J. A. Nichols, P. J. Nichols, J. Nieplocha, A. Otero-de-la-Roza, B. Palmer,
    A. Panyala, T. Pirojsirikul, B. Peng, R. Peverati, J. Pittner, L. Pollack,
   R. M. Richard, P. Sadayappan, G. C. Schatz, W. A. Shelton, D. W. Silverstein,
   D. M. A. Smith, T. A. Soares, D. Song, M. Swart, H. L. Taylor, G. S. Thomas,
            V. Tipparaju, D. G. Truhlar, K. Tsemekhman, T. Van Voorhis,
      A. Vazquez-Mayagoitia, P. Verma, O. Villa, A. Vishnu, K. D. Vogiatzis,
        D. Wang, J. H. Weare, M. J. Williamson, T. L. Windus, K. Wolinski,
        A. T. Wong, Q. Wu, C. Yang, Q. Yu, M. Zacharias, Z. Zhang, Y. Zhao,
                                and R. J. Harrison
                        "NWChem: Past, present, and future
                         J. Chem. Phys. 152, 184102 (2020)
                               doi:10.1063/5.0004997

                                      AUTHORS
                                      -------
  E. Apra, E. J. Bylaska, N. Govind, K. Kowalski, M. Valiev, D. Mejia-Rodriguez,
       A. Kunitsa, N. P. Bauman, A. Panyala, W. A. de Jong, T. P. Straatsma,
        H. J. J. van Dam, D. Wang, T. L. Windus, J. Hammond, J. Autschbach,
    K. Bhaskaran-Nair, J. Brabec, K. Lopata, S. A. Fischer, S. Krishnamoorthy,
     M. Jacquelin, W. Ma, M. Klemm, O. Villa, Y. Chen, V. Anisimov, F. Aquino,
    S. Hirata, M. T. Hackler, Eric Hermes, L. Jensen, J. E. Moore, J. C. Becca,
      V. Konjkov, T. Risthaus, M. Malagoli, A. Marenich, A. Otero-de-la-Roza,
        J. Mullin, P. Nichols, R. Peverati, J. Pittner, Y. Zhao, P.-D. Fan,
        A. Fonari, M. J. Williamson, R. J. Harrison, J. R. Rehr, M. Dupuis,
     D. Silverstein, D. M. A. Smith, J. Nieplocha, V. Tipparaju, M. Krishnan,
     B. E. Van Kuiken, A. Vazquez-Mayagoitia, M. Swart, Q. Wu, T. Van Voorhis,
     A. A. Auer, M. Nooijen, L. D. Crosby, E. Brown, G. Cisneros, G. I. Fann,
   H. Fruchtl, J. Garza, K. Hirao, R. A. Kendall, J. A. Nichols, K. Tsemekhman,
    K. Wolinski, J. Anchell, D. E. Bernholdt, P. Borowski, T. Clark, D. Clerc,
   H. Dachsel, M. J. O. Deegan, K. Dyall, D. Elwood, E. Glendening, M. Gutowski,
   A. C. Hess, J. Jaffe, B. G. Johnson, J. Ju, R. Kobayashi, R. Kutteh, Z. Lin,
   R. Littlefield, X. Long, B. Meng, T. Nakajima, S. Niu, L. Pollack, M. Rosing,
   K. Glaesemann, G. Sandrone, M. Stave, H. Taylor, G. Thomas, J. H. van Lenthe,
                               A. T. Wong, Z. Zhang.

 Total times  cpu:        5.4s     wall:        5.5s
