 argument  1 = input.nw
  NWChem w/ OpenMP: maximum threads =    1



============================== echo of input deck ==============================
 echo
 start H2O
 title "H2O"

 memory total 24 gb

 geometry units bohr
 symmetry c1
        O  0.00000000  0.00000000  0.00000000
        H  0.00000000  2.101533  0.00000000
        H  1.72558000 -0.64860000  0.00000000
 end

 basis spherical
   * library cc-pVDZ
 end

 scf
   vectors input h2o.mos
   vectors output h2o.mos
 end

 tce
   2eorb
   2emet 13
   ccsd
   maxiter 300
 end

# set tce:print_integrals T
# set tce:qorb 8
# set tce:qela 5
# set tce:qelb 5

 set tce:qducc T
 set tce:nactv 3
 set tce:nonhf T
 set tce:ducc_model 6

 set tce:printtol 0.02

 task tce
================================================================================


                                         
                                         


             Northwest Computational Chemistry Package (NWChem) 7.0.1
             --------------------------------------------------------


                    Environmental Molecular Sciences Laboratory
                       Pacific Northwest National Laboratory
                                Richland, WA 99352

                              Copyright (c) 1994-2020
                       Pacific Northwest National Laboratory
                            Battelle Memorial Institute

             NWChem is an open-source computational chemistry package
                        distributed under the terms of the
                      Educational Community License (ECL) 2.0
             A copy of the license is included with this distribution
                              in the LICENSE.TXT file

                                  ACKNOWLEDGMENT
                                  --------------

            This software and its documentation were developed at the
            EMSL at Pacific Northwest National Laboratory, a multiprogram
            national laboratory, operated for the U.S. Department of Energy
            by Battelle under Contract Number DE-AC05-76RL01830. Support
            for this work was provided by the Department of Energy Office
            of Biological and Environmental Research, Office of Basic
            Energy Sciences, and the Office of Advanced Scientific Computing.


           Job information
           ---------------

    hostname        = WE46210
    program         = /home/baum612/code/nwchem/bin/LINUX64/nwchem
    date            = Fri Sep  6 09:59:18 2024

    compiled        = Wed_Sep_04_02:00:17_2024
    source          = /home/baum612/code/nwchem
    nwchem branch   = 7.0.0
    nwchem revision = nwchem_on_git-4191-g39d87d64de
    ga revision     = 5.8.1
    use scalapack   = F
    input           = input.nw
    prefix          = H2O.
    data base       = ./H2O.db
    status          = startup
    nproc           =        1
    time left       =     -1s



           Memory information
           ------------------

    heap     =  805306366 doubles =   6144.0 Mbytes
    stack    =  805306363 doubles =   6144.0 Mbytes
    global   = 1610612736 doubles =  12288.0 Mbytes (distinct from heap & stack)
    total    = 3221225465 doubles =  24576.0 Mbytes
    verify   = yes
    hardfail = no 


           Directory information
           ---------------------

  0 permanent = .
  0 scratch   = .




                                NWChem Input Module
                                -------------------


                                        H2O
                                        ---
 Turning off AUTOSYM since
 SYMMETRY directive was detected!


          ------
          auto-z
          ------
  no constraints, skipping    0.0000000000000000     
  no constraints, skipping    0.0000000000000000     


                             Geometry "geometry" -> ""
                             -------------------------

 Output coordinates in a.u. (scale by  1.000000000 to convert to a.u.)

  No.       Tag          Charge          X              Y              Z
 ---- ---------------- ---------- -------------- -------------- --------------
    1 O                    8.0000    -0.17255800    -0.14529330     0.00000000
    2 H                    1.0000    -0.17255800     1.95623970     0.00000000
    3 H                    1.0000     1.55302200    -0.79389330     0.00000000

      Atomic Mass 
      ----------- 

      O                 15.994910
      H                  1.007825


 Effective nuclear repulsion energy (a.u.)       8.4544418216

            Nuclear Dipole moment (a.u.) 
            ----------------------------
        X                 Y               Z
 ---------------- ---------------- ----------------
    -0.0000000000     0.0000000000     0.0000000000



                                Z-matrix (autoz)
                                -------- 

 Units are Angstrom for bonds and degrees for angles

      Type          Name      I     J     K     L     M      Value
      ----------- --------  ----- ----- ----- ----- ----- ----------
    1 Stretch                  1     2                       1.11208
    2 Stretch                  1     3                       0.97551
    3 Bend                     2     1     3               110.59992


            XYZ format geometry
            -------------------
     3
 geometry
 O                    -0.09131377    -0.07688591     0.00000000
 H                    -0.09131377     1.03519754     0.00000000
 H                     0.82182391    -0.42011027     0.00000000

 ==============================================================================
                                internuclear distances
 ------------------------------------------------------------------------------
       center one      |      center two      | atomic units |       a.u.
 ------------------------------------------------------------------------------
    3 H                |   1 O                |     1.84345  |     1.84345
 ------------------------------------------------------------------------------
                         number of included internuclear distances:          1
 ==============================================================================





 Summary of "ao basis" -> "" (spherical)
 ------------------------------------------------------------------------------
       Tag                 Description            Shells   Functions and Types
 ---------------- ------------------------------  ------  ---------------------
 *                          cc-pVDZ                   on all atoms 


                      Basis "ao basis" -> "ao basis" (spherical)
                      -----
  O (Oxygen)
  ----------
            Exponent  Coefficients 
       -------------- ---------------------------------------------------------
  1 S  1.17200000E+04  0.000710
  1 S  1.75900000E+03  0.005470
  1 S  4.00800000E+02  0.027837
  1 S  1.13700000E+02  0.104800
  1 S  3.70300000E+01  0.283062
  1 S  1.32700000E+01  0.448719
  1 S  5.02500000E+00  0.270952
  1 S  1.01300000E+00  0.015458

  2 S  1.17200000E+04 -0.000160
  2 S  1.75900000E+03 -0.001263
  2 S  4.00800000E+02 -0.006267
  2 S  1.13700000E+02 -0.025716
  2 S  3.70300000E+01 -0.070924
  2 S  1.32700000E+01 -0.165411
  2 S  5.02500000E+00 -0.116955
  2 S  1.01300000E+00  0.557368

  3 S  3.02300000E-01  1.000000

  4 P  1.77000000E+01  0.043018
  4 P  3.85400000E+00  0.228913
  4 P  1.04600000E+00  0.508728

  5 P  2.75300000E-01  1.000000

  6 D  1.18500000E+00  1.000000

  H (Hydrogen)
  ------------
            Exponent  Coefficients 
       -------------- ---------------------------------------------------------
  1 S  1.30100000E+01  0.019685
  1 S  1.96200000E+00  0.137977
  1 S  4.44600000E-01  0.478148

  2 S  1.22000000E-01  1.000000

  3 P  7.27000000E-01  1.000000



 Summary of "ao basis" -> "ao basis" (spherical)
 ------------------------------------------------------------------------------
       Tag                 Description            Shells   Functions and Types
 ---------------- ------------------------------  ------  ---------------------
 O                          cc-pVDZ                  6       14   3s2p1d
 H                          cc-pVDZ                  3        5   2s1p


                                 NWChem SCF Module
                                 -----------------


                                        H2O



  ao basis        = "ao basis"
  functions       =    24
  atoms           =     3
  closed shells   =     5
  open shells     =     0
  charge          =   0.00
  wavefunction    = RHF 
  input vectors   = ./h2o.mos
  output vectors  = ./h2o.mos
  use symmetry    = F
  symmetry adapt  = F


 Summary of "ao basis" -> "ao basis" (spherical)
 ------------------------------------------------------------------------------
       Tag                 Description            Shells   Functions and Types
 ---------------- ------------------------------  ------  ---------------------
 O                          cc-pVDZ                  6       14   3s2p1d
 H                          cc-pVDZ                  3        5   2s1p



 Forming initial guess at       0.0s


 Loading old vectors from job with title :

H2O


 Starting SCF solution at       0.0s



 ----------------------------------------------
         Quadratically convergent ROHF

 Convergence threshold     :          1.000E-04
 Maximum no. of iterations :           30
 Final Fock-matrix accuracy:          1.000E-07
 ----------------------------------------------


 #quartets = 3.081D+03 #integrals = 2.131D+04 #direct =  0.0% #cached =100.0%


 Integral file          = ./H2O.aoints.0
 Record size in doubles =  65536        No. of integs per rec  =  43688
 Max. records in memory =      4        Max. records in file   = 232247
 No. of bits per label  =      8        No. of bits per value  =     64


              iter       energy          gnorm     gmax       time
             ----- ------------------- --------- --------- --------
                 1      -76.0028581402  8.79D-03  3.32D-03      0.0
                 2      -76.0028640514  4.73D-05  1.45D-05      0.0


       Final RHF  results 
       ------------------ 

         Total SCF energy =    -76.002864051350
      One-electron energy =   -121.818419482825
      Two-electron energy =     37.361113609828
 Nuclear repulsion energy =      8.454441821647

        Time for solution =      0.0s


             Final eigenvalues
             -----------------

              1      
    1  -20.5606
    2   -1.2971
    3   -0.6669
    4   -0.5375
    5   -0.4860
    6    0.1657
    7    0.2432
    8    0.7122
    9    0.8085
   10    1.1606
   11    1.1934
   12    1.2628
   13    1.4480
   14    1.5124
   15    1.6892

                       ROHF Final Molecular Orbital Analysis
                       -------------------------------------

 Vector    2  Occ=2.000000D+00  E=-1.297117D+00
              MO Center=  4.7D-02, -3.2D-02, -8.0D-18, r^2= 5.2D-01
   Bfn.  Coefficient  Atom+Function         Bfn.  Coefficient  Atom+Function  
  ----- ------------  ---------------      ----- ------------  ---------------
     2      0.450389  1 O  s                  3      0.429649  1 O  s          
    20      0.190327  3 H  s          

 Vector    3  Occ=2.000000D+00  E=-6.669244D-01
              MO Center=  6.7D-02,  8.0D-02,  3.0D-18, r^2= 8.5D-01
   Bfn.  Coefficient  Atom+Function         Bfn.  Coefficient  Atom+Function  
  ----- ------------  ---------------      ----- ------------  ---------------
     5     -0.348011  1 O  py                20      0.343148  3 H  s          
     4      0.329534  1 O  px                15     -0.279800  2 H  s          
     8     -0.173971  1 O  py                 7      0.161596  1 O  px         

 Vector    4  Occ=2.000000D+00  E=-5.374643D-01
              MO Center= -1.2D-01, -3.1D-02, -2.1D-17, r^2= 7.5D-01
   Bfn.  Coefficient  Atom+Function         Bfn.  Coefficient  Atom+Function  
  ----- ------------  ---------------      ----- ------------  ---------------
     4      0.416157  1 O  px                 5      0.347294  1 O  py         
     7      0.299904  1 O  px                 3     -0.294823  1 O  s          
     8      0.248543  1 O  py                15      0.228893  2 H  s          
    20      0.159948  3 H  s          

 Vector    5  Occ=2.000000D+00  E=-4.860189D-01
              MO Center= -7.3D-02, -6.9D-02,  3.9D-17, r^2= 6.0D-01
   Bfn.  Coefficient  Atom+Function         Bfn.  Coefficient  Atom+Function  
  ----- ------------  ---------------      ----- ------------  ---------------
     6      0.633708  1 O  pz                 9      0.499254  1 O  pz         

 Vector    6  Occ=0.000000D+00  E= 1.656724D-01
              MO Center=  2.4D-01,  6.3D-01,  7.4D-18, r^2= 2.8D+00
   Bfn.  Coefficient  Atom+Function         Bfn.  Coefficient  Atom+Function  
  ----- ------------  ---------------      ----- ------------  ---------------
    16     -0.937444  2 H  s                  3      0.882959  1 O  s          
    21     -0.588348  3 H  s                  8      0.311140  1 O  py         
     7      0.207461  1 O  px                 5      0.191260  1 O  py         

 Vector    7  Occ=0.000000D+00  E= 2.432229D-01
              MO Center=  7.1D-01, -8.5D-03,  2.5D-17, r^2= 3.4D+00
   Bfn.  Coefficient  Atom+Function         Bfn.  Coefficient  Atom+Function  
  ----- ------------  ---------------      ----- ------------  ---------------
    21      1.456531  3 H  s                 16     -1.044601  2 H  s          
     8      0.508965  1 O  py                 7     -0.412192  1 O  px         
     3     -0.287826  1 O  s                  5      0.231681  1 O  py         
     4     -0.185508  1 O  px         

 Vector    8  Occ=0.000000D+00  E= 7.121955D-01
              MO Center= -1.0D-01,  9.4D-01, -1.1D-17, r^2= 1.4D+00
   Bfn.  Coefficient  Atom+Function         Bfn.  Coefficient  Atom+Function  
  ----- ------------  ---------------      ----- ------------  ---------------
    15      1.276049  2 H  s                 16     -1.079580  2 H  s          
     5     -0.287734  1 O  py                 3      0.232219  1 O  s          
    18      0.179896  2 H  py                21      0.165199  3 H  s          
     2     -0.163079  1 O  s          

 Vector    9  Occ=0.000000D+00  E= 8.084720D-01
              MO Center=  6.7D-01, -3.4D-01, -1.9D-17, r^2= 1.3D+00
   Bfn.  Coefficient  Atom+Function         Bfn.  Coefficient  Atom+Function  
  ----- ------------  ---------------      ----- ------------  ---------------
    20      1.273413  3 H  s                 21     -0.865254  3 H  s          
     4     -0.278906  1 O  px                 7     -0.245195  1 O  px         
    22      0.243715  3 H  px                 8      0.193757  1 O  py         
     2     -0.170197  1 O  s                 17     -0.150538  2 H  px         

 Vector   10  Occ=0.000000D+00  E= 1.160644D+00
              MO Center= -1.6D-01,  6.1D-02,  5.6D-18, r^2= 1.3D+00
   Bfn.  Coefficient  Atom+Function         Bfn.  Coefficient  Atom+Function  
  ----- ------------  ---------------      ----- ------------  ---------------
     7      1.165765  1 O  px                 4     -0.727308  1 O  px         
     3      0.582653  1 O  s                 20     -0.459121  3 H  s          
    21     -0.345489  3 H  s                 22      0.332323  3 H  px         
     5     -0.292422  1 O  py                 8      0.243824  1 O  py         
    15     -0.242817  2 H  s                 17      0.226816  2 H  px         

 Vector   11  Occ=0.000000D+00  E= 1.193351D+00
              MO Center= -9.4D-02,  1.9D-02, -3.8D-16, r^2= 1.1D+00
   Bfn.  Coefficient  Atom+Function         Bfn.  Coefficient  Atom+Function  
  ----- ------------  ---------------      ----- ------------  ---------------
     9     -0.963636  1 O  pz                 6      0.948081  1 O  pz         
    19     -0.165121  2 H  pz         

 Vector   12  Occ=0.000000D+00  E= 1.262784D+00
              MO Center= -1.3D-02, -2.3D-01,  8.8D-17, r^2= 1.6D+00
   Bfn.  Coefficient  Atom+Function         Bfn.  Coefficient  Atom+Function  
  ----- ------------  ---------------      ----- ------------  ---------------
     8      1.474687  1 O  py                 5     -0.741470  1 O  py         
     7     -0.683500  1 O  px                21      0.666878  3 H  s          
    16     -0.630801  2 H  s                 15     -0.378966  2 H  s          
    18      0.370734  2 H  py                20      0.287168  3 H  s          
    23      0.248965  3 H  py                22     -0.216794  3 H  px         

 Vector   13  Occ=0.000000D+00  E= 1.448016D+00
              MO Center=  3.3D-01,  2.7D-01,  8.3D-19, r^2= 1.2D+00
   Bfn.  Coefficient  Atom+Function         Bfn.  Coefficient  Atom+Function  
  ----- ------------  ---------------      ----- ------------  ---------------
    19      0.690973  2 H  pz                24     -0.654535  3 H  pz         
     6      0.156917  1 O  pz         

 Vector   14  Occ=0.000000D+00  E= 1.512390D+00
              MO Center= -1.7D-02,  3.0D-02, -4.9D-17, r^2= 1.5D+00
   Bfn.  Coefficient  Atom+Function         Bfn.  Coefficient  Atom+Function  
  ----- ------------  ---------------      ----- ------------  ---------------
     3      0.776758  1 O  s                  2     -0.681202  1 O  s          
    17      0.608005  2 H  px                 7     -0.555583  1 O  px         
    23      0.544523  3 H  py                 8     -0.359042  1 O  py         
    22      0.287728  3 H  px                 1     -0.274856  1 O  s          
    20      0.247467  3 H  s                 21     -0.242673  3 H  s          

 Vector   15  Occ=0.000000D+00  E= 1.689212D+00
              MO Center=  2.4D-01,  1.6D-01,  6.9D-17, r^2= 1.4D+00
   Bfn.  Coefficient  Atom+Function         Bfn.  Coefficient  Atom+Function  
  ----- ------------  ---------------      ----- ------------  ---------------
    24      0.790685  3 H  pz                19      0.721692  2 H  pz         
     9     -0.668756  1 O  pz         


 center of mass
 --------------
 x =  -0.07599894 y =  -0.06399088 z =   0.00000000

 moments of inertia (a.u.)
 ------------------
           4.755922077243           1.269360653086           0.000000000000
           1.269360653086           2.833002082974           0.000000000000
           0.000000000000           0.000000000000           7.588924160217

  Mulliken analysis of the total density
  --------------------------------------

    Atom       Charge   Shell Charges
 -----------   ------   -------------------------------------------------------
    1 O    8     8.41   2.00  0.84  0.89  2.76  1.90  0.01
    2 H    1     0.77   0.58  0.13  0.06
    3 H    1     0.82   0.67  0.07  0.08

       Multipole analysis of the density wrt the origin
       ------------------------------------------------

     L   x y z        total         open         nuclear
     -   - - -        -----         ----         -------
     0   0 0 0      0.000000      0.000000     10.000000

     1   1 0 0      0.633221      0.000000     -0.000000
     1   0 1 0      0.487018      0.000000      0.000000
     1   0 0 1     -0.000000      0.000000      0.000000

     2   2 0 0     -4.062266      0.000000      2.679864
     2   1 1 0     -0.809314      0.000000     -1.369926
     2   1 0 1      0.000000      0.000000      0.000000
     2   0 2 0     -3.152121      0.000000      4.626021
     2   0 1 1     -0.000000      0.000000      0.000000
     2   0 0 2     -5.376407      0.000000      0.000000


 Parallel integral file used       1 records with       0 large values

                   NWChem Extensible Many-Electron Theory Module
                   ---------------------------------------------

              ======================================================
                   This portion of the program was automatically
                  generated by a Tensor Contraction Engine (TCE).
                  The development of this portion of the program
                 and TCE was supported by US Department of Energy,
                Office of Science, Office of Basic Energy Science.
                      TCE is a product of Battelle and PNNL.
              Please cite: S.Hirata, J.Phys.Chem.A 107, 9887 (2003).
              ======================================================

                                        H2O


            General Information
            -------------------
      Number of processors :     1
         Wavefunction type : Restricted Hartree-Fock
          No. of electrons :    10
           Alpha electrons :     5
            Beta electrons :     5
           No. of orbitals :    48
            Alpha orbitals :    24
             Beta orbitals :    24
        Alpha frozen cores :     0
         Beta frozen cores :     0
     Alpha frozen virtuals :     0
      Beta frozen virtuals :     0
         Spin multiplicity : singlet 
    Number of AO functions :    24
       Number of AO shells :    12
        Use of symmetry is : off
      Symmetry adaption is : off
         Schwarz screening : 0.10D-09

          Correlation Information
          -----------------------
          Calculation type : Coupled-cluster singles & doubles                           
   Perturbative correction : none                                                        
            Max iterations :      300
        Residual threshold : 0.10D-06
     T(0) DIIS level shift : 0.00D+00
     L(0) DIIS level shift : 0.00D+00
     T(1) DIIS level shift : 0.00D+00
     L(1) DIIS level shift : 0.00D+00
     T(R) DIIS level shift : 0.00D+00
     T(I) DIIS level shift : 0.00D+00
   CC-T/L Amplitude update :  5-th order DIIS
                I/O scheme : Global Array Library
        L-threshold :  0.10D-06
        EOM-threshold :  0.10D-06
 no EOMCCSD initial starts read in
 TCE RESTART OPTIONS
 READ_INT:   F
 WRITE_INT:  F
 READ_TA:    F
 WRITE_TA:   F
 READ_XA:    F
 WRITE_XA:   F
 READ_IN3:   F
 WRITE_IN3:  F
 SLICE:      F
 D4D5:       F
 quantumc:   F
 qrotation:  F
 pwtce:      F
 qducc:      T
 nacto:                         0
 nrotv:                         0
 nrot:                          0

            Memory Information
            ------------------
          Available GA space size is    1610612160 doubles
          Available MA space size is    1610610956 doubles

 Maximum block size        32 doubles

 tile_dim =     19

 Block   Spin    Irrep     Size     Offset   Alpha
 -------------------------------------------------
   1    alpha     a      5 doubles       0       1
   2    beta      a      5 doubles       5       1
   3    alpha     a     19 doubles      10       3
   4    beta      a     19 doubles      29       3

 Global array virtual files algorithm will be used

 Parallel file system coherency ......... OK

 #quartets = 3.081D+03 #integrals = 2.131D+04 #direct =  0.0% #cached =100.0%


 Integral file          = ./H2O.aoints.0
 Record size in doubles =  65536        No. of integs per rec  =  43688
 Max. records in memory =      4        Max. records in file   = 232247
 No. of bits per label  =      8        No. of bits per value  =     64


 Fock matrix recomputed
 1-e file size   =              576
 1-e file name   = ./H2O.f1
 Cpu & wall time / sec            0.0            0.0
 4-electron integrals stored in orbital form

 v2    file size   =           185666
 4-index algorithm nr.  13 is used
 imaxsize =       30
 imaxsize ichop =        0
 Cpu & wall time / sec            0.1            0.1
 T1-number-of-tasks                    1

 t1 file size   =               95
 t1 file name   = ./H2O.t1
 t1 file handle =       -998
 T2-number-of-boxes                    2

 t2 file size   =            18050
 t2 file name   = ./H2O.t2
 t2 file handle =       -996
CCSD iterations
 ---------------------------------------------------------
 Iter          Residuum       Correlation     Cpu    Wall 
 ---------------------------------------------------------
NEW TASK SCHEDULING
CCSD_T1_NTS --- OK
CCSD_T2_NTS --- OK
    1   0.1117684744082  -0.2093507284027     0.0     0.0
    2   0.0325942006498  -0.2142378313677     0.0     0.0
    3   0.0124558518294  -0.2175321577536     0.0     0.0
    4   0.0053153313297  -0.2183752620670     0.0     0.0
    5   0.0023782975782  -0.2187300899071     0.0     0.0
 MICROCYCLE DIIS UPDATE:                    5                    5
    6   0.0003347032985  -0.2189683011397     0.0     0.0
    7   0.0001930109017  -0.2189793291654     0.0     0.0
    8   0.0000976023935  -0.2189806634799     0.0     0.0
    9   0.0000607285801  -0.2189809720149     0.0     0.0
   10   0.0000358469860  -0.2189814799936     0.0     0.0
 MICROCYCLE DIIS UPDATE:                   10                    5
   11   0.0000031392050  -0.2189823881341     0.0     0.0
   12   0.0000011310704  -0.2189822770233     0.0     0.0
   13   0.0000005263375  -0.2189823128946     0.0     0.0
   14   0.0000002720155  -0.2189823123677     0.0     0.0
   15   0.0000001420351  -0.2189823128383     0.0     0.0
 MICROCYCLE DIIS UPDATE:                   15                    5
   16   0.0000000265113  -0.2189823104300     0.0     0.0
 -----------------------------------------------------------------
 Iterations converged
 CCSD correlation energy / hartree =        -0.218982310430033
 CCSD total energy / hartree       =       -76.221846361780095

 Singles contributions

 Doubles contributions
     6a   (alpha)     6a   (beta ) ---     3a   (alpha)     3a   (beta )       -0.0230243905
     6a   (alpha)     6a   (beta ) ---     4a   (alpha)     4a   (beta )       -0.0311794042
     6a   (alpha)     7a   (beta ) ---     4a   (alpha)     3a   (beta )        0.0207778957
     7a   (alpha)     6a   (beta ) ---     3a   (alpha)     4a   (beta )        0.0207778957
     7a   (alpha)     7a   (beta ) ---     3a   (alpha)     3a   (beta )       -0.0341101178
     7a   (alpha)    11a   (beta ) ---     3a   (alpha)     5a   (beta )        0.0220360561
     8a   (alpha)     8a   (beta ) ---     3a   (alpha)     3a   (beta )       -0.0297180953
     8a   (alpha)     8a   (beta ) ---     3a   (alpha)     4a   (beta )        0.0228689369
     8a   (alpha)     8a   (beta ) ---     4a   (alpha)     3a   (beta )        0.0228689369
     8a   (alpha)     8a   (beta ) ---     4a   (alpha)     4a   (beta )       -0.0261192825
     9a   (alpha)     9a   (beta ) ---     3a   (alpha)     3a   (beta )       -0.0365004314
    10a   (alpha)    10a   (beta ) ---     4a   (alpha)     4a   (beta )       -0.0332480333
    10a   (alpha)    11a   (beta ) ---     4a   (alpha)     5a   (beta )        0.0271409903
    11a   (alpha)     7a   (beta ) ---     5a   (alpha)     3a   (beta )        0.0220360561
    11a   (alpha)    10a   (beta ) ---     5a   (alpha)     4a   (beta )        0.0271409903
    11a   (alpha)    11a   (beta ) ---     5a   (alpha)     5a   (beta )       -0.0504844452
 Ground state specification:
 exp(T)|Ref>~(1+T)|Ref>
 ------- a(p)+/a(q) strings ----------

 singles norm

 doubles norm

 Reference string
   1.0000000000000000      :(1a)+ (2a)+ (3a)+ (4a)+ (5a)+ (1b)+ (2b)+ (3b)+ (4b)+ (5b)+ |0>

 Singles strings

 Doubles strings
 -------------------------------------
 enrep_tce =    8.4544418216470199     
  EHF(total)         =       -76.00286405
  Shift (HFtot-HFA)  =         0.00000000
 ALL OCCUPIED ORBITALS ARE ACTIVE IN DUCC --> NO SHIFT
 Number of active orbitals                    8
 Number of active alpha electrons                    5
 Number of active beta electrons                    5
  nos                    10
  nvs                    38
 noas                     5
 nobs                     5
 nvas                    19
 nvbs                    19
 nactv                     3
 DUCC MODEL =                     6
 NONHF =  T
 F-T1 correlation    =   -1.7128035171325600E-008
 V-T1-T1 correlation =    2.4735788598470135E-005
 V-T2 correlation    =  -0.21900702909058350     
 Total correlation   =  -0.21898231043002020     
 F-T1(Ext) correlation         =    3.4072977153493791E-008
 V-T1(Ext)-T1(Ext) correlation =    1.0439596584451446E-005
 V-T2(Ext) correlation         =  -0.19567515086707601     
 Total Ext correlation         =  -0.19566467719751440     
1-BODY TIME =    1.620 SECONDS.
  HHHH TIME =    1.833 SECONDS.
  PPPP TIME =    0.027 SECONDS.
  HHHP TIME =    0.613 SECONDS.
  PPPH TIME =    0.080 SECONDS.
  HPHP TIME =    0.359 SECONDS.
  HHPP TIME =    0.340 SECONDS.
 ONE-BODY UNITARY CHECK
 TWO-BODY UNITARY CHECK
                    2                    2                    2                    4  -1.3551153156983275E-012
                    2                    2                    3                    4  -2.6919244569011390E-012
                    2                    2                    4                    2   1.3551118607038752E-012
                    2                    2                    4                    3   2.6919243810387507E-012
                    2                    3                    3                    2  -3.2099878310987151E-012
                    2                    3                    3                    4  -5.6584840979478912E-012
                    2                    3                    4                    2   1.4762878419727343E-012
                    2                    3                    4                    3   5.9273922575764360E-012
                    2                    4                    2                    2   1.3551153156983275E-012
                    2                    4                    3                    2  -3.5121471703147833E-012
                    2                    4                    3                    4   1.8185231966116877E-012
                    2                    4                    4                    2   2.7137181390912701E-012
                    2                    4                    4                    3  -1.8391668396566807E-012
                    2                    5                    3                    5   3.0116213342590292E-012
                    2                    5                    4                    5   6.0432926024533984E-012
                    2                    5                    5                    3  -2.7740327396275077E-012
                    2                    5                    5                    4  -5.3571851815759075E-012
                    2                    6                    4                    9  -1.1203885041943806E-012
                    2                    6                    8                    4  -1.1876423781052858E-012
                    2                    6                    9                    4   1.0912208636693066E-012
                    2                    7                    2                    8  -2.6554904108966326E-012
                    2                    7                    2                    9  -2.2398445945204237E-012
                    2                    7                    3                    7   4.4889335304443279E-012
                    2                    7                    3                    8   2.9576535665043480E-011
                    2                    7                    3                    9   2.1714562439822949E-011
                    2                    7                    4                    7   8.3258498836599748E-012
                    2                    7                    4                    8  -7.7172925168345063E-012
                    2                    7                    4                    9  -1.7499598992110066E-011
                    2                    7                    5                   10  -7.0122657680471434E-012
                    2                    7                    7                    3   2.6072546899236215E-012
                    2                    7                    8                    2  -4.4406561761078933E-012
                    2                    7                    8                    3  -2.9576535665043480E-011
                    2                    7                    8                    4  -2.4406482043715094E-011
                    2                    7                    9                    2  -6.9707290070372685E-012
                    2                    7                    9                    3   1.0409211253364914E-011
                    2                    7                    9                    4   1.7499598992110066E-011
                    2                    7                   10                    5   7.0122657680471434E-012
                    2                    8                    2                    7   2.6554904108966326E-012
                    2                    8                    3                    7   2.2429114121536031E-011
                    2                    8                    3                    8   2.0845460340507271E-011
                    2                    8                    3                    9   1.7431892734842691E-011
                    2                    8                    4                    7  -5.0816889758664718E-012
                    2                    8                    4                    8   9.9241717274600738E-012
                    2                    8                    4                    9   3.9300923626583995E-012
                    2                    8                    5                   10   4.3298628571442066E-012
                    2                    8                    7                    2  -2.6072546899236215E-012
                    2                    8                    8                    2  -2.5640045642205678E-011
                    2                    8                    8                    3  -2.0859748824098023E-011
                    2                    8                    8                    4  -2.3090386373769700E-011
                    2                    8                    9                    2   6.5580301605860924E-012
                    2                    8                    9                    3  -3.9967751330749479E-012
                    2                    8                    9                    4  -3.5666261610778349E-012
                    2                    8                   10                    5  -4.0075252144555762E-012
                    2                    9                    2                    7   2.2398445945204237E-012
                    2                    9                    3                    7   1.4617895869456499E-011
                    2                    9                    3                    8   1.6453664819504610E-011
                    2                    9                    4                    7  -1.1618456197126648E-011
                    2                    9                    4                    8   1.1279241429740239E-012
                    2                    9                    4                    9   2.5130161840358767E-011
                    2                    9                    5                   10   8.3092734082246267E-012
                    2                    9                    8                    2  -1.8130099851965120E-011
                    2                    9                    8                    3  -1.7039421956743794E-011
                    2                    9                    8                    4   1.6979438688391468E-012
                    2                    9                    9                    2   1.4332757203305846E-011
                    2                    9                    9                    3  -2.9671005236098225E-012
                    2                    9                    9                    4  -2.4153914979230251E-011
                    2                    9                   10                    5  -8.3480652945944200E-012
                    2                   10                    3                   10  -2.2748725646282164E-012
                    2                   10                    4                   10   1.5195684988089653E-011
                    2                   10                    5                    7  -5.8066051966676469E-012
                    2                   10                    5                    8   1.2101274843301368E-012
                    2                   10                    5                    9   4.2294327762260053E-012
                    2                   10                    8                    5   5.2864891283976867E-012
                    2                   10                    9                    5  -9.1523316703145952E-012
                    2                   10                   10                    2   6.6668892628740650E-012
                    2                   10                   10                    3  -3.9841268305307320E-012
                    2                   10                   10                    4  -9.5867064286991877E-012
                    3                    2                    2                    3   3.2099878310987151E-012
                    3                    2                    2                    4   3.5121471703147833E-012
                    3                    2                    4                    2  -4.0823160823988403E-012
                    3                    3                    3                    4   1.3652911838879615E-011
                    3                    3                    4                    3  -1.3652916301102121E-011
                    3                    4                    2                    2   2.6919244569011390E-012
                    3                    4                    2                    3   5.6584840979478912E-012
                    3                    4                    2                    4  -1.8185231966116877E-012
                    3                    4                    3                    3  -1.3652911838879615E-011
                    3                    4                    4                    3   2.8197777446337113E-011
                    3                    4                    4                    4  -6.2327220943338436E-012
                    3                    5                    2                    5  -3.0116213342590292E-012
                    3                    5                    4                    5  -1.7165796561968705E-011
                    3                    5                    5                    2  -1.4456656358130537E-012
                    3                    5                    5                    3   1.8899992682008815E-011
                    3                    5                    5                    4   1.2920222183798735E-011
                    3                    6                    3                    8   1.4721426118066705E-012
                    3                    6                    4                    9   1.5854028159734135E-012
                    3                    6                    5                   10   1.2066012251843450E-012
                    3                    6                    8                    3  -1.1440599986464739E-012
                    3                    6                    9                    4  -1.4683996206465988E-012
                    3                    6                   10                    5  -1.2717817250706975E-012
                    3                    7                    2                    7  -4.4889335304443279E-012
                    3                    7                    2                    8  -2.2429114121536031E-011
                    3                    7                    2                    9  -1.4617895869456499E-011
                    3                    7                    3                    8   7.3022508179088064E-012
                    3                    7                    4                    7  -2.4012441340870438E-011
                    3                    7                    4                    8  -1.2995302750562487E-011
                    3                    7                    4                    9   2.0391639765637848E-012
                    3                    7                    5                   10   6.3705221653442834E-012
                    3                    7                    7                    2   4.4407186261530285E-012
                    3                    7                    7                    3   2.5640045642205678E-011
                    3                    7                    7                    4   1.8130103321412072E-011
                    3                    7                    8                    3  -7.2879710079354343E-012
                    3                    7                    9                    2   1.9930068879958629E-011
                    3                    7                    9                    3   1.2178313045507760E-011
                    3                    7                    9                    4  -2.4026301781443493E-012
                    3                    7                   10                    5  -6.6928493996920579E-012
                    3                    8                    2                    7  -2.9576535665043480E-011
                    3                    8                    2                    8  -2.0845460340507271E-011
                    3                    8                    2                    9  -1.6453664819504610E-011
                    3                    8                    3                    6  -1.4721426118066705E-012
                    3                    8                    3                    7  -7.3022508179088064E-012
                    3                    8                    3                    9   1.1408656137856799E-011
                    3                    8                    4                    6   1.4094493801242169E-012
                    3                    8                    4                    7  -3.0142451035164441E-012
                    3                    8                    4                    8  -6.2911235249041297E-011
                    3                    8                    4                    9  -5.0145589070016428E-011
                    3                    8                    5                   10  -2.5294249333951413E-011
                    3                    8                    7                    2   2.9576535665043480E-011
                    3                    8                    7                    3   2.0859741017842381E-011
                    3                    8                    7                    4   1.7039418487296842E-011
                    3                    8                    8                    1   1.1440608660082119E-012
                    3                    8                    8                    2   7.2879718752971723E-012
                    3                    8                    8                    4   2.2442351796381210E-012
                    3                    8                    9                    1  -1.5191359455102305E-012
                    3                    8                    9                    2   2.4284914357242116E-012
                    3                    8                    9                    3   4.9258330053758570E-011
                    3                    8                    9                    4   5.0145602947804235E-011
                    3                    8                   10                    5   2.5294249333951413E-011
                    3                    9                    2                    7  -2.1714562439822949E-011
                    3                    9                    2                    8  -1.7431892734842691E-011
                    3                    9                    3                    8  -1.1408656137856799E-011
                    3                    9                    4                    7   1.3564427359114006E-012
                    3                    9                    4                    8  -2.9449317984209245E-011
                    3                    9                    4                    9  -6.3560700105935730E-011
                    3                    9                    5                   10  -1.9494072588804867E-011
                    3                    9                    7                    1   1.1876435707276756E-012
                    3                    9                    7                    2   2.4406485946842915E-011
                    3                    9                    7                    3   2.3090407190451412E-011
                    3                    9                    7                    4  -1.6979785633086664E-012
                    3                    9                    8                    3  -2.2442577310433087E-012
                    3                    9                    9                    2  -1.8527610001761730E-012
                    3                    9                    9                    3   5.7647220330636628E-011
                    3                    9                    9                    4   5.7327975699905664E-011
                    3                    9                   10                    5   2.0099463760026026E-011
                    3                   10                    2                   10   2.2748725646282164E-012
                    3                   10                    4                   10  -2.9066533902000202E-011
                    3                   10                    5                    7   6.9830842497342616E-012
                    3                   10                    5                    8  -1.0712219306041604E-011
                    3                   10                    5                    9  -9.1491809788013523E-012
                    3                   10                    7                    5  -5.2865021388237565E-012
                    3                   10                    9                    5   1.1900786779650563E-011
                    3                   10                   10                    1  -1.0823343089827464E-012
                    3                   10                   10                    2  -8.4287308035890796E-012
                    3                   10                   10                    3   2.9612534646616950E-011
                    3                   10                   10                    4   2.2069370636534913E-011
                    4                    2                    2                    2  -1.3551118607038752E-012
                    4                    2                    2                    3  -1.4762878419727343E-012
                    4                    2                    2                    4  -2.7137181390912701E-012
                    4                    2                    3                    2   4.0823160823988403E-012
                    4                    3                    2                    2  -2.6919243810387507E-012
                    4                    3                    2                    3  -5.9273922575764360E-012
                    4                    3                    2                    4   1.8391668396566807E-012
                    4                    3                    3                    3   1.3652916301102121E-011
                    4                    3                    3                    4  -2.8197777446337113E-011
                    4                    3                    4                    4   6.2327235473129855E-012
                    4                    4                    3                    4   6.2327220943338436E-012
                    4                    4                    4                    3  -6.2327235473129855E-012
                    4                    5                    2                    5  -6.0432926024533984E-012
                    4                    5                    3                    5   1.7165796561968705E-011
                    4                    5                    5                    2   1.4763103933779220E-012
                    4                    5                    5                    3  -6.4758042678247918E-012
                    4                    5                    5                    4  -4.1281422724637196E-012
                    4                    6                    3                    8  -1.4094493801242169E-012
                    4                    6                    8                    3   1.5191376802337064E-012
                    4                    7                    2                    7  -8.3258498836599748E-012
                    4                    7                    2                    8   5.0816889758664718E-012
                    4                    7                    2                    9   1.1618456197126648E-011
                    4                    7                    3                    7   2.4012441340870438E-011
                    4                    7                    3                    8   3.0142451035164441E-012
                    4                    7                    3                    9  -1.3564427359114006E-012
                    4                    7                    4                    9  -2.1523199889017519E-012
                    4                    7                    5                   10  -5.5344201443929819E-012
                    4                    7                    7                    2   6.9707348617289999E-012
                    4                    7                    7                    3  -6.5580336300330444E-012
                    4                    7                    7                    4  -1.4332757203305846E-011
                    4                    7                    8                    2  -1.9930065410511677E-011
                    4                    7                    8                    3  -2.4284879662772596E-012
                    4                    7                    8                    4   1.8527818168578847E-012
                    4                    7                    9                    3  -1.4694252759017701E-012
                    4                    7                    9                    4   1.1759343498951580E-012
                    4                    7                   10                    5   5.5732120307627753E-012
                    4                    8                    2                    7   7.7172925168345063E-012
                    4                    8                    2                    8  -9.9241717274600738E-012
                    4                    8                    2                    9  -1.1279241429740239E-012
                    4                    8                    3                    7   1.2995302750562487E-011
                    4                    8                    3                    8   6.2911235249041297E-011
                    4                    8                    3                    9   2.9449317984209245E-011
                    4                    8                    4                    9   3.8934671459101011E-012
                    4                    8                    5                   10   7.5378908843959369E-012
                    4                    8                    7                    2  -1.0409215156492735E-011
                    4                    8                    7                    3   3.9967751330749479E-012
                    4                    8                    7                    4   2.9670814416515867E-012
                    4                    8                    8                    2  -1.2178325188572092E-011
                    4                    8                    8                    3  -4.9258318778055976E-011
                    4                    8                    8                    4  -5.7647109308334166E-011
                    4                    8                    9                    2   1.4694634398182416E-012
                    4                    8                    9                    4   2.3392624642903925E-012
                    4                    8                   10                    5  -8.1432794535318820E-012
                    4                    9                    2                    6   1.1203885041943806E-012
                    4                    9                    2                    7   1.7499598992110066E-011
                    4                    9                    2                    8  -3.9300923626583995E-012
                    4                    9                    2                    9  -2.5130161840358767E-011
                    4                    9                    3                    6  -1.5854028159734135E-012
                    4                    9                    3                    7  -2.0391639765637848E-012
                    4                    9                    3                    8   5.0145589070016428E-011
                    4                    9                    3                    9   6.3560700105935730E-011
                    4                    9                    4                    7   2.1523199889017519E-012
                    4                    9                    4                    8  -3.8934671459101011E-012
                    4                    9                    5                   10   8.8562698841165854E-012
                    4                    9                    7                    1  -1.0912243331162585E-012
                    4                    9                    7                    2  -1.7499598992110066E-011
                    4                    9                    7                    3   3.5666296305247869E-012
                    4                    9                    7                    4   2.4153623545686287E-011
                    4                    9                    8                    1   1.4683974522422538E-012
                    4                    9                    8                    2   2.4026267086973974E-012
                    4                    9                    8                    3  -5.0145533558865196E-011
                    4                    9                    8                    4  -5.7327946209606573E-011
                    4                    9                    9                    2  -1.1762396612269299E-012
                    4                    9                    9                    3  -2.3392884851425322E-012
                    4                    9                   10                    5  -8.8562629452226815E-012
                    4                   10                    2                   10  -1.5195684988089653E-011
                    4                   10                    3                   10   2.9066533902000202E-011
                    4                   10                    5                    7  -4.5222575684178423E-012
                    4                   10                    5                    8   3.7370683804438531E-012
                    4                   10                    5                    9   4.2693210078326160E-012
                    4                   10                    7                    5   9.1523386092084991E-012
                    4                   10                    8                    5  -1.1900782442841873E-011
                    4                   10                   10                    2   5.9986182687765677E-012
                    4                   10                   10                    3  -1.0212802825648737E-011
                    4                   10                   10                    4  -8.3980600251720716E-012
                    5                    2                    3                    5   1.4456656358130537E-012
                    5                    2                    4                    5  -1.4763103933779220E-012
                    5                    2                    5                    3  -1.6832524957210993E-012
                    5                    3                    2                    5   2.7740327396275077E-012
                    5                    3                    3                    5  -1.8899992682008815E-011
                    5                    3                    4                    5   6.4758042678247918E-012
                    5                    3                    5                    2   1.6832524957210993E-012
                    5                    3                    5                    4  -2.2302333591017742E-012
                    5                    4                    2                    5   5.3571851815759075E-012
                    5                    4                    3                    5  -1.2920222183798735E-011
                    5                    4                    4                    5   4.1281422724637196E-012
                    5                    4                    5                    3   2.2302333591017742E-012
                    5                    6                    8                    5   1.0823358268657879E-012
                    5                    7                    2                   10   5.8066051966676469E-012
                    5                    7                    3                   10  -6.9830842497342616E-012
                    5                    7                    4                   10   4.5222575684178423E-012
                    5                    7                    5                    8  -2.1697166632805853E-012
                    5                    7                    7                    5  -6.6668892628740650E-012
                    5                    7                    8                    5   8.4287164921204027E-012
                    5                    7                    9                    5  -5.9986182687765677E-012
                    5                    8                    2                   10  -1.2101274843301368E-012
                    5                    8                    3                   10   1.0712219306041604E-011
                    5                    8                    4                   10  -3.7370683804438531E-012
                    5                    8                    5                    7   2.1697166632805853E-012
                    5                    8                    5                    9  -3.2156673157590632E-012
                    5                    8                    7                    5   3.9841316010202910E-012
                    5                    8                    8                    5  -2.9612534646616950E-011
                    5                    8                    9                    5   1.0212820172883497E-011
                    5                    9                    2                   10  -4.2294327762260053E-012
                    5                    9                    3                   10   9.1491809788013523E-012
                    5                    9                    4                   10  -4.2693210078326160E-012
                    5                    9                    5                    8   3.2156673157590632E-012
                    5                    9                    7                    5   9.5867203064869955E-012
                    5                    9                    8                    5  -2.2069401861557481E-011
                    5                    9                    9                    5   8.3980600251720716E-012
                    5                   10                    2                    7   7.0122657680471434E-012
                    5                   10                    2                    8  -4.3298628571442066E-012
                    5                   10                    2                    9  -8.3092734082246267E-012
                    5                   10                    3                    6  -1.2066012251843450E-012
                    5                   10                    3                    7  -6.3705221653442834E-012
                    5                   10                    3                    8   2.5294249333951413E-011
                    5                   10                    3                    9   1.9494072588804867E-011
                    5                   10                    4                    7   5.5344201443929819E-012
                    5                   10                    4                    8  -7.5378908843959369E-012
                    5                   10                    4                    9  -8.8562698841165854E-012
                    5                   10                    7                    2  -7.0122657680471434E-012
                    5                   10                    7                    3   4.0075477658607639E-012
                    5                   10                    7                    4   8.3480444779127083E-012
                    5                   10                    8                    1   1.2717817250706975E-012
                    5                   10                    8                    2   6.6928216441164423E-012
                    5                   10                    8                    3  -2.5294249333951413E-011
                    5                   10                    8                    4  -2.0099460290579074E-011
                    5                   10                    9                    2  -5.5731912140810635E-012
                    5                   10                    9                    3   8.1432820556170959E-012
                    5                   10                    9                    4   8.8562629452226815E-012
                    7                    1                    3                    9  -1.1876435707276756E-012
                    7                    1                    4                    9   1.0912243331162585E-012
                    7                    1                    9                    4  -1.1203919736413326E-012
                    7                    2                    2                    8   2.6072546899236215E-012
                    7                    2                    3                    7  -4.4407186261530285E-012
                    7                    2                    3                    8  -2.9576535665043480E-011
                    7                    2                    3                    9  -2.4406485946842915E-011
                    7                    2                    4                    7  -6.9707348617289999E-012
                    7                    2                    4                    8   1.0409215156492735E-011
                    7                    2                    4                    9   1.7499598992110066E-011
                    7                    2                    5                   10   7.0122657680471434E-012
                    7                    2                    7                    3  -2.6554765331088248E-012
                    7                    2                    7                    4  -2.2398431850575995E-012
                    7                    2                    8                    2   4.4889023054217603E-012
                    7                    2                    8                    3   2.9576535665043480E-011
                    7                    2                    8                    4   2.1714561138780342E-011
                    7                    2                    9                    2   8.3258455468512849E-012
                    7                    2                    9                    3  -7.7172873126640784E-012
                    7                    2                    9                    4  -1.7499598992110066E-011
                    7                    2                   10                    5  -7.0122657680471434E-012
                    7                    3                    2                    7  -2.6072546899236215E-012
                    7                    3                    3                    7  -2.5640045642205678E-011
                    7                    3                    3                    8  -2.0859741017842381E-011
                    7                    3                    3                    9  -2.3090407190451412E-011
                    7                    3                    4                    7   6.5580336300330444E-012
                    7                    3                    4                    8  -3.9967751330749479E-012
                    7                    3                    4                    9  -3.5666296305247869E-012
                    7                    3                    5                   10  -4.0075477658607639E-012
                    7                    3                    7                    2   2.6554765331088248E-012
                    7                    3                    8                    2   2.2429086365960416E-011
                    7                    3                    8                    3   2.0845461207869009E-011
                    7                    3                    8                    4   1.7431882326501835E-011
                    7                    3                    9                    2  -5.0816915779516858E-012
                    7                    3                    9                    3   9.9241821358009297E-012
                    7                    3                    9                    4   3.9300958321053514E-012
                    7                    3                   10                    5   4.3298611224207306E-012
                    7                    4                    3                    7  -1.8130103321412072E-011
                    7                    4                    3                    8  -1.7039418487296842E-011
                    7                    4                    3                    9   1.6979785633086664E-012
                    7                    4                    4                    7   1.4332757203305846E-011
                    7                    4                    4                    8  -2.9670814416515867E-012
                    7                    4                    4                    9  -2.4153623545686287E-011
                    7                    4                    5                   10  -8.3480444779127083E-012
                    7                    4                    7                    2   2.2398431850575995E-012
                    7                    4                    8                    2   1.4617891532647809E-011
                    7                    4                    8                    3   1.6453661350057658E-011
                    7                    4                    9                    2  -1.1618317419248569E-011
                    7                    4                    9                    3   1.1278894485045043E-012
                    7                    4                    9                    4   2.5129912040178226E-011
                    7                    4                   10                    5   8.3092525915429150E-012
                    7                    5                    3                   10   5.2865021388237565E-012
                    7                    5                    4                   10  -9.1523386092084991E-012
                    7                    5                    5                    7   6.6668892628740650E-012
                    7                    5                    5                    8  -3.9841316010202910E-012
                    7                    5                    5                    9  -9.5867203064869955E-012
                    7                    5                    8                    5  -2.2748699625430024E-012
                    7                    5                    9                    5   1.5195698865877461E-011
                    7                    5                   10                    2  -5.8068827524238031E-012
                    7                    5                   10                    3   1.2101153412658050E-012
                    7                    5                   10                    4   4.2294397151199092E-012
                    7                    7                    7                    9  -1.3551143535399335E-012
                    7                    7                    8                    9  -2.6919244539665090E-012
                    7                    7                    9                    7   1.3551109053217448E-012
                    7                    7                    9                    8   2.6919251255974617E-012
                    7                    8                    8                    7  -3.2096547641913276E-012
                    7                    8                    8                    9  -5.6584823632244152E-012
                    7                    8                    9                    7   1.4762913114196863E-012
                    7                    8                    9                    8   5.9273905228529600E-012
                    7                    9                    7                    7   1.3551143535399335E-012
                    7                    9                    8                    7  -3.5121471703147833E-012
                    7                    9                    8                    9   1.8185240639734257E-012
                    7                    9                    9                    7   2.7137181390912701E-012
                    7                    9                    9                    8  -1.8391685743801567E-012
                    7                   10                    8                   10   3.0116204668972912E-012
                    7                   10                    9                   10   6.0432926024533984E-012
                    7                   10                   10                    8  -2.7740327396275077E-012
                    7                   10                   10                    9  -5.3571851815759075E-012
                    8                    1                    3                    8  -1.1440608660082119E-012
                    8                    1                    4                    9  -1.4683974522422538E-012
                    8                    1                    5                   10  -1.2717817250706975E-012
                    8                    1                    8                    3   1.4721434791684085E-012
                    8                    1                    9                    4   1.5854010812499375E-012
                    8                    1                   10                    5   1.2066007915034760E-012
                    8                    2                    2                    7   4.4406561761078933E-012
                    8                    2                    2                    8   2.5640045642205678E-011
                    8                    2                    2                    9   1.8130099851965120E-011
                    8                    2                    3                    8  -7.2879718752971723E-012
                    8                    2                    4                    7   1.9930065410511677E-011
                    8                    2                    4                    8   1.2178325188572092E-011
                    8                    2                    4                    9  -2.4026267086973974E-012
                    8                    2                    5                   10  -6.6928216441164423E-012
                    8                    2                    7                    2  -4.4889023054217603E-012
                    8                    2                    7                    3  -2.2429086365960416E-011
                    8                    2                    7                    4  -1.4617891532647809E-011
                    8                    2                    8                    3   7.3022525526322823E-012
                    8                    2                    9                    2  -2.4012437871423487E-011
                    8                    2                    9                    3  -1.2995292342221632E-011
                    8                    2                    9                    4   2.0391605071168328E-012
                    8                    2                   10                    5   6.3704926750451918E-012
                    8                    3                    2                    7   2.9576535665043480E-011
                    8                    3                    2                    8   2.0859748824098023E-011
                    8                    3                    2                    9   1.7039421956743794E-011
                    8                    3                    3                    6   1.1440599986464739E-012
                    8                    3                    3                    7   7.2879710079354343E-012
                    8                    3                    3                    9   2.2442577310433087E-012
                    8                    3                    4                    6  -1.5191376802337064E-012
                    8                    3                    4                    7   2.4284879662772596E-012
                    8                    3                    4                    8   4.9258318778055976E-011
                    8                    3                    4                    9   5.0145533558865196E-011
                    8                    3                    5                   10   2.5294249333951413E-011
                    8                    3                    7                    2  -2.9576535665043480E-011
                    8                    3                    7                    3  -2.0845461207869009E-011
                    8                    3                    7                    4  -1.6453661350057658E-011
                    8                    3                    8                    1  -1.4721434791684085E-012
                    8                    3                    8                    2  -7.3022525526322823E-012
                    8                    3                    8                    4   1.1408683026070676E-011
                    8                    3                    9                    1   1.4094467780390030E-012
                    8                    3                    9                    2  -3.0142485729633961E-012
                    8                    3                    9                    3  -6.2911246524743891E-011
                    8                    3                    9                    4  -5.0145547436653004E-011
                    8                    3                   10                    5  -2.5294249333951413E-011
                    8                    4                    2                    6   1.1876423781052858E-012
                    8                    4                    2                    7   2.4406482043715094E-011
                    8                    4                    2                    8   2.3090386373769700E-011
                    8                    4                    2                    9  -1.6979438688391468E-012
                    8                    4                    3                    8  -2.2442351796381210E-012
                    8                    4                    4                    7  -1.8527818168578847E-012
                    8                    4                    4                    8   5.7647109308334166E-011
                    8                    4                    4                    9   5.7327946209606573E-011
                    8                    4                    5                   10   2.0099460290579074E-011
                    8                    4                    7                    2  -2.1714561138780342E-011
                    8                    4                    7                    3  -1.7431882326501835E-011
                    8                    4                    8                    3  -1.1408683026070676E-011
                    8                    4                    9                    2   1.3564045719949291E-012
                    8                    4                    9                    3  -2.9449449823193419E-011
                    8                    4                    9                    4  -6.3560677554530542E-011
                    8                    4                   10                    5  -1.9494072588804867E-011
                    8                    5                    2                   10  -5.2864891283976867E-012
                    8                    5                    4                   10   1.1900782442841873E-011
                    8                    5                    5                    6  -1.0823358268657879E-012
                    8                    5                    5                    7  -8.4287164921204027E-012
                    8                    5                    5                    8   2.9612534646616950E-011
                    8                    5                    5                    9   2.2069401861557481E-011
                    8                    5                    7                    5   2.2748699625430024E-012
                    8                    5                    9                    5  -2.9066547779788010E-011
                    8                    5                   10                    2   6.9830695045847158E-012
                    8                    5                   10                    3  -1.0712195019912940E-011
                    8                    5                   10                    4  -9.1491766419926623E-012
                    8                    7                    7                    8   3.2096547641913276E-012
                    8                    7                    7                    9   3.5121471703147833E-012
                    8                    7                    9                    7  -4.0823178171223162E-012
                    8                    8                    8                    9   1.3652919367295112E-011
                    8                    8                    9                    8  -1.3652919777259058E-011
                    8                    9                    7                    7   2.6919244539665090E-012
                    8                    9                    7                    8   5.6584823632244152E-012
                    8                    9                    7                    9  -1.8185240639734257E-012
                    8                    9                    8                    8  -1.3652919367295112E-011
                    8                    9                    9                    8   2.8197777446337113E-011
[...]
    7    7    8    3        0.0041501742
    7    7    8    4       -0.0077122008
    7    7    8    6       -0.0329846184
    7    7    8    7       -0.0205576064
    7    7    8    8        0.2970283061
    7    8    8    1       -0.0004452696
    7    8    8    2       -0.0044062815
    7    8    8    3        0.0064837399
    7    8    8    4       -0.0052199401
    7    8    8    6        0.0234889426
    7    8    8    7        0.0202195426
    7    8    8    8       -0.0617244166
    8    1    1    1        0.0698458145
    8    1    1    2       -0.0114968431
    8    1    1    3        0.0081571702
    8    1    1    4       -0.0057375078
    8    1    1    6       -0.0077775733
    8    1    1    7       -0.0036815764
    8    1    1    8        0.0073996621
    8    2    1    1       -0.0743736062
    8    2    1    2        0.0013895505
    8    2    1    3        0.0046577479
    8    2    1    4       -0.0069622308
    8    2    1    6       -0.0024862547
    8    2    1    7       -0.0032928034
    8    2    1    8        0.0039016543
    8    3    1    1        0.0960122768
    8    3    1    2       -0.0018220527
    8    3    1    3       -0.0004261173
    8    3    1    4       -0.0023285228
    8    3    1    6       -0.0017306823
    8    3    1    7        0.0003791701
    8    3    1    8        0.0012304023
    8    4    1    1       -0.0937533266
    8    4    1    2        0.0008201776
    8    4    1    3       -0.0048790283
    8    4    1    4       -0.0007455620
    8    4    1    6        0.0009060744
    8    4    1    7        0.0028605186
    8    4    1    8       -0.0020029824
    8    5    1    5       -0.0055125356
    8    6    1    1       -0.1490455062
    8    6    1    2        0.0020523170
    8    6    1    3        0.0011221294
    8    6    1    4       -0.0041157682
    8    6    1    6       -0.0008291714
    8    6    1    7       -0.0010337177
    8    6    1    8        0.0012578463
    8    7    1    1       -0.1125952212
    8    7    1    2        0.0016409843
    8    7    1    3        0.0007336539
    8    7    1    4        0.0007449456
    8    7    1    6        0.0007554202
    8    7    1    7       -0.0004813419
    8    7    1    8       -0.0004452696
    8    8    1    1        0.5023372665
    8    8    1    2       -0.0021903726
    8    8    1    3       -0.0034089472
    8    8    1    4        0.0050985506
    8    8    1    6        0.0014620262
    8    8    1    7        0.0022820265
    8    8    1    8       -0.0021908114
    8    1    2    1       -0.0110246855
    8    1    2    2        0.0009577317
    8    1    2    3        0.0076829869
    8    1    2    4       -0.0089891417
    8    1    2    6       -0.0031615717
    8    1    2    7       -0.0040271244
    8    1    2    8        0.0039016543
    8    2    2    1        0.0018069112
    8    2    2    2       -0.0304118317
    8    2    2    3        0.0083229198
    8    2    2    4       -0.0128497781
    8    2    2    6       -0.0227529671
    8    2    2    7       -0.0097428105
    8    2    2    8        0.0316493892
    8    3    2    1       -0.0022859101
    8    3    2    2        0.0287218887
    8    3    2    3        0.0250957075
    8    3    2    4       -0.0409592060
    8    3    2    6        0.0095945341
    8    3    2    7       -0.0010436026
    8    3    2    8       -0.0218069910
    8    4    2    1        0.0010870739
    8    4    2    2       -0.0409415870
    8    4    2    3       -0.0444369831
    8    4    2    4        0.0161514769
    8    4    2    6       -0.0134036851
    8    4    2    7        0.0108590129
    8    4    2    8        0.0184117031
    8    5    2    5       -0.0236122811
    8    6    2    1        0.0020521954
    8    6    2    2       -0.0974000377
    8    6    2    3        0.0105921048
    8    6    2    4       -0.0117058476
    8    6    2    6       -0.0162570501
    8    6    2    7        0.0031553494
    8    6    2    8       -0.0058218498
    8    7    2    1        0.0016579495
    8    7    2    2       -0.0705352225
    8    7    2    3        0.0087665063
    8    7    2    4        0.0063713642
    8    7    2    6       -0.0080116130
    8    7    2    7        0.0030699964
    8    7    2    8       -0.0044062815
    8    8    2    1       -0.0021903726
    8    8    2    2        0.4492677362
    8    8    2    3       -0.0713298109
    8    8    2    4        0.0465146025
    8    8    2    6        0.0213522666
    8    8    2    7       -0.0089571517
    8    8    2    8        0.0393879177
    8    1    3    1        0.0075455027
    8    1    3    2        0.0076164871
    8    1    3    3       -0.0008746727
    8    1    3    4       -0.0003985748
    8    1    3    6        0.0012746428
    8    1    3    7       -0.0005774080
    8    1    3    8        0.0012304023
    8    2    3    1        0.0045367993
    8    2    3    2        0.0084534708
    8    2    3    3       -0.0110012549
    8    2    3    4       -0.0205670962
    8    2    3    6        0.0103656861
    8    2    3    7        0.0110055608
    8    2    3    8       -0.0218069910
    8    3    3    1       -0.0004655821
    8    3    3    2        0.0244910376
    8    3    3    3        0.0061234419
    8    3    3    4        0.0244554297
    8    3    3    6       -0.0263101493
    8    3    3    7       -0.0248529606
    8    3    3    8        0.0658697931
    8    4    3    1       -0.0051794108
    8    4    3    2       -0.0455370937
    8    4    3    3       -0.0063212390
    8    4    3    4       -0.0162663048
    8    4    3    6        0.0185910687
    8    4    3    7        0.0163192136
    8    4    3    8       -0.0452784086
    8    5    3    5        0.0085073869
    8    6    3    1        0.0010686771
    8    6    3    2        0.0103646564
    8    6    3    3       -0.0911638021
    8    6    3    4        0.0110444304
    8    6    3    6        0.0021199847
    8    6    3    7        0.0147413238
    8    6    3    8        0.0184678899
    8    7    3    1        0.0007278266
    8    7    3    2        0.0087171787
    8    7    3    3       -0.0668217696
    8    7    3    4        0.0055411521
    8    7    3    6        0.0017006328
    8    7    3    7        0.0165189097
    8    7    3    8        0.0064837399
    8    8    3    1       -0.0034089472
    8    8    3    2       -0.0713298109
    8    8    3    3        0.4687262385
    8    8    3    4       -0.0547427295
    8    8    3    6        0.0331511870
    8    8    3    7       -0.0240211064
    8    8    3    8       -0.1013980374
    8    1    4    1       -0.0051587394
    8    1    4    2       -0.0089356016
    8    1    4    3       -0.0004053808
    8    1    4    4        0.0050872498
    8    1    4    6       -0.0005873936
    8    1    4    7        0.0020926896
    8    1    4    8       -0.0020029824
    8    2    4    1       -0.0070945069
    8    2    4    2       -0.0131097105
    8    2    4    3       -0.0204931157
    8    2    4    4       -0.0122262788
    8    2    4    6       -0.0135910997
    8    2    4    7        0.0026251783
    8    2    4    8        0.0184117031
    8    3    4    1       -0.0025777260
    8    3    4    2       -0.0419247503
    8    3    4    3        0.0252316088
    8    3    4    4        0.0215054552
    8    3    4    6        0.0223379817
    8    3    4    7        0.0123838485
    8    3    4    8       -0.0452784086
    8    4    4    1       -0.0009361876
    8    4    4    2        0.0155326692
    8    4    4    3       -0.0157761188
    8    4    4    4       -0.0325605738
    8    4    4    6       -0.0255139805
    8    4    4    7       -0.0177799279
    8    4    4    8        0.0516121133
    8    5    4    5       -0.0008507975
    8    6    4    1       -0.0041166716
    8    6    4    2       -0.0116081640
    8    6    4    3        0.0109904215
    8    6    4    4       -0.0869765900
    8    6    4    6       -0.0097869120
    8    6    4    7        0.0007151318
    8    6    4    8       -0.0117847386
    8    7    4    1        0.0008143836
    8    7    4    2        0.0065444794
    8    7    4    3        0.0053479154
    8    7    4    4       -0.0703509745
    8    7    4    6       -0.0047921261
    8    7    4    7       -0.0015477285
    8    7    4    8       -0.0052199401
    8    8    4    1        0.0050985506
    8    8    4    2        0.0465146025
    8    8    4    3       -0.0547427295
    8    8    4    4        0.4412237954
    8    8    4    6       -0.0110827148
    8    8    4    7       -0.0194419734
    8    8    4    8        0.0786678824
    8    1    5    5        0.0009256628
    8    2    5    5       -0.0372364537
    8    3    5    5        0.0398163413
    8    4    5    5       -0.0386615869
    8    5    5    1       -0.0059688910
    8    5    5    2       -0.0251016929
    8    5    5    3        0.0091240814
    8    5    5    4       -0.0011530123
    8    5    5    6       -0.0083006733
    8    5    5    7       -0.0040895169
    8    5    5    8        0.0117857973
    8    6    5    5       -0.0862616021
    8    7    5    5       -0.0664633141
    8    8    5    5        0.4168874392
    8    1    6    1       -0.0080037776
    8    1    6    2       -0.0035586894
    8    1    6    3        0.0014721670
    8    1    6    4       -0.0008307063
    8    1    6    6       -0.0023108028
    8    1    6    7       -0.0013924249
    8    1    6    8        0.0012578463
    8    2    6    1       -0.0029126893
    8    2    6    2       -0.0246473232
    8    2    6    3        0.0107432176
    8    2    6    4       -0.0136402070
    8    2    6    6       -0.0035785990
    8    2    6    7        0.0053717680
    8    2    6    8       -0.0058218498
    8    3    6    1       -0.0015480140
    8    3    6    2        0.0094364499
    8    3    6    3       -0.0259603564
    8    3    6    4        0.0210535427
    8    3    6    6       -0.0196224884
    8    3    6    7       -0.0199930161
    8    3    6    8        0.0184678899
    8    4    6    1        0.0007040987
    8    4    6    2       -0.0136780960
    8    4    6    3        0.0179482181
    8    4    6    4       -0.0254255053
    8    4    6    6        0.0081550467
    8    4    6    7        0.0222736922
    8    4    6    8       -0.0117847386
    8    5    6    5       -0.0097880174
    8    6    6    1       -0.0008168755
    8    6    6    2       -0.0162197895
    8    6    6    3        0.0025011939
    8    6    6    4       -0.0098164137
    8    6    6    6       -0.0391417555
    8    6    6    7       -0.0026092516
    8    6    6    8        0.0422371288
    8    7    6    1        0.0007709112
    8    7    6    2       -0.0080941124
    8    7    6    3        0.0017627716
    8    7    6    4       -0.0051750115
    8    7    6    6       -0.0256299382
    8    7    6    7       -0.0041184662
    8    7    6    8        0.0234889426
    8    8    6    1        0.0014620262
    8    8    6    2        0.0213522666
    8    8    6    3        0.0331511870
    8    8    6    4       -0.0110827148
    8    8    6    6        0.3668835095
    8    8    6    7        0.0721241543
    8    8    6    8       -0.0960479483
    8    1    7    1       -0.0038197930
    8    1    7    2       -0.0042033651
    8    1    7    3       -0.0003668087
    8    1    7    4        0.0022024772
    8    1    7    6       -0.0013872516
    8    1    7    7        0.0009730079
    8    1    7    8       -0.0004452696
    8    2    7    1       -0.0034981725
    8    2    7    2       -0.0110405528
    8    2    7    3        0.0100724941
    8    2    7    4        0.0043617410
    8    2    7    6        0.0055389035
    8    2    7    7        0.0001108051
    8    2    7    8       -0.0044062815
    8    3    7    1        0.0004998552
    8    3    7    2       -0.0005685393
    8    3    7    3       -0.0240696241
    8    3    7    4        0.0122048706
    8    3    7    6       -0.0198957785
    8    3    7    7        0.0041501742
    8    3    7    8        0.0064837399
    8    4    7    1        0.0030316015
    8    4    7    2        0.0122917375
    8    4    7    3        0.0151195148
    8    4    7    4       -0.0186611794
    8    4    7    6        0.0223437227
    8    4    7    7       -0.0077122008
    8    4    7    8       -0.0052199401
    8    5    7    5       -0.0045430000
    8    6    7    1       -0.0010150052
    8    6    7    2        0.0032316855
    8    6    7    3        0.0148432820
    8    6    7    4        0.0003508314
    8    6    7    6       -0.0026256981
    8    6    7    7       -0.0329846184
    8    6    7    8        0.0234889426
    8    7    7    1       -0.0004753418
    8    7    7    2        0.0030423562
    8    7    7    3        0.0164816972
    8    7    7    4       -0.0016758375
    8    7    7    6       -0.0041257639
    8    7    7    7       -0.0205576064
    8    7    7    8        0.0202195426
    8    8    7    1        0.0022820265
    8    8    7    2       -0.0089571517
    8    8    7    3       -0.0240211064
    8    8    7    4       -0.0194419734
    8    8    7    6        0.0721241543
    8    8    7    7        0.2970283061
    8    8    7    8       -0.0617244166
    8    1    8    1        0.0075977810
    8    1    8    2        0.0042432866
    8    1    8    3        0.0010543408
    8    1    8    4       -0.0019251853
    8    1    8    6        0.0012503585
    8    1    8    7       -0.0004572088
    8    1    8    8       -0.0021908114
    8    2    8    1        0.0042432866
    8    2    8    2        0.0340261353
    8    2    8    3       -0.0211168386
    8    2    8    4        0.0175142005
    8    2    8    6       -0.0055777482
    8    2    8    7       -0.0041475061
    8    2    8    8        0.0393879177
    8    3    8    1        0.0010543408
    8    3    8    2       -0.0211168386
    8    3    8    3        0.0653016619
    8    3    8    4       -0.0441199788
    8    3    8    6        0.0177719911
    8    3    8    7        0.0061149037
    8    3    8    8       -0.1013980374
    8    4    8    1       -0.0019251853
    8    4    8    2        0.0175142005
    8    4    8    3       -0.0441199788
    8    4    8    4        0.0521797012
    8    4    8    6       -0.0113539096
    8    4    8    7       -0.0049375032
    8    4    8    8        0.0786678824
    8    5    8    5        0.0123998191
    8    6    8    1        0.0012503585
    8    6    8    2       -0.0055777482
    8    6    8    3        0.0177719911
    8    6    8    4       -0.0113539096
    8    6    8    6        0.0421900805
    8    6    8    7        0.0234262101
    8    6    8    8       -0.0960479483
    8    7    8    1       -0.0004572088
    8    7    8    2       -0.0041475061
    8    7    8    3        0.0061149037
    8    7    8    4       -0.0049375032
    8    7    8    6        0.0234262101
    8    7    8    7        0.0201566967
    8    7    8    8       -0.0617244166
    8    8    8    1       -0.0021908114
    8    8    8    2        0.0393879177
    8    8    8    3       -0.1013980374
    8    8    8    4        0.0786678824
    8    8    8    6       -0.0960479483
    8    8    8    7       -0.0617244166
    8    8    8    8        0.5988128521
 end_two_electron_integrals

 Parallel integral file used       1 records with       0 large values


 Task  times  cpu:        5.3s     wall:        5.4s


                                NWChem Input Module
                                -------------------


 Summary of allocated global arrays
-----------------------------------
  No active global arrays


MA_summarize_allocated_blocks: starting scan ...
MA_summarize_allocated_blocks: scan completed: 0 heap blocks, 0 stack blocks
MA usage statistics:

	allocation statistics:
					      heap	     stack
					      ----	     -----
	current number of blocks	         0	         0
	maximum number of blocks	        17	        42
	current total bytes		         0	         0
	maximum total bytes		   2110096	 141357496
	maximum total K-bytes		      2111	    141358
	maximum total M-bytes		         3	       142


                                     CITATION
                                     --------
                Please cite the following reference when publishing
                           results obtained with NWChem:

          E. Apra, E. J. Bylaska, W. A. de Jong, N. Govind, K. Kowalski,
       T. P. Straatsma, M. Valiev, H. J. J. van Dam, Y. Alexeev, J. Anchell,
       V. Anisimov, F. W. Aquino, R. Atta-Fynn, J. Autschbach, N. P. Bauman,
     J. C. Becca, D. E. Bernholdt, K. Bhaskaran-Nair, S. Bogatko, P. Borowski,
         J. Boschen, J. Brabec, A. Bruner, E. Cauet, Y. Chen, G. N. Chuev,
      C. J. Cramer, J. Daily, M. J. O. Deegan, T. H. Dunning Jr., M. Dupuis,
   K. G. Dyall, G. I. Fann, S. A. Fischer, A. Fonari, H. Fruchtl, L. Gagliardi,
      J. Garza, N. Gawande, S. Ghosh, K. Glaesemann, A. W. Gotz, J. Hammond,
       V. Helms, E. D. Hermes, K. Hirao, S. Hirata, M. Jacquelin, L. Jensen,
   B. G. Johnson, H. Jonsson, R. A. Kendall, M. Klemm, R. Kobayashi, V. Konkov,
      S. Krishnamoorthy, M. Krishnan, Z. Lin, R. D. Lins, R. J. Littlefield,
      A. J. Logsdail, K. Lopata, W. Ma, A. V. Marenich, J. Martin del Campo,
   D. Mejia-Rodriguez, J. E. Moore, J. M. Mullin, T. Nakajima, D. R. Nascimento,
    J. A. Nichols, P. J. Nichols, J. Nieplocha, A. Otero-de-la-Roza, B. Palmer,
    A. Panyala, T. Pirojsirikul, B. Peng, R. Peverati, J. Pittner, L. Pollack,
   R. M. Richard, P. Sadayappan, G. C. Schatz, W. A. Shelton, D. W. Silverstein,
   D. M. A. Smith, T. A. Soares, D. Song, M. Swart, H. L. Taylor, G. S. Thomas,
            V. Tipparaju, D. G. Truhlar, K. Tsemekhman, T. Van Voorhis,
      A. Vazquez-Mayagoitia, P. Verma, O. Villa, A. Vishnu, K. D. Vogiatzis,
        D. Wang, J. H. Weare, M. J. Williamson, T. L. Windus, K. Wolinski,
        A. T. Wong, Q. Wu, C. Yang, Q. Yu, M. Zacharias, Z. Zhang, Y. Zhao,
                                and R. J. Harrison
                        "NWChem: Past, present, and future
                         J. Chem. Phys. 152, 184102 (2020)
                               doi:10.1063/5.0004997

                                      AUTHORS
                                      -------
  E. Apra, E. J. Bylaska, N. Govind, K. Kowalski, M. Valiev, D. Mejia-Rodriguez,
       A. Kunitsa, N. P. Bauman, A. Panyala, W. A. de Jong, T. P. Straatsma,
        H. J. J. van Dam, D. Wang, T. L. Windus, J. Hammond, J. Autschbach,
    K. Bhaskaran-Nair, J. Brabec, K. Lopata, S. A. Fischer, S. Krishnamoorthy,
     M. Jacquelin, W. Ma, M. Klemm, O. Villa, Y. Chen, V. Anisimov, F. Aquino,
    S. Hirata, M. T. Hackler, Eric Hermes, L. Jensen, J. E. Moore, J. C. Becca,
      V. Konjkov, T. Risthaus, M. Malagoli, A. Marenich, A. Otero-de-la-Roza,
        J. Mullin, P. Nichols, R. Peverati, J. Pittner, Y. Zhao, P.-D. Fan,
        A. Fonari, M. J. Williamson, R. J. Harrison, J. R. Rehr, M. Dupuis,
     D. Silverstein, D. M. A. Smith, J. Nieplocha, V. Tipparaju, M. Krishnan,
     B. E. Van Kuiken, A. Vazquez-Mayagoitia, M. Swart, Q. Wu, T. Van Voorhis,
     A. A. Auer, M. Nooijen, L. D. Crosby, E. Brown, G. Cisneros, G. I. Fann,
   H. Fruchtl, J. Garza, K. Hirao, R. A. Kendall, J. A. Nichols, K. Tsemekhman,
    K. Wolinski, J. Anchell, D. E. Bernholdt, P. Borowski, T. Clark, D. Clerc,
   H. Dachsel, M. J. O. Deegan, K. Dyall, D. Elwood, E. Glendening, M. Gutowski,
   A. C. Hess, J. Jaffe, B. G. Johnson, J. Ju, R. Kobayashi, R. Kutteh, Z. Lin,
   R. Littlefield, X. Long, B. Meng, T. Nakajima, S. Niu, L. Pollack, M. Rosing,
   K. Glaesemann, G. Sandrone, M. Stave, H. Taylor, G. Thomas, J. H. van Lenthe,
                               A. T. Wong, Z. Zhang.

 Total times  cpu:        5.3s     wall:        5.4s
