 argument  1 = input.nw
  NWChem w/ OpenMP: maximum threads =    1



============================== echo of input deck ==============================
 echo
 start H2O
 title "H2O"

 memory total 24 gb

 geometry units bohr
 symmetry c1
        O  0.00000000  0.00000000  0.00000000
        H  0.00000000  2.1568365  0.00000000
        H  1.72558000 -0.64860000  0.00000000
 end

 basis spherical
   * library cc-pVDZ
 end

 scf
   vectors input h2o.mos
   vectors output h2o.mos
 end

 tce
   2eorb
   2emet 13
   ccsd
   maxiter 300
 end

# set tce:print_integrals T
# set tce:qorb 8
# set tce:qela 5
# set tce:qelb 5

 set tce:qducc T
 set tce:nactv 3
 set tce:nonhf T
 set tce:ducc_model 6

 set tce:printtol 0.02

 task tce
================================================================================


                                         
                                         


             Northwest Computational Chemistry Package (NWChem) 7.0.1
             --------------------------------------------------------


                    Environmental Molecular Sciences Laboratory
                       Pacific Northwest National Laboratory
                                Richland, WA 99352

                              Copyright (c) 1994-2020
                       Pacific Northwest National Laboratory
                            Battelle Memorial Institute

             NWChem is an open-source computational chemistry package
                        distributed under the terms of the
                      Educational Community License (ECL) 2.0
             A copy of the license is included with this distribution
                              in the LICENSE.TXT file

                                  ACKNOWLEDGMENT
                                  --------------

            This software and its documentation were developed at the
            EMSL at Pacific Northwest National Laboratory, a multiprogram
            national laboratory, operated for the U.S. Department of Energy
            by Battelle under Contract Number DE-AC05-76RL01830. Support
            for this work was provided by the Department of Energy Office
            of Biological and Environmental Research, Office of Basic
            Energy Sciences, and the Office of Advanced Scientific Computing.


           Job information
           ---------------

    hostname        = WE46210
    program         = /home/baum612/code/nwchem/bin/LINUX64/nwchem
    date            = Fri Sep  6 09:59:57 2024

    compiled        = Wed_Sep_04_02:00:17_2024
    source          = /home/baum612/code/nwchem
    nwchem branch   = 7.0.0
    nwchem revision = nwchem_on_git-4191-g39d87d64de
    ga revision     = 5.8.1
    use scalapack   = F
    input           = input.nw
    prefix          = H2O.
    data base       = ./H2O.db
    status          = startup
    nproc           =        1
    time left       =     -1s



           Memory information
           ------------------

    heap     =  805306366 doubles =   6144.0 Mbytes
    stack    =  805306363 doubles =   6144.0 Mbytes
    global   = 1610612736 doubles =  12288.0 Mbytes (distinct from heap & stack)
    total    = 3221225465 doubles =  24576.0 Mbytes
    verify   = yes
    hardfail = no 


           Directory information
           ---------------------

  0 permanent = .
  0 scratch   = .




                                NWChem Input Module
                                -------------------


                                        H2O
                                        ---
 Turning off AUTOSYM since
 SYMMETRY directive was detected!


          ------
          auto-z
          ------
  no constraints, skipping    0.0000000000000000     
  no constraints, skipping    0.0000000000000000     


                             Geometry "geometry" -> ""
                             -------------------------

 Output coordinates in a.u. (scale by  1.000000000 to convert to a.u.)

  No.       Tag          Charge          X              Y              Z
 ---- ---------------- ---------- -------------- -------------- --------------
    1 O                    8.0000    -0.17255800    -0.15082365     0.00000000
    2 H                    1.0000    -0.17255800     2.00601285     0.00000000
    3 H                    1.0000     1.55302200    -0.79942365     0.00000000

      Atomic Mass 
      ----------- 

      O                 15.994910
      H                  1.007825


 Effective nuclear repulsion energy (a.u.)       8.3524399120

            Nuclear Dipole moment (a.u.) 
            ----------------------------
        X                 Y               Z
 ---------------- ---------------- ----------------
    -0.0000000000     0.0000000000     0.0000000000



                                Z-matrix (autoz)
                                -------- 

 Units are Angstrom for bonds and degrees for angles

      Type          Name      I     J     K     L     M      Value
      ----------- --------  ----- ----- ----- ----- ----- ----------
    1 Stretch                  1     2                       1.14135
    2 Stretch                  1     3                       0.97551
    3 Bend                     2     1     3               110.59992


            XYZ format geometry
            -------------------
     3
 geometry
 O                    -0.09131377    -0.07981244     0.00000000
 H                    -0.09131377     1.06153636     0.00000000
 H                     0.82182391    -0.42303681     0.00000000

 ==============================================================================
                                internuclear distances
 ------------------------------------------------------------------------------
       center one      |      center two      | atomic units |       a.u.
 ------------------------------------------------------------------------------
    3 H                |   1 O                |     1.84345  |     1.84345
 ------------------------------------------------------------------------------
                         number of included internuclear distances:          1
 ==============================================================================





 Summary of "ao basis" -> "" (spherical)
 ------------------------------------------------------------------------------
       Tag                 Description            Shells   Functions and Types
 ---------------- ------------------------------  ------  ---------------------
 *                          cc-pVDZ                   on all atoms 


                      Basis "ao basis" -> "ao basis" (spherical)
                      -----
  O (Oxygen)
  ----------
            Exponent  Coefficients 
       -------------- ---------------------------------------------------------
  1 S  1.17200000E+04  0.000710
  1 S  1.75900000E+03  0.005470
  1 S  4.00800000E+02  0.027837
  1 S  1.13700000E+02  0.104800
  1 S  3.70300000E+01  0.283062
  1 S  1.32700000E+01  0.448719
  1 S  5.02500000E+00  0.270952
  1 S  1.01300000E+00  0.015458

  2 S  1.17200000E+04 -0.000160
  2 S  1.75900000E+03 -0.001263
  2 S  4.00800000E+02 -0.006267
  2 S  1.13700000E+02 -0.025716
  2 S  3.70300000E+01 -0.070924
  2 S  1.32700000E+01 -0.165411
  2 S  5.02500000E+00 -0.116955
  2 S  1.01300000E+00  0.557368

  3 S  3.02300000E-01  1.000000

  4 P  1.77000000E+01  0.043018
  4 P  3.85400000E+00  0.228913
  4 P  1.04600000E+00  0.508728

  5 P  2.75300000E-01  1.000000

  6 D  1.18500000E+00  1.000000

  H (Hydrogen)
  ------------
            Exponent  Coefficients 
       -------------- ---------------------------------------------------------
  1 S  1.30100000E+01  0.019685
  1 S  1.96200000E+00  0.137977
  1 S  4.44600000E-01  0.478148

  2 S  1.22000000E-01  1.000000

  3 P  7.27000000E-01  1.000000



 Summary of "ao basis" -> "ao basis" (spherical)
 ------------------------------------------------------------------------------
       Tag                 Description            Shells   Functions and Types
 ---------------- ------------------------------  ------  ---------------------
 O                          cc-pVDZ                  6       14   3s2p1d
 H                          cc-pVDZ                  3        5   2s1p


                                 NWChem SCF Module
                                 -----------------


                                        H2O



  ao basis        = "ao basis"
  functions       =    24
  atoms           =     3
  closed shells   =     5
  open shells     =     0
  charge          =   0.00
  wavefunction    = RHF 
  input vectors   = ./h2o.mos
  output vectors  = ./h2o.mos
  use symmetry    = F
  symmetry adapt  = F


 Summary of "ao basis" -> "ao basis" (spherical)
 ------------------------------------------------------------------------------
       Tag                 Description            Shells   Functions and Types
 ---------------- ------------------------------  ------  ---------------------
 O                          cc-pVDZ                  6       14   3s2p1d
 H                          cc-pVDZ                  3        5   2s1p



 Forming initial guess at       0.0s


 Loading old vectors from job with title :

H2O


 Starting SCF solution at       0.0s



 ----------------------------------------------
         Quadratically convergent ROHF

 Convergence threshold     :          1.000E-04
 Maximum no. of iterations :           30
 Final Fock-matrix accuracy:          1.000E-07
 ----------------------------------------------


 #quartets = 3.081D+03 #integrals = 2.131D+04 #direct =  0.0% #cached =100.0%


 Integral file          = ./H2O.aoints.0
 Record size in doubles =  65536        No. of integs per rec  =  43688
 Max. records in memory =      4        Max. records in file   = 232245
 No. of bits per label  =      8        No. of bits per value  =     64


              iter       energy          gnorm     gmax       time
             ----- ------------------- --------- --------- --------
                 1      -75.9961628388  8.43D-03  3.09D-03      0.1
                 2      -75.9961683657  4.82D-05  1.66D-05      0.1


       Final RHF  results 
       ------------------ 

         Total SCF energy =    -75.996168365729
      One-electron energy =   -121.624033508019
      Two-electron energy =     37.275425230266
 Nuclear repulsion energy =      8.352439912024

        Time for solution =      0.0s


             Final eigenvalues
             -----------------

              1      
    1  -20.5627
    2   -1.2931
    3   -0.6610
    4   -0.5342
    5   -0.4856
    6    0.1606
    7    0.2413
    8    0.6975
    9    0.8094
   10    1.1589
   11    1.1906
   12    1.2683
   13    1.4485
   14    1.5158
   15    1.6867

                       ROHF Final Molecular Orbital Analysis
                       -------------------------------------

 Vector    2  Occ=2.000000D+00  E=-1.293105D+00
              MO Center=  5.0D-02, -4.3D-02, -8.5D-18, r^2= 5.2D-01
   Bfn.  Coefficient  Atom+Function         Bfn.  Coefficient  Atom+Function  
  ----- ------------  ---------------      ----- ------------  ---------------
     2      0.451142  1 O  s                  3      0.435224  1 O  s          
    20      0.191574  3 H  s          

 Vector    3  Occ=2.000000D+00  E=-6.609767D-01
              MO Center=  6.3D-02,  7.7D-02,  2.9D-18, r^2= 8.6D-01
   Bfn.  Coefficient  Atom+Function         Bfn.  Coefficient  Atom+Function  
  ----- ------------  ---------------      ----- ------------  ---------------
    20      0.346778  3 H  s                  4      0.342261  1 O  px         
     5     -0.335679  1 O  py                15     -0.268074  2 H  s          
     7      0.170633  1 O  px                 8     -0.170894  1 O  py         

 Vector    4  Occ=2.000000D+00  E=-5.341832D-01
              MO Center= -1.2D-01, -1.3D-02, -2.3D-17, r^2= 7.7D-01
   Bfn.  Coefficient  Atom+Function         Bfn.  Coefficient  Atom+Function  
  ----- ------------  ---------------      ----- ------------  ---------------
     4      0.405928  1 O  px                 5      0.354802  1 O  py         
     7      0.294965  1 O  px                 3     -0.285798  1 O  s          
     8      0.255776  1 O  py                15      0.235935  2 H  s          
    20      0.150534  3 H  s          

 Vector    5  Occ=2.000000D+00  E=-4.856192D-01
              MO Center= -7.3D-02, -7.2D-02,  4.3D-17, r^2= 6.0D-01
   Bfn.  Coefficient  Atom+Function         Bfn.  Coefficient  Atom+Function  
  ----- ------------  ---------------      ----- ------------  ---------------
     6      0.634386  1 O  pz                 9      0.499273  1 O  pz         

 Vector    6  Occ=0.000000D+00  E= 1.606181D-01
              MO Center=  2.0D-01,  6.9D-01,  8.4D-18, r^2= 2.7D+00
   Bfn.  Coefficient  Atom+Function         Bfn.  Coefficient  Atom+Function  
  ----- ------------  ---------------      ----- ------------  ---------------
    16      0.946915  2 H  s                  3     -0.849111  1 O  s          
    21      0.538237  3 H  s                  8     -0.333153  1 O  py         
     5     -0.208918  1 O  py                 7     -0.194082  1 O  px         

 Vector    7  Occ=0.000000D+00  E= 2.413063D-01
              MO Center=  7.6D-01, -7.7D-02, -2.9D-17, r^2= 3.3D+00
   Bfn.  Coefficient  Atom+Function         Bfn.  Coefficient  Atom+Function  
  ----- ------------  ---------------      ----- ------------  ---------------
    21      1.467457  3 H  s                 16     -0.973323  2 H  s          
     8      0.493529  1 O  py                 7     -0.416491  1 O  px         
     3     -0.342526  1 O  s                  5      0.228159  1 O  py         
     4     -0.189747  1 O  px         

 Vector    8  Occ=0.000000D+00  E= 6.974707D-01
              MO Center= -1.0D-01,  9.8D-01,  5.3D-17, r^2= 1.5D+00
   Bfn.  Coefficient  Atom+Function         Bfn.  Coefficient  Atom+Function  
  ----- ------------  ---------------      ----- ------------  ---------------
    15      1.277389  2 H  s                 16     -1.113757  2 H  s          
     5     -0.283028  1 O  py                 3      0.244030  1 O  s          
    21      0.165960  3 H  s                 18      0.163366  2 H  py         
     2     -0.160767  1 O  s          

 Vector    9  Occ=0.000000D+00  E= 8.093855D-01
              MO Center=  6.7D-01, -3.4D-01, -2.1D-16, r^2= 1.3D+00
   Bfn.  Coefficient  Atom+Function         Bfn.  Coefficient  Atom+Function  
  ----- ------------  ---------------      ----- ------------  ---------------
    20      1.277643  3 H  s                 21     -0.864794  3 H  s          
     4     -0.278756  1 O  px                 7     -0.252731  1 O  px         
    22      0.243552  3 H  px                 8      0.190363  1 O  py         
     2     -0.167867  1 O  s          

 Vector   10  Occ=0.000000D+00  E= 1.158853D+00
              MO Center= -1.7D-01,  8.3D-02, -2.9D-16, r^2= 1.3D+00
   Bfn.  Coefficient  Atom+Function         Bfn.  Coefficient  Atom+Function  
  ----- ------------  ---------------      ----- ------------  ---------------
     7      1.183089  1 O  px                 4     -0.732420  1 O  px         
     3      0.563627  1 O  s                 20     -0.458488  3 H  s          
    21     -0.372083  3 H  s                 22      0.338735  3 H  px         
     5     -0.263269  1 O  py                17      0.241863  2 H  px         
    15     -0.212460  2 H  s                  8      0.174067  1 O  py         

 Vector   11  Occ=0.000000D+00  E= 1.190554D+00
              MO Center= -9.5D-02,  3.5D-02,  3.7D-16, r^2= 1.1D+00
   Bfn.  Coefficient  Atom+Function         Bfn.  Coefficient  Atom+Function  
  ----- ------------  ---------------      ----- ------------  ---------------
     9     -0.955566  1 O  pz                 6      0.941485  1 O  pz         
    19     -0.188234  2 H  pz         

 Vector   12  Occ=0.000000D+00  E= 1.268280D+00
              MO Center=  2.7D-03, -2.5D-01,  3.0D-16, r^2= 1.5D+00
   Bfn.  Coefficient  Atom+Function         Bfn.  Coefficient  Atom+Function  
  ----- ------------  ---------------      ----- ------------  ---------------
     8      1.456931  1 O  py                 5     -0.763934  1 O  py         
    21      0.643877  3 H  s                  7     -0.632838  1 O  px         
    16     -0.597972  2 H  s                 18      0.365125  2 H  py         
    15     -0.361282  2 H  s                 20      0.275600  3 H  s          
    23      0.258907  3 H  py                22     -0.201560  3 H  px         

 Vector   13  Occ=0.000000D+00  E= 1.448501D+00
              MO Center=  3.3D-01,  2.8D-01, -3.0D-16, r^2= 1.2D+00
   Bfn.  Coefficient  Atom+Function         Bfn.  Coefficient  Atom+Function  
  ----- ------------  ---------------      ----- ------------  ---------------
    19      0.689848  2 H  pz                24     -0.652580  3 H  pz         
     6      0.182028  1 O  pz         

 Vector   14  Occ=0.000000D+00  E= 1.515779D+00
              MO Center= -2.1D-02,  3.7D-02, -2.2D-16, r^2= 1.5D+00
   Bfn.  Coefficient  Atom+Function         Bfn.  Coefficient  Atom+Function  
  ----- ------------  ---------------      ----- ------------  ---------------
     3      0.772507  1 O  s                  2     -0.682294  1 O  s          
    17      0.607783  2 H  px                 7     -0.553901  1 O  px         
    23      0.545348  3 H  py                 8     -0.356687  1 O  py         
    22      0.282191  3 H  px                 1     -0.275586  1 O  s          
    20      0.245589  3 H  s                 21     -0.242513  3 H  s          

 Vector   15  Occ=0.000000D+00  E= 1.686656D+00
              MO Center=  2.4D-01,  1.6D-01,  1.6D-16, r^2= 1.4D+00
   Bfn.  Coefficient  Atom+Function         Bfn.  Coefficient  Atom+Function  
  ----- ------------  ---------------      ----- ------------  ---------------
    24      0.791610  3 H  pz                19      0.714828  2 H  pz         
     9     -0.670239  1 O  pz         


 center of mass
 --------------
 x =  -0.07599894 y =  -0.06642658 z =   0.00000000

 moments of inertia (a.u.)
 ------------------
           4.984032155489           1.274742492735           0.000000000000
           1.274742492735           2.833002082974           0.000000000000
           0.000000000000           0.000000000000           7.817034238463

  Mulliken analysis of the total density
  --------------------------------------

    Atom       Charge   Shell Charges
 -----------   ------   -------------------------------------------------------
    1 O    8     8.42   2.00  0.84  0.90  2.75  1.91  0.01
    2 H    1     0.76   0.57  0.14  0.06
    3 H    1     0.82   0.67  0.07  0.08

       Multipole analysis of the density wrt the origin
       ------------------------------------------------

     L   x y z        total         open         nuclear
     -   - - -        -----         ----         -------
     0   0 0 0      0.000000      0.000000     10.000000

     1   1 0 0      0.632402      0.000000     -0.000000
     1   0 1 0      0.494320      0.000000      0.000000
     1   0 0 1     -0.000000      0.000000      0.000000

     2   2 0 0     -4.082874      0.000000      2.679864
     2   1 1 0     -0.814460      0.000000     -1.379469
     2   1 0 1      0.000000      0.000000      0.000000
     2   0 2 0     -3.103379      0.000000      4.845148
     2   0 1 1     -0.000000      0.000000      0.000000
     2   0 0 2     -5.399358      0.000000      0.000000


 Parallel integral file used       1 records with       0 large values

                   NWChem Extensible Many-Electron Theory Module
                   ---------------------------------------------

              ======================================================
                   This portion of the program was automatically
                  generated by a Tensor Contraction Engine (TCE).
                  The development of this portion of the program
                 and TCE was supported by US Department of Energy,
                Office of Science, Office of Basic Energy Science.
                      TCE is a product of Battelle and PNNL.
              Please cite: S.Hirata, J.Phys.Chem.A 107, 9887 (2003).
              ======================================================

                                        H2O


            General Information
            -------------------
      Number of processors :     1
         Wavefunction type : Restricted Hartree-Fock
          No. of electrons :    10
           Alpha electrons :     5
            Beta electrons :     5
           No. of orbitals :    48
            Alpha orbitals :    24
             Beta orbitals :    24
        Alpha frozen cores :     0
         Beta frozen cores :     0
     Alpha frozen virtuals :     0
      Beta frozen virtuals :     0
         Spin multiplicity : singlet 
    Number of AO functions :    24
       Number of AO shells :    12
        Use of symmetry is : off
      Symmetry adaption is : off
         Schwarz screening : 0.10D-09

          Correlation Information
          -----------------------
          Calculation type : Coupled-cluster singles & doubles                           
   Perturbative correction : none                                                        
            Max iterations :      300
        Residual threshold : 0.10D-06
     T(0) DIIS level shift : 0.00D+00
     L(0) DIIS level shift : 0.00D+00
     T(1) DIIS level shift : 0.00D+00
     L(1) DIIS level shift : 0.00D+00
     T(R) DIIS level shift : 0.00D+00
     T(I) DIIS level shift : 0.00D+00
   CC-T/L Amplitude update :  5-th order DIIS
                I/O scheme : Global Array Library
        L-threshold :  0.10D-06
        EOM-threshold :  0.10D-06
 no EOMCCSD initial starts read in
 TCE RESTART OPTIONS
 READ_INT:   F
 WRITE_INT:  F
 READ_TA:    F
 WRITE_TA:   F
 READ_XA:    F
 WRITE_XA:   F
 READ_IN3:   F
 WRITE_IN3:  F
 SLICE:      F
 D4D5:       F
 quantumc:   F
 qrotation:  F
 pwtce:      F
 qducc:      T
 nacto:                         0
 nrotv:                         0
 nrot:                          0

            Memory Information
            ------------------
          Available GA space size is    1610612160 doubles
          Available MA space size is    1610610956 doubles

 Maximum block size        32 doubles

 tile_dim =     19

 Block   Spin    Irrep     Size     Offset   Alpha
 -------------------------------------------------
   1    alpha     a      5 doubles       0       1
   2    beta      a      5 doubles       5       1
   3    alpha     a     19 doubles      10       3
   4    beta      a     19 doubles      29       3

 Global array virtual files algorithm will be used

 Parallel file system coherency ......... OK

 #quartets = 3.081D+03 #integrals = 2.131D+04 #direct =  0.0% #cached =100.0%


 Integral file          = ./H2O.aoints.0
 Record size in doubles =  65536        No. of integs per rec  =  43688
 Max. records in memory =      4        Max. records in file   = 232245
 No. of bits per label  =      8        No. of bits per value  =     64


 Fock matrix recomputed
 1-e file size   =              576
 1-e file name   = ./H2O.f1
 Cpu & wall time / sec            0.0            0.0
 4-electron integrals stored in orbital form

 v2    file size   =           185666
 4-index algorithm nr.  13 is used
 imaxsize =       30
 imaxsize ichop =        0
 Cpu & wall time / sec            0.1            0.1
 T1-number-of-tasks                    1

 t1 file size   =               95
 t1 file name   = ./H2O.t1
 t1 file handle =       -998
 T2-number-of-boxes                    2

 t2 file size   =            18050
 t2 file name   = ./H2O.t2
 t2 file handle =       -996
CCSD iterations
 ---------------------------------------------------------
 Iter          Residuum       Correlation     Cpu    Wall 
 ---------------------------------------------------------
NEW TASK SCHEDULING
CCSD_T1_NTS --- OK
CCSD_T2_NTS --- OK
    1   0.1127095325414  -0.2103554777499     0.0     0.0
    2   0.0332175544584  -0.2151380286067     0.0     0.0
    3   0.0128624047187  -0.2185552038925     0.0     0.0
    4   0.0055704440825  -0.2194368294785     0.0     0.0
    5   0.0025314343907  -0.2198157565937     0.0     0.0
 MICROCYCLE DIIS UPDATE:                    5                    5
    6   0.0003712025506  -0.2200775600644     0.0     0.0
    7   0.0002195680466  -0.2200892471658     0.0     0.0
    8   0.0001129556453  -0.2200909073824     0.0     0.0
    9   0.0000712632827  -0.2200913069759     0.0     0.0
   10   0.0000426066690  -0.2200919375219     0.0     0.0
 MICROCYCLE DIIS UPDATE:                   10                    5
   11   0.0000036062481  -0.2200930655470     0.0     0.0
   12   0.0000012854951  -0.2200929586443     0.0     0.0
   13   0.0000006006286  -0.2200930040250     0.0     0.0
   14   0.0000003088108  -0.2200930053699     0.0     0.0
   15   0.0000001613716  -0.2200930066243     0.0     0.0
 MICROCYCLE DIIS UPDATE:                   15                    5
   16   0.0000000305813  -0.2200930044674     0.0     0.0
 -----------------------------------------------------------------
 Iterations converged
 CCSD correlation energy / hartree =        -0.220093004467363
 CCSD total energy / hartree       =       -76.216261370196037

 Singles contributions

 Doubles contributions
     6a   (alpha)     6a   (beta ) ---     3a   (alpha)     3a   (beta )       -0.0248174312
     6a   (alpha)     6a   (beta ) ---     4a   (alpha)     4a   (beta )       -0.0363046106
     6a   (alpha)     7a   (beta ) ---     4a   (alpha)     3a   (beta )       -0.0219436462
     6a   (alpha)     8a   (beta ) ---     4a   (alpha)     4a   (beta )       -0.0224189517
     7a   (alpha)     6a   (beta ) ---     3a   (alpha)     4a   (beta )       -0.0219436462
     7a   (alpha)     7a   (beta ) ---     3a   (alpha)     3a   (beta )       -0.0343439763
     7a   (alpha)    11a   (beta ) ---     3a   (alpha)     5a   (beta )        0.0217150281
     8a   (alpha)     6a   (beta ) ---     4a   (alpha)     4a   (beta )       -0.0224189517
     8a   (alpha)     8a   (beta ) ---     3a   (alpha)     3a   (beta )       -0.0279766975
     8a   (alpha)     8a   (beta ) ---     3a   (alpha)     4a   (beta )        0.0231940973
     8a   (alpha)     8a   (beta ) ---     4a   (alpha)     3a   (beta )        0.0231940973
     8a   (alpha)     8a   (beta ) ---     4a   (alpha)     4a   (beta )       -0.0274298377
     9a   (alpha)     9a   (beta ) ---     3a   (alpha)     3a   (beta )       -0.0373251002
    10a   (alpha)    10a   (beta ) ---     4a   (alpha)     4a   (beta )       -0.0316024845
    10a   (alpha)    11a   (beta ) ---     4a   (alpha)     5a   (beta )        0.0261418069
    11a   (alpha)     7a   (beta ) ---     5a   (alpha)     3a   (beta )        0.0217150281
    11a   (alpha)    10a   (beta ) ---     5a   (alpha)     4a   (beta )        0.0261418069
    11a   (alpha)    11a   (beta ) ---     5a   (alpha)     5a   (beta )       -0.0500770944
 Ground state specification:
 exp(T)|Ref>~(1+T)|Ref>
 ------- a(p)+/a(q) strings ----------

 singles norm

 doubles norm

 Reference string
   1.0000000000000000      :(1a)+ (2a)+ (3a)+ (4a)+ (5a)+ (1b)+ (2b)+ (3b)+ (4b)+ (5b)+ |0>

 Singles strings

 Doubles strings
 -------------------------------------
 enrep_tce =    8.3524399120238684     
  EHF(total)         =       -75.99616837
  Shift (HFtot-HFA)  =         0.00000000
 ALL OCCUPIED ORBITALS ARE ACTIVE IN DUCC --> NO SHIFT
 Number of active orbitals                    8
 Number of active alpha electrons                    5
 Number of active beta electrons                    5
  nos                    10
  nvs                    38
 noas                     5
 nobs                     5
 nvas                    19
 nvbs                    19
 nactv                     3
 DUCC MODEL =                     6
 NONHF =  T
 F-T1 correlation    =   -2.5498601297423861E-008
 V-T1-T1 correlation =    2.7235670207114062E-005
 V-T2 correlation    =  -0.22012021463896139     
 Total correlation   =  -0.22009300446735558     
 F-T1(Ext) correlation         =    3.2506232313256310E-008
 V-T1(Ext)-T1(Ext) correlation =    1.1869992997182369E-005
 V-T2(Ext) correlation         =  -0.19539796240294455     
 Total Ext correlation         =  -0.19538605990371505     
1-BODY TIME =    1.847 SECONDS.
  HHHH TIME =    2.100 SECONDS.
  PPPP TIME =    0.029 SECONDS.
  HHHP TIME =    0.617 SECONDS.
  PPPH TIME =    0.084 SECONDS.
  HPHP TIME =    0.375 SECONDS.
  HHPP TIME =    0.320 SECONDS.
 ONE-BODY UNITARY CHECK
 TWO-BODY UNITARY CHECK
                    1                    6                    3                    8   1.0963729923929577E-012
                    1                    6                    8                    3  -1.0963729923929577E-012
                    1                    7                    3                    8   1.0250168769321277E-012
                    1                    7                    8                    3  -1.0198057676102934E-012
                    2                    2                    2                    4  -1.5399610302723794E-012
                    2                    2                    3                    4  -2.8755857083223823E-012
                    2                    2                    4                    2   1.5399593351741635E-012
                    2                    2                    4                    3   2.8755854159901364E-012
                    2                    3                    3                    2  -3.5763614292250168E-012
                    2                    3                    3                    4  -6.1212233198881805E-012
                    2                    3                    4                    2   1.9877519769062602E-012
                    2                    3                    4                    3   6.5224492473703322E-012
                    2                    4                    2                    2   1.5399610302723794E-012
                    2                    4                    3                    2  -3.5991678387636838E-012
                    2                    4                    3                    4   2.8189820269752808E-012
                    2                    4                    4                    2   3.2036595598583517E-012
                    2                    4                    4                    3  -2.4492630146255578E-012
                    2                    5                    3                    5   3.8345706818154746E-012
                    2                    5                    4                    5   6.2875815665108803E-012
                    2                    5                    5                    3  -3.3876642810404256E-012
                    2                    5                    5                    4  -5.7957007248976566E-012
                    2                    6                    4                    9  -1.2805208282617997E-012
                    2                    6                    8                    4  -1.2255264077859485E-012
                    2                    6                    9                    4   1.2523419801180324E-012
                    2                    7                    2                    8  -2.9891471242660117E-012
                    2                    7                    2                    9  -2.4641226559207752E-012
                    2                    7                    3                    7   6.4281566181101368E-012
                    2                    7                    3                    8   3.3518743336458101E-011
                    2                    7                    3                    9   2.2690588557389146E-011
                    2                    7                    4                    7   8.3738840514491208E-012
                    2                    7                    4                    8  -1.1857481576477147E-011
                    2                    7                    4                    9  -2.0482560092460744E-011
                    2                    7                    5                   10  -6.7782723878195839E-012
                    2                    7                    7                    3   2.8010822827884141E-012
                    2                    7                    8                    2  -6.2400813682916834E-012
                    2                    7                    8                    3  -3.3518271491672635E-011
                    2                    7                    8                    4  -2.5566185019726406E-011
                    2                    7                    9                    2  -6.8339062707367670E-012
                    2                    7                    9                    3   1.4733076304090931E-011
                    2                    7                    9                    4   2.0482560092460744E-011
                    2                    7                   10                    5   6.7782723878195839E-012
                    2                    8                    2                    7   2.9891471242660117E-012
                    2                    8                    3                    7   2.5612595377921821E-011
                    2                    8                    3                    8   2.5863114167662404E-011
                    2                    8                    3                    9   1.8912042071272950E-011
                    2                    8                    4                    7  -8.2689931291124452E-012
                    2                    8                    4                    8   9.7295487638815459E-012
                    2                    8                    4                    9   3.7508364469918121E-012
                    2                    8                    5                   10   5.4597298904113245E-012
                    2                    8                    7                    2  -2.8010579966597504E-012
                    2                    8                    8                    2  -2.9186431049765815E-011
                    2                    8                    8                    3  -2.5960972521027470E-011
                    2                    8                    8                    4  -2.5033342586355811E-011
                    2                    8                    9                    2   1.0256715615719614E-011
                    2                    8                    9                    3  -3.2070006372730830E-012
                    2                    8                    9                    4  -3.3172492530653130E-012
                    2                    8                   10                    5  -5.1203451201242700E-012
                    2                    9                    2                    7   2.4641226559207752E-012
                    2                    9                    3                    7   1.5168467176751577E-011
                    2                    9                    3                    8   1.7578390132388932E-011
                    2                    9                    3                    9   1.0020526075571468E-012
                    2                    9                    4                    7  -1.3387985164925453E-011
                    2                    9                    4                    9   2.7203690688981652E-011
                    2                    9                    5                   10   8.8360083139171763E-012
                    2                    9                    8                    2  -1.8767577769640553E-011
                    2                    9                    8                    3  -1.8332717288682687E-011
                    2                    9                    8                    4   1.8169805937606753E-012
                    2                    9                    9                    2   1.6591394924603264E-011
                    2                    9                    9                    3  -3.3892402773183505E-012
                    2                    9                    9                    4  -2.6288096699467189E-011
                    2                    9                   10                    5  -8.8943574727551322E-012
                    2                   10                    3                   10  -1.1837024416205821E-012
                    2                   10                    4                   10   1.6253560997103733E-011
                    2                   10                    5                    7  -5.6531168635132190E-012
                    2                   10                    5                    8   1.5772990552553878E-012
                    2                   10                    5                    9   4.5391260194982408E-012
                    2                   10                    8                    5   5.0182826644151746E-012
                    2                   10                    9                    5  -9.9659794305928529E-012
                    2                   10                   10                    2   6.3977712017049271E-012
                    2                   10                   10                    3  -4.9649572647636475E-012
                    2                   10                   10                    4  -1.0334802458267234E-011
                    3                    2                    2                    3   3.5763614292250168E-012
                    3                    2                    2                    4   3.5991678387636838E-012
                    3                    2                    4                    2  -4.6587855101476450E-012
                    3                    2                    4                    3  -1.1114806991452397E-012
                    3                    3                    3                    4   1.3641360795012567E-011
                    3                    3                    4                    3  -1.3641358138611366E-011
                    3                    4                    2                    2   2.8755857083223823E-012
                    3                    4                    2                    3   6.1212233198881805E-012
                    3                    4                    2                    4  -2.8189820269752808E-012
                    3                    4                    3                    3  -1.3641360795012567E-011
                    3                    4                    4                    3   3.1533442523823396E-011
                    3                    4                    4                    4  -8.8375395957594651E-012
                    3                    5                    2                    5  -3.8345706818154746E-012
                    3                    5                    4                    5  -1.9661713229757183E-011
                    3                    5                    5                    2  -1.3717161087556384E-012
                    3                    5                    5                    3   2.0335511052849142E-011
                    3                    5                    5                    4   1.3281514776863901E-011
                    3                    6                    3                    8   1.4848463170819004E-012
                    3                    6                    4                    9   1.6995979276734907E-012
                    3                    6                    5                   10   1.2459664376629487E-012
                    3                    6                    8                    3  -1.1443740920158429E-012
                    3                    6                    9                    4  -1.5529027716509880E-012
                    3                    6                   10                    5  -1.3132116921665826E-012
                    3                    7                    2                    7  -6.4281566181101368E-012
                    3                    7                    2                    8  -2.5612595377921821E-011
                    3                    7                    2                    9  -1.5168467176751577E-011
                    3                    7                    3                    8   7.7004210299880249E-012
                    3                    7                    4                    7  -2.8216363273658729E-011
                    3                    7                    4                    8  -1.5988755458495874E-011
                    3                    7                    4                    9   1.5241106987584629E-012
                    3                    7                    5                   10   6.3676095646281183E-012
                    3                    7                    7                    2   6.2400709599508275E-012
                    3                    7                    7                    3   2.9186431049765815E-011
                    3                    7                    7                    4   1.8767501441807610E-011
                    3                    7                    8                    3  -7.6025891311559679E-012
                    3                    7                    9                    2   2.3557709602495258E-011
                    3                    7                    9                    3   1.4877194094709001E-011
                    3                    7                    9                    4  -1.9577013621319139E-012
                    3                    7                   10                    5  -6.7069943349151728E-012
                    3                    8                    1                    6  -1.0963729923929577E-012
                    3                    8                    1                    7  -1.0250168769321277E-012
                    3                    8                    2                    7  -3.3518743336458101E-011
                    3                    8                    2                    8  -2.5863114167662404E-011
                    3                    8                    2                    9  -1.7578390132388932E-011
                    3                    8                    3                    6  -1.4848463170819004E-012
                    3                    8                    3                    7  -7.7004210299880249E-012
                    3                    8                    3                    9   1.1467847504942341E-011
                    3                    8                    4                    6   1.6275340450344622E-012
                    3                    8                    4                    7  -4.1632391978296823E-012
                    3                    8                    4                    8  -7.6220332129173229E-011
                    3                    8                    4                    9  -5.6987761731797093E-011
                    3                    8                    5                   10  -2.7656165552114587E-011
                    3                    8                    6                    1   1.0963729923929577E-012
                    3                    8                    6                    2   1.0197988287163895E-012
                    3                    8                    7                    2   3.3519409470272876E-011
                    3                    8                    7                    3   2.5960946066494461E-011
                    3                    8                    7                    4   1.8332748513705255E-011
                    3                    8                    8                    1   1.1443727909732360E-012
                    3                    8                    8                    2   7.6025834933046710E-012
                    3                    8                    8                    4   2.1735217792251404E-012
                    3                    8                    9                    1  -1.7284355370572602E-012
                    3                    8                    9                    2   3.4089155109828795E-012
                    3                    8                    9                    3   6.2578971518623128E-011
                    3                    8                    9                    4   5.6987685403964150E-011
                    3                    8                   10                    5   2.7656162082667635E-011
                    3                    9                    2                    7  -2.2690588557389146E-011
                    3                    9                    2                    8  -1.8912042071272950E-011
                    3                    9                    2                    9  -1.0020526075571468E-012
                    3                    9                    3                    8  -1.1467847504942341E-011
                    3                    9                    4                    8  -3.3744583516348570E-011
                    3                    9                    4                    9  -6.8427156302286463E-011
                    3                    9                    5                   10  -1.9959521882495501E-011
                    3                    9                    7                    1   1.2255255404242105E-012
                    3                    9                    7                    2   2.5566172009300336E-011
                    3                    9                    7                    3   2.5033346923164501E-011
                    3                    9                    7                    4  -1.8169216131624921E-012
                    3                    9                    8                    3  -2.1735252486720924E-012
                    3                    9                    9                    3   6.5278227268095179E-011
                    3                    9                    9                    4   5.9589597145581763E-011
                    3                    9                   10                    5   2.0580705976241953E-011
                    3                   10                    2                   10   1.1837024416205821E-012
                    3                   10                    4                   10  -3.3019340733853042E-011
                    3                   10                    5                    7   7.1826017356002581E-012
                    3                   10                    5                    8  -1.1691699691729340E-011
                    3                   10                    5                    9  -9.2610441884688477E-012
                    3                   10                    7                    5  -5.0182861338621265E-012
                    3                   10                    9                    5   1.3357541635283798E-011
                    3                   10                   10                    1  -1.1342819045134789E-012
                    3                   10                   10                    2  -8.5542952929507088E-012
                    3                   10                   10                    3   3.2027380747479128E-011
                    3                   10                   10                    4   2.2542662181379569E-011
                    4                    2                    2                    2  -1.5399593351741635E-012
                    4                    2                    2                    3  -1.9877519769062602E-012
                    4                    2                    2                    4  -3.2036595598583517E-012
                    4                    2                    3                    2   4.6587855101476450E-012
                    4                    3                    2                    2  -2.8755854159901364E-012
                    4                    3                    2                    3  -6.5224492473703322E-012
                    4                    3                    2                    4   2.4492630146255578E-012
                    4                    3                    3                    2   1.1114806991452397E-012
                    4                    3                    3                    3   1.3641358138611366E-011
                    4                    3                    3                    4  -3.1533442523823396E-011
                    4                    3                    4                    4   8.8375337252388055E-012
                    4                    4                    3                    4   8.8375395957594651E-012
                    4                    4                    4                    3  -8.8375337252388055E-012
                    4                    5                    2                    5  -6.2875815665108803E-012
                    4                    5                    3                    5   1.9661713229757183E-011
                    4                    5                    5                    2   1.4531119363336842E-012
                    4                    5                    5                    3  -8.7422742656162455E-012
                    4                    5                    5                    4  -5.8324456375657974E-012
                    4                    6                    3                    8  -1.6275340450344622E-012
                    4                    6                    8                    3   1.7284342360146532E-012
                    4                    7                    2                    7  -8.3738840514491208E-012
                    4                    7                    2                    8   8.2689931291124452E-012
                    4                    7                    2                    9   1.3387985164925453E-011
                    4                    7                    3                    7   2.8216363273658729E-011
                    4                    7                    3                    8   4.1632391978296823E-012
                    4                    7                    4                    8   1.9008475349302500E-012
                    4                    7                    4                    9  -2.4345178650797550E-012
                    4                    7                    5                   10  -6.0067333051971872E-012
                    4                    7                    7                    2   6.8339283884610857E-012
                    4                    7                    7                    3  -1.0256646226780575E-011
                    4                    7                    7                    4  -1.6591394924603264E-011
                    4                    7                    8                    2  -2.3557693989983974E-011
                    4                    7                    8                    3  -3.4089363276645912E-012
                    4                    7                    9                    3  -2.3344624844323647E-012
                    4                    7                    9                    4   1.5189238755652923E-012
                    4                    7                   10                    5   6.0650789945881911E-012
                    4                    8                    2                    7   1.1857481576477147E-011
                    4                    8                    2                    8  -9.7295487638815459E-012
                    4                    8                    3                    7   1.5988755458495874E-011
                    4                    8                    3                    8   7.6220332129173229E-011
                    4                    8                    3                    9   3.3744583516348570E-011
                    4                    8                    4                    7  -1.9008475349302500E-012
                    4                    8                    4                    9   5.6617696642113913E-012
                    4                    8                    5                   10   1.1018148633051839E-011
                    4                    8                    7                    2  -1.4733068931516158E-011
                    4                    8                    7                    3   3.2070283928486987E-012
                    4                    8                    7                    4   3.3892506856592064E-012
                    4                    8                    8                    2  -1.4877197564155953E-011
                    4                    8                    8                    3  -6.2578964579729224E-011
                    4                    8                    8                    4  -6.5278227268095179E-011
                    4                    8                    9                    2   2.3344035038341815E-012
                    4                    8                    9                    4   3.1757686758115966E-012
                    4                    8                   10                    5  -1.1639332726798290E-011
                    4                    9                    2                    6   1.2805208282617997E-012
                    4                    9                    2                    7   2.0482560092460744E-011
                    4                    9                    2                    8  -3.7508364469918121E-012
                    4                    9                    2                    9  -2.7203690688981652E-011
                    4                    9                    3                    6  -1.6995979276734907E-012
                    4                    9                    3                    7  -1.5241106987584629E-012
                    4                    9                    3                    8   5.6987761731797093E-011
                    4                    9                    3                    9   6.8427156302286463E-011
                    4                    9                    4                    7   2.4345178650797550E-012
                    4                    9                    4                    8  -5.6617696642113913E-012
                    4                    9                    5                   10   1.1405577871048678E-011
                    4                    9                    7                    1  -1.2523419801180324E-012
                    4                    9                    7                    2  -2.0482560092460744E-011
                    4                    9                    7                    3   3.3172457836183611E-012
                    4                    9                    7                    4   2.6288145271724517E-011
                    4                    9                    8                    1   1.5528997358849050E-012
                    4                    9                    8                    2   1.9577048315788659E-012
                    4                    9                    8                    3  -5.6987706220645862E-011
                    4                    9                    8                    4  -5.9589579798347003E-011
                    4                    9                    9                    2  -1.5189863256104275E-012
                    4                    9                    9                    3  -3.1757686758115966E-012
                    4                    9                   10                    5  -1.1405550115473062E-011
                    4                   10                    2                   10  -1.6253560997103733E-011
                    4                   10                    3                   10   3.3019340733853042E-011
                    4                   10                    5                    7  -5.1244460064214792E-012
                    4                   10                    5                    8   5.2023879995588551E-012
                    4                   10                    5                    9   5.3437254621258035E-012
                    4                   10                    7                    5   9.9659690222519970E-012
                    4                   10                    8                    5  -1.3357549441539440E-011
                    4                   10                   10                    2   6.5775648816490673E-012
                    4                   10                   10                    3  -1.3944678745048122E-011
                    4                   10                   10                    4  -1.1176060077389138E-011
                    5                    2                    3                    5   1.3717161087556384E-012
                    5                    2                    4                    5  -1.4531119363336842E-012
                    5                    2                    5                    3  -1.8186190400837354E-012
                    5                    3                    2                    5   3.3876642810404256E-012
                    5                    3                    3                    5  -2.0335511052849142E-011
                    5                    3                    4                    5   8.7422742656162455E-012
                    5                    3                    5                    2   1.8186190400837354E-012
                    5                    3                    5                    4  -2.3620515265942998E-012
                    5                    4                    2                    5   5.7957007248976566E-012
                    5                    4                    3                    5  -1.3281514776863901E-011
                    5                    4                    4                    5   5.8324456375657974E-012
                    5                    4                    5                    3   2.3620515265942998E-012
                    5                    6                    8                    5   1.1342834223965204E-012
                    5                    7                    2                   10   5.6531168635132190E-012
                    5                    7                    3                   10  -7.1826017356002581E-012
                    5                    7                    4                   10   5.1244460064214792E-012
                    5                    7                    5                    8  -2.4056459949073350E-012
                    5                    7                    7                    5  -6.3977712017049271E-012
                    5                    7                    8                    5   8.5543065686533026E-012
                    5                    7                    9                    5  -6.5775371260734516E-012
                    5                    8                    2                   10  -1.5772990552553878E-012
                    5                    8                    3                   10   1.1691699691729340E-011
                    5                    8                    4                   10  -5.2023879995588551E-012
                    5                    8                    5                    7   2.4056459949073350E-012
                    5                    8                    5                    9  -3.4680036620216015E-012
                    5                    8                    7                    5   4.9649459890610537E-012
                    5                    8                    8                    5  -3.2027380747479128E-011
                    5                    8                    9                    5   1.3944689153388978E-011
                    5                    8                   10                    4   1.1058914201056425E-012
                    5                    9                    2                   10  -4.5391260194982408E-012
                    5                    9                    3                   10   9.2610441884688477E-012
                    5                    9                    4                   10  -5.3437254621258035E-012
                    5                    9                    5                    8   3.4680036620216015E-012
                    5                    9                    7                    5   1.0334774702691618E-011
                    5                    9                    8                    5  -2.2542672589720425E-011
                    5                    9                    9                    5   1.1176060077389138E-011
                    5                    9                   10                    3  -1.1058853485734765E-012
                    5                   10                    2                    7   6.7782723878195839E-012
                    5                   10                    2                    8  -5.4597298904113245E-012
                    5                   10                    2                    9  -8.8360083139171763E-012
                    5                   10                    3                    6  -1.2459664376629487E-012
                    5                   10                    3                    7  -6.3676095646281183E-012
                    5                   10                    3                    8   2.7656165552114587E-011
                    5                   10                    3                    9   1.9959521882495501E-011
                    5                   10                    4                    7   6.0067333051971872E-012
                    5                   10                    4                    8  -1.1018148633051839E-011
                    5                   10                    4                    9  -1.1405577871048678E-011
                    5                   10                    7                    2  -6.7782723878195839E-012
                    5                   10                    7                    3   5.1203503242946979E-012
                    5                   10                    7                    4   8.8943817588837959E-012
                    5                   10                    8                    1   1.3132134268900586E-012
                    5                   10                    8                    2   6.7069873960212689E-012
                    5                   10                    8                    3  -2.7656165552114587E-011
                    5                   10                    8                    4  -2.0580709879369774E-011
                    5                   10                    9                    2  -6.0651032807168548E-012
                    5                   10                    9                    3   1.1639336629926111E-011
                    5                   10                    9                    4   1.1405598687730389E-011
                    6                    1                    3                    8  -1.0963729923929577E-012
                    6                    1                    8                    3   1.0963729923929577E-012
                    6                    2                    3                    8  -1.0197988287163895E-012
                    6                    2                    8                    3   1.0250099380382238E-012
                    7                    1                    3                    9  -1.2255255404242105E-012
                    7                    1                    4                    9   1.2523419801180324E-012
                    7                    1                    9                    4  -1.2805242977087516E-012
                    7                    2                    2                    8   2.8010579966597504E-012
                    7                    2                    3                    7  -6.2400709599508275E-012
                    7                    2                    3                    8  -3.3519409470272876E-011
                    7                    2                    3                    9  -2.5566172009300336E-011
                    7                    2                    4                    7  -6.8339283884610857E-012
                    7                    2                    4                    8   1.4733068931516158E-011
                    7                    2                    4                    9   2.0482560092460744E-011
                    7                    2                    5                   10   6.7782723878195839E-012
                    7                    2                    7                    3  -2.9891679409477234E-012
                    7                    2                    7                    4  -2.4640970687495045E-012
                    7                    2                    8                    2   6.4281704958979446E-012
                    7                    2                    8                    3   3.3518937625487411E-011
                    7                    2                    8                    4   2.2690597664687395E-011
                    7                    2                    9                    2   8.3738649694908851E-012
                    7                    2                    9                    3  -1.1857493719541479E-011
                    7                    2                    9                    4  -2.0482560092460744E-011
                    7                    2                   10                    5  -6.7782723878195839E-012
                    7                    3                    2                    7  -2.8010822827884141E-012
                    7                    3                    3                    7  -2.9186431049765815E-011
                    7                    3                    3                    8  -2.5960946066494461E-011
                    7                    3                    3                    9  -2.5033346923164501E-011
                    7                    3                    4                    7   1.0256646226780575E-011
                    7                    3                    4                    8  -3.2070283928486987E-012
                    7                    3                    4                    9  -3.3172457836183611E-012
                    7                    3                    5                   10  -5.1203503242946979E-012
                    7                    3                    7                    2   2.9891679409477234E-012
                    7                    3                    8                    2   2.5612428844468127E-011
                    7                    3                    8                    3   2.5863116336066749E-011
                    7                    3                    8                    4   1.8912049010166854E-011
                    7                    3                    9                    2  -8.2689939964741832E-012
                    7                    3                    9                    3   9.7295600395841397E-012
                    7                    3                    9                    4   3.7508364469918121E-012
                    7                    3                   10                    5   5.4597350945817524E-012
                    7                    4                    3                    7  -1.8767501441807610E-011
                    7                    4                    3                    8  -1.8332748513705255E-011
                    7                    4                    3                    9   1.8169216131624921E-012
                    7                    4                    4                    7   1.6591394924603264E-011
                    7                    4                    4                    8  -3.3892506856592064E-012
                    7                    4                    4                    9  -2.6288145271724517E-011
                    7                    4                    5                   10  -8.8943817588837959E-012
                    7                    4                    7                    2   2.4640970687495045E-012
                    7                    4                    8                    2   1.5168462839942887E-011
                    7                    4                    8                    3   1.7578393601835884E-011
                    7                    4                    8                    4   1.0020664853449546E-012
                    7                    4                    9                    2  -1.3388040676076685E-011
                    7                    4                    9                    4   2.7203739261238979E-011
                    7                    4                   10                    5   8.8360360694927920E-012
                    7                    5                    3                   10   5.0182861338621265E-012
                    7                    5                    4                   10  -9.9659690222519970E-012
                    7                    5                    5                    7   6.3977712017049271E-012
                    7                    5                    5                    8  -4.9649459890610537E-012
                    7                    5                    5                    9  -1.0334774702691618E-011
                    7                    5                    8                    5  -1.1837145846849140E-012
                    7                    5                    9                    5   1.6253533241528118E-011
                    7                    5                   10                    2  -5.6529780856351408E-012
                    7                    5                   10                    3   1.5772921163614839E-012
                    7                    5                   10                    4   4.5391086722634810E-012
                    7                    7                    7                    9  -1.5399617417876031E-012
                    7                    7                    8                    9  -2.8755857604115998E-012
                    7                    7                    9                    7   1.5399597722242425E-012
                    7                    7                    9                    8   2.8755857319168821E-012
                    7                    8                    8                    7  -3.5765834738299418E-012
                    7                    8                    8                    9  -6.1212285240586084E-012
                    7                    8                    9                    7   1.9877537116297361E-012
                    7                    8                    9                    8   6.5224561862642361E-012
                    7                    9                    7                    7   1.5399617417876031E-012
                    7                    9                    8                    7  -3.5991695734871598E-012
                    7                    9                    8                    9   2.8189776901665908E-012
                    7                    9                    9                    7   3.2036595598583517E-012
                    7                    9                    9                    8  -2.4492647493490338E-012
                    7                   10                    8                   10   3.8345654776450466E-012
                    7                   10                    9                   10   6.2876006484691160E-012
                    7                   10                   10                    8  -3.3876590768699977E-012
                    7                   10                   10                    9  -5.7956573568107572E-012
                    8                    1                    3                    8  -1.1443727909732360E-012
                    8                    1                    4                    9  -1.5528997358849050E-012
                    8                    1                    5                   10  -1.3132134268900586E-012
                    8                    1                    8                    3   1.4848452328797279E-012
                    8                    1                    9                    4   1.6995948919074078E-012
                    8                    1                   10                    5   1.2459681723864247E-012
                    8                    2                    2                    7   6.2400813682916834E-012
                    8                    2                    2                    8   2.9186431049765815E-011
                    8                    2                    2                    9   1.8767577769640553E-011
                    8                    2                    3                    8  -7.6025834933046710E-012
                    8                    2                    4                    7   2.3557693989983974E-011
                    8                    2                    4                    8   1.4877197564155953E-011
                    8                    2                    4                    9  -1.9577048315788659E-012
                    8                    2                    5                   10  -6.7069873960212689E-012
                    8                    2                    7                    2  -6.4281704958979446E-012
                    8                    2                    7                    3  -2.5612428844468127E-011
                    8                    2                    7                    4  -1.5168462839942887E-011
                    8                    2                    8                    3   7.7004288362436668E-012
                    8                    2                    9                    2  -2.8216432662597768E-011
                    8                    2                    9                    3  -1.5988776275177585E-011
                    8                    2                    9                    4   1.5241106987584629E-012
                    8                    2                   10                    5   6.3676026257342144E-012
                    8                    3                    1                    6   1.0963729923929577E-012
                    8                    3                    1                    7   1.0198057676102934E-012
                    8                    3                    2                    7   3.3518271491672635E-011
                    8                    3                    2                    8   2.5960972521027470E-011
                    8                    3                    2                    9   1.8332717288682687E-011
                    8                    3                    3                    6   1.1443740920158429E-012
                    8                    3                    3                    7   7.6025891311559679E-012
                    8                    3                    3                    9   2.1735252486720924E-012
                    8                    3                    4                    6  -1.7284342360146532E-012
                    8                    3                    4                    7   3.4089363276645912E-012
                    8                    3                    4                    8   6.2578964579729224E-011
                    8                    3                    4                    9   5.6987706220645862E-011
                    8                    3                    5                   10   2.7656165552114587E-011
                    8                    3                    6                    1  -1.0963729923929577E-012
                    8                    3                    6                    2  -1.0250099380382238E-012
                    8                    3                    7                    2  -3.3518937625487411E-011
                    8                    3                    7                    3  -2.5863116336066749E-011
                    8                    3                    7                    4  -1.7578393601835884E-011
                    8                    3                    8                    1  -1.4848452328797279E-012
                    8                    3                    8                    2  -7.7004288362436668E-012
                    8                    3                    8                    4   1.1467856178559721E-011
                    8                    3                    9                    1   1.6275357797579382E-012
                    8                    3                    9                    2  -4.1632218505949226E-012
                    8                    3                    9                    3  -7.6220342537514085E-011
                    8                    3                    9                    4  -5.6987629892812919E-011
                    8                    3                   10                    5  -2.7656162082667635E-011
                    8                    4                    2                    6   1.2255264077859485E-012
                    8                    4                    2                    7   2.5566185019726406E-011
                    8                    4                    2                    8   2.5033342586355811E-011
                    8                    4                    2                    9  -1.8169805937606753E-012
                    8                    4                    3                    8  -2.1735217792251404E-012
                    8                    4                    4                    8   6.5278227268095179E-011
                    8                    4                    4                    9   5.9589579798347003E-011
                    8                    4                    5                   10   2.0580709879369774E-011
                    8                    4                    7                    2  -2.2690597664687395E-011
                    8                    4                    7                    3  -1.8912049010166854E-011
                    8                    4                    7                    4  -1.0020664853449546E-012
                    8                    4                    8                    3  -1.1467856178559721E-011
                    8                    4                    9                    3  -3.3744528005197338E-011
                    8                    4                    9                    4  -6.8427149363392559E-011
                    8                    4                   10                    5  -1.9959525785623322E-011
                    8                    5                    2                   10  -5.0182826644151746E-012
                    8                    5                    4                   10   1.3357549441539440E-011
                    8                    5                    5                    6  -1.1342834223965204E-012
[...]
    7    7    8    3        0.0051133634
    7    7    8    4       -0.0090519723
    7    7    8    6        0.0347965320
    7    7    8    7       -0.0195582666
    7    7    8    8        0.2897885222
    7    8    8    1       -0.0004672287
    7    8    8    2       -0.0044353943
    7    8    8    3        0.0069333249
    7    8    8    4       -0.0058748447
    7    8    8    6       -0.0238843035
    7    8    8    7        0.0190035938
    7    8    8    8       -0.0584446387
    8    1    1    1        0.0666381312
    8    1    1    2       -0.0109103809
    8    1    1    3        0.0077514872
    8    1    1    4       -0.0059908395
    8    1    1    6        0.0078504608
    8    1    1    7       -0.0033553364
    8    1    1    8        0.0070115231
    8    2    1    1       -0.0702657582
    8    2    1    2        0.0013682523
    8    2    1    3        0.0042656048
    8    2    1    4       -0.0069474676
    8    2    1    6        0.0027426246
    8    2    1    7       -0.0031682902
    8    2    1    8        0.0037525558
    8    3    1    1        0.0899361934
    8    3    1    2       -0.0017412750
    8    3    1    3       -0.0005950830
    8    3    1    4       -0.0021205607
    8    3    1    6        0.0016090337
    8    3    1    7        0.0004990980
    8    3    1    8        0.0010666358
    8    4    1    1       -0.0952430477
    8    4    1    2        0.0008598706
    8    4    1    3       -0.0046325237
    8    4    1    4       -0.0004771480
    8    4    1    6       -0.0011080508
    8    4    1    7        0.0026806626
    8    4    1    8       -0.0018905872
    8    5    1    5       -0.0052803079
    8    6    1    1        0.1550225736
    8    6    1    2       -0.0021464914
    8    6    1    3       -0.0009562740
    8    6    1    4        0.0040369346
    8    6    1    6       -0.0008753405
    8    6    1    7        0.0010241355
    8    6    1    8       -0.0011917665
    8    7    1    1       -0.1063641448
    8    7    1    2        0.0015394460
    8    7    1    3        0.0006637220
    8    7    1    4        0.0008101227
    8    7    1    6       -0.0007480546
    8    7    1    7       -0.0004458709
    8    7    1    8       -0.0004672287
    8    8    1    1        0.4876853322
    8    8    1    2       -0.0021221062
    8    8    1    3       -0.0031383723
    8    8    1    4        0.0050321584
    8    8    1    6       -0.0016324225
    8    8    1    7        0.0022102016
    8    8    1    8       -0.0021179602
    8    1    2    1       -0.0104631207
    8    1    2    2        0.0010787382
    8    1    2    3        0.0070895251
    8    1    2    4       -0.0090316078
    8    1    2    6        0.0034542851
    8    1    2    7       -0.0038798644
    8    1    2    8        0.0037525558
    8    2    2    1        0.0017586393
    8    2    2    2       -0.0286567638
    8    2    2    3        0.0083221181
    8    2    2    4       -0.0134332813
    8    2    2    6        0.0229096087
    8    2    2    7       -0.0089161133
    8    2    2    8        0.0292878516
    8    3    2    1       -0.0021709934
    8    3    2    2        0.0274413107
    8    3    2    3        0.0219934161
    8    3    2    4       -0.0391101959
    8    3    2    6       -0.0087517209
    8    3    2    7       -0.0011658497
    8    3    2    8       -0.0201440117
    8    4    2    1        0.0011375953
    8    4    2    2       -0.0417805422
    8    4    2    3       -0.0424500912
    8    4    2    4        0.0185269331
    8    4    2    6        0.0128760775
    8    4    2    7        0.0110352945
    8    4    2    8        0.0183680051
    8    5    2    5       -0.0226870461
    8    6    2    1       -0.0021467489
    8    6    2    2        0.1011475828
    8    6    2    3       -0.0104399450
    8    6    2    4        0.0114895635
    8    6    2    6       -0.0163736382
    8    6    2    7       -0.0042342788
    8    6    2    8        0.0062845160
    8    7    2    1        0.0015552612
    8    7    2    2       -0.0668507074
    8    7    2    3        0.0085961184
    8    7    2    4        0.0061156875
    8    7    2    6        0.0071287128
    8    7    2    7        0.0035180246
    8    7    2    8       -0.0044353943
    8    8    2    1       -0.0021221062
    8    8    2    2        0.4363913170
    8    8    2    3       -0.0682106825
    8    8    2    4        0.0478147182
    8    8    2    6       -0.0196958734
    8    8    2    7       -0.0098790512
    8    8    2    8        0.0377791813
    8    1    3    1        0.0071771328
    8    1    3    2        0.0070226127
    8    1    3    3       -0.0009650524
    8    1    3    4       -0.0000830251
    8    1    3    6       -0.0012010107
    8    1    3    7       -0.0005334680
    8    1    3    8        0.0010666358
    8    2    3    1        0.0041474653
    8    2    3    2        0.0084498048
    8    2    3    3       -0.0112907266
    8    2    3    4       -0.0194874802
    8    2    3    6       -0.0103412075
    8    2    3    7        0.0103996169
    8    2    3    8       -0.0201440117
    8    3    3    1       -0.0006466411
    8    3    3    2        0.0213935590
    8    3    3    3        0.0060718052
    8    3    3    4        0.0251903477
    8    3    3    6        0.0270436075
    8    3    3    7       -0.0229823649
    8    3    3    8        0.0614319707
    8    4    3    1       -0.0049206491
    8    4    3    2       -0.0434840169
    8    4    3    3       -0.0059149197
    8    4    3    4       -0.0189253952
    8    4    3    6       -0.0201686212
    8    4    3    7        0.0162679971
    8    4    3    8       -0.0454098123
    8    5    3    5        0.0082908631
    8    6    3    1       -0.0009053679
    8    6    3    2       -0.0102189774
    8    6    3    3        0.0945773860
    8    6    3    4       -0.0115554187
    8    6    3    6        0.0025557641
    8    6    3    7       -0.0152855713
    8    6    3    8       -0.0196336603
    8    7    3    1        0.0006607263
    8    7    3    2        0.0085552440
    8    7    3    3       -0.0632319719
    8    7    3    4        0.0052228566
    8    7    3    6       -0.0020566963
    8    7    3    7        0.0156270845
    8    7    3    8        0.0069333249
    8    8    3    1       -0.0031383723
    8    8    3    2       -0.0682106825
    8    8    3    3        0.4565266950
    8    8    3    4       -0.0563696148
    8    8    3    6       -0.0341762044
    8    8    3    7       -0.0223638507
    8    8    3    8       -0.0998637384
    8    1    4    1       -0.0053900688
    8    1    4    2       -0.0089664904
    8    1    4    3       -0.0000931214
    8    1    4    4        0.0049120858
    8    1    4    6        0.0004604770
    8    1    4    7        0.0020978502
    8    1    4    8       -0.0018905872
    8    2    4    1       -0.0070595701
    8    2    4    2       -0.0136925350
    8    2    4    3       -0.0194136330
    8    2    4    4       -0.0096490847
    8    2    4    6        0.0136734440
    8    2    4    7        0.0025150812
    8    2    4    8        0.0183680051
    8    3    4    1       -0.0023555394
    8    3    4    2       -0.0399967066
    8    3    4    3        0.0259484413
    8    3    4    4        0.0164171072
    8    3    4    6       -0.0237986612
    8    3    4    7        0.0123079194
    8    3    4    8       -0.0454098123
    8    4    4    1       -0.0006513888
    8    4    4    2        0.0180420334
    8    4    4    3       -0.0184992357
    8    4    4    4       -0.0304639718
    8    4    4    6        0.0287430780
    8    4    4    7       -0.0179368539
    8    4    4    8        0.0532816559
    8    5    4    5       -0.0013056818
    8    6    4    1        0.0040331362
    8    6    4    2        0.0113754060
    8    6    4    3       -0.0114825770
    8    6    4    4        0.0919041794
    8    6    4    6       -0.0102221328
    8    6    4    7       -0.0005190427
    8    6    4    8        0.0139224501
    8    7    4    1        0.0008757956
    8    7    4    2        0.0062808332
    8    7    4    3        0.0050351952
    8    7    4    4       -0.0672180068
    8    7    4    6        0.0047557091
    8    7    4    7       -0.0018834994
    8    7    4    8       -0.0058748447
    8    8    4    1        0.0050321584
    8    8    4    2        0.0478147182
    8    8    4    3       -0.0563696148
    8    8    4    4        0.4358191892
    8    8    4    6        0.0159081248
    8    8    4    7       -0.0197925213
    8    8    4    8        0.0832459110
    8    1    5    5        0.0008940112
    8    2    5    5       -0.0352912779
    8    3    5    5        0.0372963169
    8    4    5    5       -0.0393235929
    8    5    5    1       -0.0057193750
    8    5    5    2       -0.0241112454
    8    5    5    3        0.0089110667
    8    5    5    4       -0.0016431293
    8    5    5    6        0.0084229442
    8    5    5    7       -0.0038003517
    8    5    5    8        0.0110209765
    8    6    5    5        0.0900443611
    8    7    5    5       -0.0632225371
    8    8    5    5        0.4068907168
    8    1    6    1        0.0080795291
    8    1    6    2        0.0038491738
    8    1    6    3       -0.0013934481
    8    1    6    4        0.0007011765
    8    1    6    6       -0.0024456553
    8    1    6    7        0.0011917612
    8    1    6    8       -0.0011917665
    8    2    6    1        0.0031710212
    8    2    6    2        0.0248901266
    8    2    6    3       -0.0106137829
    8    2    6    4        0.0136411456
    8    2    6    6       -0.0031224493
    8    2    6    7       -0.0052277773
    8    2    6    8        0.0062845160
    8    3    6    1        0.0014327541
    8    3    6    2       -0.0085736335
    8    3    6    3        0.0267339598
    8    3    6    4       -0.0224941784
    8    3    6    6       -0.0211034456
    8    3    6    7        0.0184675572
    8    3    6    8       -0.0196336603
    8    4    6    1       -0.0009122861
    8    4    6    2        0.0130738105
    8    4    6    3       -0.0194519658
    8    4    6    4        0.0286810855
    8    4    6    6        0.0108938200
    8    4    6    7       -0.0216704686
    8    4    6    8        0.0139224501
    8    5    6    5        0.0099368610
    8    6    6    1       -0.0008617305
    8    6    6    2       -0.0163448713
    8    6    6    3        0.0029457038
    8    6    6    4       -0.0103121404
    8    6    6    6        0.0427962384
    8    6    6    7       -0.0035294945
    8    6    6    8        0.0461013061
    8    7    6    1       -0.0007631173
    8    7    6    2        0.0072108712
    8    7    6    3       -0.0021005090
    8    7    6    4        0.0051297213
    8    7    6    6       -0.0256554247
    8    7    6    7        0.0044767950
    8    7    6    8       -0.0238843035
    8    8    6    1       -0.0016324225
    8    8    6    2       -0.0196958734
    8    8    6    3       -0.0341762044
    8    8    6    4        0.0159081248
    8    8    6    6        0.3733156029
    8    8    6    7       -0.0722194037
    8    8    6    8        0.0991643171
    8    1    7    1       -0.0034816541
    8    1    7    2       -0.0040337334
    8    1    7    3       -0.0003336118
    8    1    7    4        0.0022062313
    8    1    7    6        0.0011865686
    8    1    7    7        0.0010803023
    8    1    7    8       -0.0004672287
    8    2    7    1       -0.0033517215
    8    2    7    2       -0.0101481890
    8    2    7    3        0.0095329971
    8    2    7    4        0.0042702510
    8    2    7    6       -0.0053946186
    8    2    7    7        0.0000677969
    8    2    7    8       -0.0044353943
    8    3    7    1        0.0006143145
    8    3    7    2       -0.0006436628
    8    3    7    3       -0.0222513456
    8    3    7    4        0.0121299596
    8    3    7    6        0.0183679032
    8    3    7    7        0.0051133634
    8    3    7    8        0.0069333249
    8    4    7    1        0.0028500753
    8    4    7    2        0.0124496502
    8    4    7    3        0.0150560545
    8    4    7    4       -0.0187556111
    8    4    7    6       -0.0217209329
    8    4    7    7       -0.0090519723
    8    4    7    8       -0.0058748447
    8    5    7    5       -0.0042039321
    8    6    7    1        0.0010060667
    8    6    7    2       -0.0043162352
    8    6    7    3       -0.0153751444
    8    6    7    4       -0.0001474422
    8    6    7    6       -0.0035465001
    8    6    7    7        0.0347965320
    8    6    7    8       -0.0238843035
    8    7    7    1       -0.0004408390
    8    7    7    2        0.0034873621
    8    7    7    3        0.0155812064
    8    7    7    4       -0.0019891044
    8    7    7    6        0.0044830044
    8    7    7    7       -0.0195582666
    8    7    7    8        0.0190035938
    8    8    7    1        0.0022102016
    8    8    7    2       -0.0098790512
    8    8    7    3       -0.0223638507
    8    8    7    4       -0.0197925213
    8    8    7    6       -0.0722194037
    8    8    7    7        0.2897885222
    8    8    7    8       -0.0584446387
    8    1    8    1        0.0072028467
    8    1    8    2        0.0040706867
    8    1    8    3        0.0009058466
    8    1    8    4       -0.0018092750
    8    1    8    6       -0.0011836072
    8    1    8    7       -0.0004781429
    8    1    8    8       -0.0021179602
    8    2    8    1        0.0040706867
    8    2    8    2        0.0315803197
    8    2    8    3       -0.0195179800
    8    2    8    4        0.0175456407
    8    2    8    6        0.0060514200
    8    2    8    7       -0.0042032756
    8    2    8    8        0.0377791813
    8    3    8    1        0.0009058466
    8    3    8    2       -0.0195179800
    8    3    8    3        0.0609838702
    8    3    8    4       -0.0442910829
    8    3    8    6       -0.0189591804
    8    3    8    7        0.0066108168
    8    3    8    8       -0.0998637384
    8    4    8    1       -0.0018092750
    8    4    8    2        0.0175456407
    8    4    8    3       -0.0442910829
    8    4    8    4        0.0537697791
    8    4    8    6        0.0134758821
    8    4    8    7       -0.0056233854
    8    4    8    8        0.0832459110
    8    5    8    5        0.0116397590
    8    6    8    1       -0.0011836072
    8    6    8    2        0.0060514200
    8    6    8    3       -0.0189591804
    8    6    8    4        0.0134758821
    8    6    8    6        0.0460460430
    8    6    8    7       -0.0238197319
    8    6    8    8        0.0991643171
    8    7    8    1       -0.0004781429
    8    7    8    2       -0.0042032756
    8    7    8    3        0.0066108168
    8    7    8    4       -0.0056233854
    8    7    8    6       -0.0238197319
    8    7    8    7        0.0189464483
    8    7    8    8       -0.0584446387
    8    8    8    1       -0.0021179602
    8    8    8    2        0.0377791813
    8    8    8    3       -0.0998637384
    8    8    8    4        0.0832459110
    8    8    8    6        0.0991643171
    8    8    8    7       -0.0584446387
    8    8    8    8        0.5915350841
 end_two_electron_integrals

 Parallel integral file used       1 records with       0 large values


 Task  times  cpu:        5.8s     wall:        5.9s


                                NWChem Input Module
                                -------------------


 Summary of allocated global arrays
-----------------------------------
  No active global arrays


MA_summarize_allocated_blocks: starting scan ...
MA_summarize_allocated_blocks: scan completed: 0 heap blocks, 0 stack blocks
MA usage statistics:

	allocation statistics:
					      heap	     stack
					      ----	     -----
	current number of blocks	         0	         0
	maximum number of blocks	        17	        42
	current total bytes		         0	         0
	maximum total bytes		   2110096	 141357496
	maximum total K-bytes		      2111	    141358
	maximum total M-bytes		         3	       142


                                     CITATION
                                     --------
                Please cite the following reference when publishing
                           results obtained with NWChem:

          E. Apra, E. J. Bylaska, W. A. de Jong, N. Govind, K. Kowalski,
       T. P. Straatsma, M. Valiev, H. J. J. van Dam, Y. Alexeev, J. Anchell,
       V. Anisimov, F. W. Aquino, R. Atta-Fynn, J. Autschbach, N. P. Bauman,
     J. C. Becca, D. E. Bernholdt, K. Bhaskaran-Nair, S. Bogatko, P. Borowski,
         J. Boschen, J. Brabec, A. Bruner, E. Cauet, Y. Chen, G. N. Chuev,
      C. J. Cramer, J. Daily, M. J. O. Deegan, T. H. Dunning Jr., M. Dupuis,
   K. G. Dyall, G. I. Fann, S. A. Fischer, A. Fonari, H. Fruchtl, L. Gagliardi,
      J. Garza, N. Gawande, S. Ghosh, K. Glaesemann, A. W. Gotz, J. Hammond,
       V. Helms, E. D. Hermes, K. Hirao, S. Hirata, M. Jacquelin, L. Jensen,
   B. G. Johnson, H. Jonsson, R. A. Kendall, M. Klemm, R. Kobayashi, V. Konkov,
      S. Krishnamoorthy, M. Krishnan, Z. Lin, R. D. Lins, R. J. Littlefield,
      A. J. Logsdail, K. Lopata, W. Ma, A. V. Marenich, J. Martin del Campo,
   D. Mejia-Rodriguez, J. E. Moore, J. M. Mullin, T. Nakajima, D. R. Nascimento,
    J. A. Nichols, P. J. Nichols, J. Nieplocha, A. Otero-de-la-Roza, B. Palmer,
    A. Panyala, T. Pirojsirikul, B. Peng, R. Peverati, J. Pittner, L. Pollack,
   R. M. Richard, P. Sadayappan, G. C. Schatz, W. A. Shelton, D. W. Silverstein,
   D. M. A. Smith, T. A. Soares, D. Song, M. Swart, H. L. Taylor, G. S. Thomas,
            V. Tipparaju, D. G. Truhlar, K. Tsemekhman, T. Van Voorhis,
      A. Vazquez-Mayagoitia, P. Verma, O. Villa, A. Vishnu, K. D. Vogiatzis,
        D. Wang, J. H. Weare, M. J. Williamson, T. L. Windus, K. Wolinski,
        A. T. Wong, Q. Wu, C. Yang, Q. Yu, M. Zacharias, Z. Zhang, Y. Zhao,
                                and R. J. Harrison
                        "NWChem: Past, present, and future
                         J. Chem. Phys. 152, 184102 (2020)
                               doi:10.1063/5.0004997

                                      AUTHORS
                                      -------
  E. Apra, E. J. Bylaska, N. Govind, K. Kowalski, M. Valiev, D. Mejia-Rodriguez,
       A. Kunitsa, N. P. Bauman, A. Panyala, W. A. de Jong, T. P. Straatsma,
        H. J. J. van Dam, D. Wang, T. L. Windus, J. Hammond, J. Autschbach,
    K. Bhaskaran-Nair, J. Brabec, K. Lopata, S. A. Fischer, S. Krishnamoorthy,
     M. Jacquelin, W. Ma, M. Klemm, O. Villa, Y. Chen, V. Anisimov, F. Aquino,
    S. Hirata, M. T. Hackler, Eric Hermes, L. Jensen, J. E. Moore, J. C. Becca,
      V. Konjkov, T. Risthaus, M. Malagoli, A. Marenich, A. Otero-de-la-Roza,
        J. Mullin, P. Nichols, R. Peverati, J. Pittner, Y. Zhao, P.-D. Fan,
        A. Fonari, M. J. Williamson, R. J. Harrison, J. R. Rehr, M. Dupuis,
     D. Silverstein, D. M. A. Smith, J. Nieplocha, V. Tipparaju, M. Krishnan,
     B. E. Van Kuiken, A. Vazquez-Mayagoitia, M. Swart, Q. Wu, T. Van Voorhis,
     A. A. Auer, M. Nooijen, L. D. Crosby, E. Brown, G. Cisneros, G. I. Fann,
   H. Fruchtl, J. Garza, K. Hirao, R. A. Kendall, J. A. Nichols, K. Tsemekhman,
    K. Wolinski, J. Anchell, D. E. Bernholdt, P. Borowski, T. Clark, D. Clerc,
   H. Dachsel, M. J. O. Deegan, K. Dyall, D. Elwood, E. Glendening, M. Gutowski,
   A. C. Hess, J. Jaffe, B. G. Johnson, J. Ju, R. Kobayashi, R. Kutteh, Z. Lin,
   R. Littlefield, X. Long, B. Meng, T. Nakajima, S. Niu, L. Pollack, M. Rosing,
   K. Glaesemann, G. Sandrone, M. Stave, H. Taylor, G. Thomas, J. H. van Lenthe,
                               A. T. Wong, Z. Zhang.

 Total times  cpu:        5.8s     wall:        5.9s
