 argument  1 = input.nw
  NWChem w/ OpenMP: maximum threads =    1



============================== echo of input deck ==============================
 echo
 start H2O
 title "H2O"

 memory total 24 gb

 geometry units bohr
 symmetry c1
        O  0.00000000  0.00000000  0.00000000
        H  0.00000000  2.21214  0.00000000
        H  1.72558000 -0.64860000  0.00000000
 end

 basis spherical
   * library cc-pVDZ
 end

 scf
   vectors input h2o.mos
   vectors output h2o.mos
 end

 tce
   2eorb
   2emet 13
   ccsd
   maxiter 300
 end

# set tce:print_integrals T
# set tce:qorb 8
# set tce:qela 5
# set tce:qelb 5

 set tce:qducc T
 set tce:nactv 3
 set tce:nonhf T
 set tce:ducc_model 6

 set tce:printtol 0.02

 task tce
================================================================================


                                         
                                         


             Northwest Computational Chemistry Package (NWChem) 7.0.1
             --------------------------------------------------------


                    Environmental Molecular Sciences Laboratory
                       Pacific Northwest National Laboratory
                                Richland, WA 99352

                              Copyright (c) 1994-2020
                       Pacific Northwest National Laboratory
                            Battelle Memorial Institute

             NWChem is an open-source computational chemistry package
                        distributed under the terms of the
                      Educational Community License (ECL) 2.0
             A copy of the license is included with this distribution
                              in the LICENSE.TXT file

                                  ACKNOWLEDGMENT
                                  --------------

            This software and its documentation were developed at the
            EMSL at Pacific Northwest National Laboratory, a multiprogram
            national laboratory, operated for the U.S. Department of Energy
            by Battelle under Contract Number DE-AC05-76RL01830. Support
            for this work was provided by the Department of Energy Office
            of Biological and Environmental Research, Office of Basic
            Energy Sciences, and the Office of Advanced Scientific Computing.


           Job information
           ---------------

    hostname        = WE46210
    program         = /home/baum612/code/nwchem/bin/LINUX64/nwchem
    date            = Fri Sep  6 10:00:38 2024

    compiled        = Wed_Sep_04_02:00:17_2024
    source          = /home/baum612/code/nwchem
    nwchem branch   = 7.0.0
    nwchem revision = nwchem_on_git-4191-g39d87d64de
    ga revision     = 5.8.1
    use scalapack   = F
    input           = input.nw
    prefix          = H2O.
    data base       = ./H2O.db
    status          = startup
    nproc           =        1
    time left       =     -1s



           Memory information
           ------------------

    heap     =  805306366 doubles =   6144.0 Mbytes
    stack    =  805306363 doubles =   6144.0 Mbytes
    global   = 1610612736 doubles =  12288.0 Mbytes (distinct from heap & stack)
    total    = 3221225465 doubles =  24576.0 Mbytes
    verify   = yes
    hardfail = no 


           Directory information
           ---------------------

  0 permanent = .
  0 scratch   = .




                                NWChem Input Module
                                -------------------


                                        H2O
                                        ---
 Turning off AUTOSYM since
 SYMMETRY directive was detected!


          ------
          auto-z
          ------
  no constraints, skipping    0.0000000000000000     
  no constraints, skipping    0.0000000000000000     


                             Geometry "geometry" -> ""
                             -------------------------

 Output coordinates in a.u. (scale by  1.000000000 to convert to a.u.)

  No.       Tag          Charge          X              Y              Z
 ---- ---------------- ---------- -------------- -------------- --------------
    1 O                    8.0000    -0.17255800    -0.15635400     0.00000000
    2 H                    1.0000    -0.17255800     2.05578600     0.00000000
    3 H                    1.0000     1.55302200    -0.80495400     0.00000000

      Atomic Mass 
      ----------- 

      O                 15.994910
      H                  1.007825


 Effective nuclear repulsion energy (a.u.)       8.2554191553

            Nuclear Dipole moment (a.u.) 
            ----------------------------
        X                 Y               Z
 ---------------- ---------------- ----------------
    -0.0000000000     0.0000000000     0.0000000000



                                Z-matrix (autoz)
                                -------- 

 Units are Angstrom for bonds and degrees for angles

      Type          Name      I     J     K     L     M      Value
      ----------- --------  ----- ----- ----- ----- ----- ----------
    1 Stretch                  1     2                       1.17061
    2 Stretch                  1     3                       0.97551
    3 Bend                     2     1     3               110.59992


            XYZ format geometry
            -------------------
     3
 geometry
 O                    -0.09131377    -0.08273898     0.00000000
 H                    -0.09131377     1.08787518     0.00000000
 H                     0.82182391    -0.42596334     0.00000000

 ==============================================================================
                                internuclear distances
 ------------------------------------------------------------------------------
       center one      |      center two      | atomic units |       a.u.
 ------------------------------------------------------------------------------
    3 H                |   1 O                |     1.84345  |     1.84345
 ------------------------------------------------------------------------------
                         number of included internuclear distances:          1
 ==============================================================================





 Summary of "ao basis" -> "" (spherical)
 ------------------------------------------------------------------------------
       Tag                 Description            Shells   Functions and Types
 ---------------- ------------------------------  ------  ---------------------
 *                          cc-pVDZ                   on all atoms 


                      Basis "ao basis" -> "ao basis" (spherical)
                      -----
  O (Oxygen)
  ----------
            Exponent  Coefficients 
       -------------- ---------------------------------------------------------
  1 S  1.17200000E+04  0.000710
  1 S  1.75900000E+03  0.005470
  1 S  4.00800000E+02  0.027837
  1 S  1.13700000E+02  0.104800
  1 S  3.70300000E+01  0.283062
  1 S  1.32700000E+01  0.448719
  1 S  5.02500000E+00  0.270952
  1 S  1.01300000E+00  0.015458

  2 S  1.17200000E+04 -0.000160
  2 S  1.75900000E+03 -0.001263
  2 S  4.00800000E+02 -0.006267
  2 S  1.13700000E+02 -0.025716
  2 S  3.70300000E+01 -0.070924
  2 S  1.32700000E+01 -0.165411
  2 S  5.02500000E+00 -0.116955
  2 S  1.01300000E+00  0.557368

  3 S  3.02300000E-01  1.000000

  4 P  1.77000000E+01  0.043018
  4 P  3.85400000E+00  0.228913
  4 P  1.04600000E+00  0.508728

  5 P  2.75300000E-01  1.000000

  6 D  1.18500000E+00  1.000000

  H (Hydrogen)
  ------------
            Exponent  Coefficients 
       -------------- ---------------------------------------------------------
  1 S  1.30100000E+01  0.019685
  1 S  1.96200000E+00  0.137977
  1 S  4.44600000E-01  0.478148

  2 S  1.22000000E-01  1.000000

  3 P  7.27000000E-01  1.000000



 Summary of "ao basis" -> "ao basis" (spherical)
 ------------------------------------------------------------------------------
       Tag                 Description            Shells   Functions and Types
 ---------------- ------------------------------  ------  ---------------------
 O                          cc-pVDZ                  6       14   3s2p1d
 H                          cc-pVDZ                  3        5   2s1p


                                 NWChem SCF Module
                                 -----------------


                                        H2O



  ao basis        = "ao basis"
  functions       =    24
  atoms           =     3
  closed shells   =     5
  open shells     =     0
  charge          =   0.00
  wavefunction    = RHF 
  input vectors   = ./h2o.mos
  output vectors  = ./h2o.mos
  use symmetry    = F
  symmetry adapt  = F


 Summary of "ao basis" -> "ao basis" (spherical)
 ------------------------------------------------------------------------------
       Tag                 Description            Shells   Functions and Types
 ---------------- ------------------------------  ------  ---------------------
 O                          cc-pVDZ                  6       14   3s2p1d
 H                          cc-pVDZ                  3        5   2s1p



 Forming initial guess at       0.0s


 Loading old vectors from job with title :

H2O


 Starting SCF solution at       0.0s



 ----------------------------------------------
         Quadratically convergent ROHF

 Convergence threshold     :          1.000E-04
 Maximum no. of iterations :           30
 Final Fock-matrix accuracy:          1.000E-07
 ----------------------------------------------


 #quartets = 3.081D+03 #integrals = 2.131D+04 #direct =  0.0% #cached =100.0%


 Integral file          = ./H2O.aoints.0
 Record size in doubles =  65536        No. of integs per rec  =  43688
 Max. records in memory =      4        Max. records in file   = 232244
 No. of bits per label  =      8        No. of bits per value  =     64


              iter       energy          gnorm     gmax       time
             ----- ------------------- --------- --------- --------
                 1      -75.9890402006  8.08D-03  2.87D-03      0.0
                 2      -75.9890453617  4.90D-05  1.87D-05      0.0


       Final RHF  results 
       ------------------ 

         Total SCF energy =    -75.989045361692
      One-electron energy =   -121.437095301184
      Two-electron energy =     37.192630784191
 Nuclear repulsion energy =      8.255419155302

        Time for solution =      0.0s


             Final eigenvalues
             -----------------

              1      
    1  -20.5648
    2   -1.2895
    3   -0.6555
    4   -0.5307
    5   -0.4853
    6    0.1551
    7    0.2395
    8    0.6843
    9    0.8103
   10    1.1569
   11    1.1877
   12    1.2742
   13    1.4494
   14    1.5192
   15    1.6840

                       ROHF Final Molecular Orbital Analysis
                       -------------------------------------

 Vector    2  Occ=2.000000D+00  E=-1.289542D+00
              MO Center=  5.1D-02, -5.3D-02, -9.0D-18, r^2= 5.2D-01
   Bfn.  Coefficient  Atom+Function         Bfn.  Coefficient  Atom+Function  
  ----- ------------  ---------------      ----- ------------  ---------------
     2      0.451810  1 O  s                  3      0.440130  1 O  s          
    20      0.192730  3 H  s          

 Vector    3  Occ=2.000000D+00  E=-6.554928D-01
              MO Center=  5.9D-02,  7.3D-02,  2.4D-18, r^2= 8.7D-01
   Bfn.  Coefficient  Atom+Function         Bfn.  Coefficient  Atom+Function  
  ----- ------------  ---------------      ----- ------------  ---------------
     4      0.355073  1 O  px                20      0.350346  3 H  s          
     5     -0.322937  1 O  py                15     -0.256031  2 H  s          
     7      0.179764  1 O  px                 8     -0.167111  1 O  py         

 Vector    4  Occ=2.000000D+00  E=-5.307334D-01
              MO Center= -1.1D-01,  6.5D-03, -2.7D-17, r^2= 8.0D-01
   Bfn.  Coefficient  Atom+Function         Bfn.  Coefficient  Atom+Function  
  ----- ------------  ---------------      ----- ------------  ---------------
     4      0.394974  1 O  px                 5      0.362144  1 O  py         
     7      0.289487  1 O  px                 3     -0.276019  1 O  s          
     8      0.263084  1 O  py                15      0.242809  2 H  s          

 Vector    5  Occ=2.000000D+00  E=-4.853345D-01
              MO Center= -7.3D-02, -7.6D-02,  4.7D-17, r^2= 6.0D-01
   Bfn.  Coefficient  Atom+Function         Bfn.  Coefficient  Atom+Function  
  ----- ------------  ---------------      ----- ------------  ---------------
     6      0.635085  1 O  pz                 9      0.499200  1 O  pz         

 Vector    6  Occ=0.000000D+00  E= 1.551247D-01
              MO Center=  1.6D-01,  7.4D-01,  9.8D-18, r^2= 2.7D+00
   Bfn.  Coefficient  Atom+Function         Bfn.  Coefficient  Atom+Function  
  ----- ------------  ---------------      ----- ------------  ---------------
    16      0.950846  2 H  s                  3     -0.813340  1 O  s          
    21      0.490397  3 H  s                  8     -0.352830  1 O  py         
     5     -0.225928  1 O  py                 7     -0.181383  1 O  px         

 Vector    7  Occ=0.000000D+00  E= 2.394894D-01
              MO Center=  8.0D-01, -1.4D-01, -1.1D-16, r^2= 3.2D+00
   Bfn.  Coefficient  Atom+Function         Bfn.  Coefficient  Atom+Function  
  ----- ------------  ---------------      ----- ------------  ---------------
    21      1.476221  3 H  s                 16     -0.904878  2 H  s          
     8      0.477230  1 O  py                 7     -0.420109  1 O  px         
     3     -0.393141  1 O  s                  5      0.223860  1 O  py         
     4     -0.193594  1 O  px         

 Vector    8  Occ=0.000000D+00  E= 6.843100D-01
              MO Center= -1.0D-01,  1.0D+00,  4.9D-17, r^2= 1.5D+00
   Bfn.  Coefficient  Atom+Function         Bfn.  Coefficient  Atom+Function  
  ----- ------------  ---------------      ----- ------------  ---------------
    15      1.278095  2 H  s                 16     -1.145457  2 H  s          
     5     -0.277200  1 O  py                 3      0.254028  1 O  s          
    21      0.167986  3 H  s                  2     -0.157346  1 O  s          

 Vector    9  Occ=0.000000D+00  E= 8.102923D-01
              MO Center=  6.7D-01, -3.5D-01,  1.8D-17, r^2= 1.3D+00
   Bfn.  Coefficient  Atom+Function         Bfn.  Coefficient  Atom+Function  
  ----- ------------  ---------------      ----- ------------  ---------------
    20      1.281467  3 H  s                 21     -0.864323  3 H  s          
     4     -0.278919  1 O  px                 7     -0.259325  1 O  px         
    22      0.243467  3 H  px                 8      0.186346  1 O  py         
     2     -0.165836  1 O  s          

 Vector   10  Occ=0.000000D+00  E= 1.156858D+00
              MO Center= -1.8D-01,  1.0D-01,  4.7D-16, r^2= 1.3D+00
   Bfn.  Coefficient  Atom+Function         Bfn.  Coefficient  Atom+Function  
  ----- ------------  ---------------      ----- ------------  ---------------
     7      1.196274  1 O  px                 4     -0.735029  1 O  px         
     3      0.548285  1 O  s                 20     -0.457893  3 H  s          
    21     -0.392949  3 H  s                 22      0.343153  3 H  px         
    17      0.255325  2 H  px                 5     -0.237543  1 O  py         
    15     -0.187275  2 H  s          

 Vector   11  Occ=0.000000D+00  E= 1.187669D+00
              MO Center= -9.6D-02,  4.9D-02, -1.8D-16, r^2= 1.1D+00
   Bfn.  Coefficient  Atom+Function         Bfn.  Coefficient  Atom+Function  
  ----- ------------  ---------------      ----- ------------  ---------------
     9     -0.948599  1 O  pz                 6      0.934861  1 O  pz         
    19     -0.208746  2 H  pz         

 Vector   12  Occ=0.000000D+00  E= 1.274235D+00
              MO Center=  1.6D-02, -2.8D-01, -1.6D-16, r^2= 1.5D+00
   Bfn.  Coefficient  Atom+Function         Bfn.  Coefficient  Atom+Function  
  ----- ------------  ---------------      ----- ------------  ---------------
     8      1.434844  1 O  py                 5     -0.783178  1 O  py         
    21      0.622633  3 H  s                  7     -0.589955  1 O  px         
    16     -0.565863  2 H  s                 18      0.356883  2 H  py         
    15     -0.341669  2 H  s                 20      0.267844  3 H  s          
    23      0.268864  3 H  py                22     -0.188230  3 H  px         

 Vector   13  Occ=0.000000D+00  E= 1.449379D+00
              MO Center=  3.3D-01,  2.8D-01, -2.5D-16, r^2= 1.2D+00
   Bfn.  Coefficient  Atom+Function         Bfn.  Coefficient  Atom+Function  
  ----- ------------  ---------------      ----- ------------  ---------------
    19      0.688447  2 H  pz                24     -0.651325  3 H  pz         
     6      0.203892  1 O  pz         

 Vector   14  Occ=0.000000D+00  E= 1.519160D+00
              MO Center= -2.5D-02,  4.7D-02,  3.9D-16, r^2= 1.5D+00
   Bfn.  Coefficient  Atom+Function         Bfn.  Coefficient  Atom+Function  
  ----- ------------  ---------------      ----- ------------  ---------------
     3      0.768796  1 O  s                  2     -0.682542  1 O  s          
    17      0.608336  2 H  px                 7     -0.550907  1 O  px         
    23      0.545835  3 H  py                 8     -0.354280  1 O  py         
     1     -0.275973  1 O  s                 22      0.277270  3 H  px         
    20      0.242783  3 H  s                 21     -0.242347  3 H  s          

 Vector   15  Occ=0.000000D+00  E= 1.684023D+00
              MO Center=  2.4D-01,  1.7D-01, -2.4D-16, r^2= 1.4D+00
   Bfn.  Coefficient  Atom+Function         Bfn.  Coefficient  Atom+Function  
  ----- ------------  ---------------      ----- ------------  ---------------
    24      0.791931  3 H  pz                19      0.708772  2 H  pz         
     9     -0.670762  1 O  pz         


 center of mass
 --------------
 x =  -0.07599894 y =  -0.06886229 z =   0.00000000

 moments of inertia (a.u.)
 ------------------
           5.217962085557           1.280124332384           0.000000000000
           1.280124332384           2.833002082974           0.000000000000
           0.000000000000           0.000000000000           8.050964168531

  Mulliken analysis of the total density
  --------------------------------------

    Atom       Charge   Shell Charges
 -----------   ------   -------------------------------------------------------
    1 O    8     8.43   2.00  0.84  0.91  2.74  1.92  0.01
    2 H    1     0.76   0.55  0.15  0.05
    3 H    1     0.82   0.67  0.07  0.08

       Multipole analysis of the density wrt the origin
       ------------------------------------------------

     L   x y z        total         open         nuclear
     -   - - -        -----         ----         -------
     0   0 0 0     -0.000000      0.000000     10.000000

     1   1 0 0      0.631720      0.000000     -0.000000
     1   0 1 0      0.500748      0.000000      0.000000
     1   0 0 1     -0.000000      0.000000      0.000000

     2   2 0 0     -4.103123      0.000000      2.679864
     2   1 1 0     -0.819330      0.000000     -1.389013
     2   1 0 1      0.000000      0.000000      0.000000
     2   0 2 0     -3.054730      0.000000      5.069780
     2   0 1 1     -0.000000      0.000000      0.000000
     2   0 0 2     -5.421901      0.000000      0.000000


 Parallel integral file used       1 records with       0 large values

                   NWChem Extensible Many-Electron Theory Module
                   ---------------------------------------------

              ======================================================
                   This portion of the program was automatically
                  generated by a Tensor Contraction Engine (TCE).
                  The development of this portion of the program
                 and TCE was supported by US Department of Energy,
                Office of Science, Office of Basic Energy Science.
                      TCE is a product of Battelle and PNNL.
              Please cite: S.Hirata, J.Phys.Chem.A 107, 9887 (2003).
              ======================================================

                                        H2O


            General Information
            -------------------
      Number of processors :     1
         Wavefunction type : Restricted Hartree-Fock
          No. of electrons :    10
           Alpha electrons :     5
            Beta electrons :     5
           No. of orbitals :    48
            Alpha orbitals :    24
             Beta orbitals :    24
        Alpha frozen cores :     0
         Beta frozen cores :     0
     Alpha frozen virtuals :     0
      Beta frozen virtuals :     0
         Spin multiplicity : singlet 
    Number of AO functions :    24
       Number of AO shells :    12
        Use of symmetry is : off
      Symmetry adaption is : off
         Schwarz screening : 0.10D-09

          Correlation Information
          -----------------------
          Calculation type : Coupled-cluster singles & doubles                           
   Perturbative correction : none                                                        
            Max iterations :      300
        Residual threshold : 0.10D-06
     T(0) DIIS level shift : 0.00D+00
     L(0) DIIS level shift : 0.00D+00
     T(1) DIIS level shift : 0.00D+00
     L(1) DIIS level shift : 0.00D+00
     T(R) DIIS level shift : 0.00D+00
     T(I) DIIS level shift : 0.00D+00
   CC-T/L Amplitude update :  5-th order DIIS
                I/O scheme : Global Array Library
        L-threshold :  0.10D-06
        EOM-threshold :  0.10D-06
 no EOMCCSD initial starts read in
 TCE RESTART OPTIONS
 READ_INT:   F
 WRITE_INT:  F
 READ_TA:    F
 WRITE_TA:   F
 READ_XA:    F
 WRITE_XA:   F
 READ_IN3:   F
 WRITE_IN3:  F
 SLICE:      F
 D4D5:       F
 quantumc:   F
 qrotation:  F
 pwtce:      F
 qducc:      T
 nacto:                         0
 nrotv:                         0
 nrot:                          0

            Memory Information
            ------------------
          Available GA space size is    1610612160 doubles
          Available MA space size is    1610610956 doubles

 Maximum block size        32 doubles

 tile_dim =     19

 Block   Spin    Irrep     Size     Offset   Alpha
 -------------------------------------------------
   1    alpha     a      5 doubles       0       1
   2    beta      a      5 doubles       5       1
   3    alpha     a     19 doubles      10       3
   4    beta      a     19 doubles      29       3

 Global array virtual files algorithm will be used

 Parallel file system coherency ......... OK

 #quartets = 3.081D+03 #integrals = 2.131D+04 #direct =  0.0% #cached =100.0%


 Integral file          = ./H2O.aoints.0
 Record size in doubles =  65536        No. of integs per rec  =  43688
 Max. records in memory =      4        Max. records in file   = 232244
 No. of bits per label  =      8        No. of bits per value  =     64


 Fock matrix recomputed
 1-e file size   =              576
 1-e file name   = ./H2O.f1
 Cpu & wall time / sec            0.0            0.0
 4-electron integrals stored in orbital form

 v2    file size   =           185666
 4-index algorithm nr.  13 is used
 imaxsize =       30
 imaxsize ichop =        0
 Cpu & wall time / sec            0.1            0.1
 T1-number-of-tasks                    1

 t1 file size   =               95
 t1 file name   = ./H2O.t1
 t1 file handle =       -998
 T2-number-of-boxes                    2

 t2 file size   =            18050
 t2 file name   = ./H2O.t2
 t2 file handle =       -996
CCSD iterations
 ---------------------------------------------------------
 Iter          Residuum       Correlation     Cpu    Wall 
 ---------------------------------------------------------
NEW TASK SCHEDULING
CCSD_T1_NTS --- OK
CCSD_T2_NTS --- OK
    1   0.1136859123101  -0.2113630649154     0.0     0.0
    2   0.0338719406326  -0.2160484480267     0.0     0.0
    3   0.0132976167597  -0.2195964222234     0.0     0.0
    4   0.0058478596670  -0.2205201502308     0.0     0.0
    5   0.0027005915226  -0.2209258122189     0.0     0.0
 MICROCYCLE DIIS UPDATE:                    5                    5
    6   0.0004120883041  -0.2212147188015     0.0     0.0
    7   0.0002492218981  -0.2212270873737     0.0     0.0
    8   0.0001304051678  -0.2212291245325     0.0     0.0
    9   0.0000833851760  -0.2212296314345     0.0     0.0
   10   0.0000504925879  -0.2212304088260     0.0     0.0
 MICROCYCLE DIIS UPDATE:                   10                    5
   11   0.0000041596694  -0.2212318056361     0.0     0.0
   12   0.0000014691495  -0.2212317101318     0.0     0.0
   13   0.0000006872288  -0.2212317676507     0.0     0.0
   14   0.0000003514632  -0.2212317718925     0.0     0.0
   15   0.0000001837752  -0.2212317743544     0.0     0.0
 MICROCYCLE DIIS UPDATE:                   15                    5
   16   0.0000000354240  -0.2212317727916     0.0     0.0
 -----------------------------------------------------------------
 Iterations converged
 CCSD correlation energy / hartree =        -0.221231772791649
 CCSD total energy / hartree       =       -76.210277134483874

 Singles contributions

 Doubles contributions
     6a   (alpha)     6a   (beta ) ---     3a   (alpha)     3a   (beta )       -0.0264982790
     6a   (alpha)     6a   (beta ) ---     3a   (alpha)     4a   (beta )        0.0201445529
     6a   (alpha)     6a   (beta ) ---     4a   (alpha)     3a   (beta )        0.0201445529
     6a   (alpha)     6a   (beta ) ---     4a   (alpha)     4a   (beta )       -0.0424139022
     6a   (alpha)     7a   (beta ) ---     4a   (alpha)     3a   (beta )       -0.0229807344
     6a   (alpha)     8a   (beta ) ---     4a   (alpha)     4a   (beta )       -0.0255667818
     7a   (alpha)     6a   (beta ) ---     3a   (alpha)     4a   (beta )       -0.0229807344
     7a   (alpha)     7a   (beta ) ---     3a   (alpha)     3a   (beta )       -0.0343813272
     7a   (alpha)     9a   (beta ) ---     3a   (alpha)     3a   (beta )       -0.0206442840
     7a   (alpha)    11a   (beta ) ---     3a   (alpha)     5a   (beta )        0.0213074628
     8a   (alpha)     6a   (beta ) ---     4a   (alpha)     4a   (beta )       -0.0255667818
     8a   (alpha)     8a   (beta ) ---     3a   (alpha)     3a   (beta )       -0.0260474487
     8a   (alpha)     8a   (beta ) ---     3a   (alpha)     4a   (beta )        0.0232700424
     8a   (alpha)     8a   (beta ) ---     4a   (alpha)     3a   (beta )        0.0232700424
     8a   (alpha)     8a   (beta ) ---     4a   (alpha)     4a   (beta )       -0.0287154276
     9a   (alpha)     7a   (beta ) ---     3a   (alpha)     3a   (beta )       -0.0206442840
     9a   (alpha)     9a   (beta ) ---     3a   (alpha)     3a   (beta )       -0.0381513262
    10a   (alpha)    10a   (beta ) ---     4a   (alpha)     4a   (beta )       -0.0299235423
    10a   (alpha)    11a   (beta ) ---     4a   (alpha)     5a   (beta )        0.0250913738
    11a   (alpha)     7a   (beta ) ---     5a   (alpha)     3a   (beta )        0.0213074628
    11a   (alpha)    10a   (beta ) ---     5a   (alpha)     4a   (beta )        0.0250913738
    11a   (alpha)    11a   (beta ) ---     5a   (alpha)     5a   (beta )       -0.0496513382
 Ground state specification:
 exp(T)|Ref>~(1+T)|Ref>
 ------- a(p)+/a(q) strings ----------

 singles norm

 doubles norm

 Reference string
   1.0000000000000000      :(1a)+ (2a)+ (3a)+ (4a)+ (5a)+ (1b)+ (2b)+ (3b)+ (4b)+ (5b)+ |0>

 Singles strings

 Doubles strings
 -------------------------------------
 enrep_tce =    8.2554191553015137     
  EHF(total)         =       -75.98904536
  Shift (HFtot-HFA)  =         0.00000000
 ALL OCCUPIED ORBITALS ARE ACTIVE IN DUCC --> NO SHIFT
 Number of active orbitals                    8
 Number of active alpha electrons                    5
 Number of active beta electrons                    5
  nos                    10
  nvs                    38
 noas                     5
 nobs                     5
 nvas                    19
 nvbs                    19
 nactv                     3
 DUCC MODEL =                     6
 NONHF =  T
 F-T1 correlation    =   -3.5159029629716795E-008
 V-T1-T1 correlation =    3.0099606379391639E-005
 V-T2 correlation    =  -0.22126183723898846     
 Total correlation   =  -0.22123177279163869     
 F-T1(Ext) correlation         =    3.0224789870889673E-008
 V-T1(Ext)-T1(Ext) correlation =    1.3469232143919274E-005
 V-T2(Ext) correlation         =  -0.19509958538297756     
 Total Ext correlation         =  -0.19508608592604376     
1-BODY TIME =    1.762 SECONDS.
  HHHH TIME =    2.110 SECONDS.
  PPPP TIME =    0.036 SECONDS.
  HHHP TIME =    0.615 SECONDS.
  PPPH TIME =    0.081 SECONDS.
  HPHP TIME =    0.356 SECONDS.
  HHPP TIME =    0.343 SECONDS.
 ONE-BODY UNITARY CHECK
 TWO-BODY UNITARY CHECK
                    1                    6                    3                    8   1.2178938413320850E-012
                    1                    6                    3                    9   1.0201826362854494E-012
                    1                    6                    4                    9  -1.0068508526916986E-012
                    1                    6                    8                    3  -1.2178903718851330E-012
                    1                    6                    8                    4  -1.0138417882998851E-012
                    1                    6                    9                    4   1.0068508526916986E-012
                    1                    7                    3                    8   1.1289441603778982E-012
                    1                    7                    8                    3  -1.1322227877474944E-012
                    2                    2                    2                    4  -1.7214695958192904E-012
                    2                    2                    3                    4  -3.0583050273254827E-012
                    2                    2                    4                    2   1.7214716419597233E-012
                    2                    2                    4                    3   3.0583055262940630E-012
                    2                    3                    3                    2  -3.9409586705119182E-012
                    2                    3                    3                    4  -6.5025849288469217E-012
                    2                    3                    4                    2   2.5849565543634156E-012
                    2                    3                    4                    3   7.0979541688664938E-012
                    2                    4                    2                    2   1.7214695958192904E-012
                    2                    4                    3                    2  -3.6595240726633449E-012
                    2                    4                    3                    4   3.8729288873162737E-012
                    2                    4                    4                    2   3.7188030432844243E-012
                    2                    4                    4                    3  -3.0802313824573879E-012
                    2                    5                    3                    5   4.6860137298265769E-012
                    2                    5                    4                    5   6.4463087645627581E-012
                    2                    5                    5                    3  -4.0263417599994966E-012
                    2                    5                    5                    4  -6.1922880018050463E-012
                    2                    6                    4                    9  -1.4396470127131522E-012
                    2                    6                    8                    4  -1.2506678635434976E-012
                    2                    6                    9                    4   1.4147953641963085E-012
                    2                    7                    2                    8  -3.3243095776125386E-012
                    2                    7                    2                    9  -2.6724282509160702E-012
                    2                    7                    3                    7   8.4953433177048510E-012
                    2                    7                    3                    8   3.7569364286227369E-011
                    2                    7                    3                    9   2.3375977369066714E-011
                    2                    7                    4                    7   8.1996276088402986E-012
                    2                    7                    4                    8  -1.6765753715897169E-011
                    2                    7                    4                    9  -2.3563040407736935E-011
                    2                    7                    5                   10  -6.4250965658985137E-012
                    2                    7                    7                    3   2.9834572312648078E-012
                    2                    7                    8                    2  -8.1544875019101681E-012
                    2                    7                    8                    3  -3.7569419797378600E-011
                    2                    7                    8                    4  -2.6434278377340803E-011
                    2                    7                    9                    2  -6.4781418077086705E-012
                    2                    7                    9                    3   1.9824052989447782E-011
                    2                    7                    9                    4   2.3563026529949127E-011
                    2                    7                   10                    5   6.4251381992619372E-012
                    2                    8                    2                    7   3.3243095776125386E-012
                    2                    8                    3                    7   2.8870128510050108E-011
                    2                    8                    3                    8   3.1172146894992148E-011
                    2                    8                    3                    9   2.0211294443628347E-011
                    2                    8                    4                    7  -1.2046684830235854E-011
                    2                    8                    4                    8   9.1117009770602664E-012
                    2                    8                    4                    9   3.4510033719570288E-012
                    2                    8                    5                   10   6.6202997944797559E-012
                    2                    8                    7                    2  -2.9834745784995675E-012
                    2                    8                    8                    2  -3.2810754113654639E-011
                    2                    8                    8                    3  -3.1356481647315526E-011
                    2                    8                    8                    4  -2.6713908862774360E-011
                    2                    8                    9                    2   1.4631677813792265E-011
                    2                    8                    9                    3  -2.0137173178946810E-012
                    2                    8                    9                    4  -2.9707798721023693E-012
                    2                    8                   10                    5  -6.2665306971299017E-012
                    2                    9                    2                    7   2.6724282509160702E-012
                    2                    9                    3                    7   1.5473415951317016E-011
                    2                    9                    3                    8   1.8494275555447359E-011
                    2                    9                    3                    9   1.8805512702613214E-012
                    2                    9                    4                    7  -1.5142859188799207E-011
                    2                    9                    4                    9   2.9199483109199065E-011
                    2                    9                    5                   10   9.2968202580756554E-012
                    2                    9                    8                    2  -1.9133132578286194E-011
                    2                    9                    8                    3  -1.9394874595235478E-011
                    2                    9                    8                    4   1.9921599092587172E-012
                    2                    9                    9                    2   1.8862023054566635E-011
                    2                    9                    9                    3  -3.7900863003592633E-012
                    2                    9                    9                    4  -2.8386126782464771E-011
                    2                    9                   10                    5  -9.3755107843929153E-012
                    2                   10                    4                   10   1.7230106230670117E-011
                    2                   10                    5                    7  -5.3995696802644488E-012
                    2                   10                    5                    8   1.9428382513897446E-012
                    2                   10                    5                    9   4.8304138466903623E-012
                    2                   10                    8                    5   4.6891223542955274E-012
                    2                   10                    9                    5  -1.0783898080068965E-011
                    2                   10                   10                    2   6.0043081617777716E-012
                    2                   10                   10                    3  -5.9692233794761407E-012
                    2                   10                   10                    4  -1.1022675827643269E-011
                    3                    2                    2                    3   3.9409586705119182E-012
                    3                    2                    2                    4   3.6595240726633449E-012
                    3                    2                    4                    2  -5.2947819739745938E-012
                    3                    2                    4                    3  -1.4411683652015839E-012
                    3                    3                    3                    4   1.3431244638809712E-011
                    3                    3                    4                    3  -1.3431243029658870E-011
                    3                    4                    2                    2   3.0583050273254827E-012
                    3                    4                    2                    3   6.5025849288469217E-012
                    3                    4                    2                    4  -3.8729288873162737E-012
                    3                    4                    3                    3  -1.3431244638809712E-011
                    3                    4                    4                    3   3.4781399982364292E-011
                    3                    4                    4                    4  -1.1838486098706066E-011
                    3                    5                    2                    5  -4.6860137298265769E-012
                    3                    5                    4                    5  -2.2372992347641230E-011
                    3                    5                    5                    2  -1.2846182451120569E-012
                    3                    5                    5                    3   2.1722401655210888E-011
                    3                    5                    5                    4   1.3486663175132918E-011
                    3                    6                    3                    8   1.4758047214846748E-012
                    3                    6                    4                    9   1.8128502171643746E-012
                    3                    6                    5                   10   1.2743126866221477E-012
                    3                    6                    8                    3  -1.1254348147859972E-012
                    3                    6                    9                    4  -1.6328969426604445E-012
                    3                    6                   10                    5  -1.3431525856810733E-012
                    3                    7                    2                    7  -8.4953433177048510E-012
                    3                    7                    2                    8  -2.8870128510050108E-011
                    3                    7                    2                    9  -1.5473415951317016E-011
                    3                    7                    3                    8   7.9814453657345297E-012
                    3                    7                    4                    7  -3.2829662599542786E-011
                    3                    7                    4                    8  -1.9269565110224818E-011
                    3                    7                    4                    9   1.1222515972075797E-012
                    3                    7                    5                   10   6.3065733191258744E-012
                    3                    7                    7                    2   8.1545048491449279E-012
                    3                    7                    7                    3   3.2810754113654639E-011
                    3                    7                    7                    4   1.9133070128241059E-011
                    3                    7                    8                    3  -7.7971162512624481E-012
                    3                    7                    8                    4   1.0719966581085316E-012
                    3                    7                    9                    2   2.7534838992204769E-011
                    3                    7                    9                    3   1.7828361616872845E-011
                    3                    7                    9                    4  -1.6024785665091912E-012
                    3                    7                   10                    5  -6.6603406817522526E-012
                    3                    8                    1                    6  -1.2178938413320850E-012
                    3                    8                    1                    7  -1.1289441603778982E-012
                    3                    8                    2                    7  -3.7569364286227369E-011
                    3                    8                    2                    8  -3.1172146894992148E-011
                    3                    8                    2                    9  -1.8494275555447359E-011
                    3                    8                    3                    6  -1.4758047214846748E-012
                    3                    8                    3                    7  -7.9814453657345297E-012
                    3                    8                    3                    9   1.1358173082620659E-011
                    3                    8                    4                    6   1.8488452956100243E-012
                    3                    8                    4                    7  -5.5269296084237141E-012
                    3                    8                    4                    8  -9.1245287367480721E-011
                    3                    8                    4                    9  -6.3790958626519512E-011
                    3                    8                    5                   10  -2.9953636793145222E-011
                    3                    8                    6                    1   1.2178903718851330E-012
                    3                    8                    6                    2   1.1322331960883503E-012
                    3                    8                    7                    2   3.7569281019500522E-011
                    3                    8                    7                    3   3.1356510270252880E-011
                    3                    8                    7                    4   1.9394895411917190E-011
                    3                    8                    8                    1   1.1254345979455627E-012
                    3                    8                    8                    2   7.7970863272824875E-012
                    3                    8                    8                    4   2.0730223093679001E-012
                    3                    8                    9                    1  -1.9395409757427817E-012
                    3                    8                    9                    2   4.6263097519538832E-012
                    3                    8                    9                    3   7.7814029525447026E-011
                    3                    8                    9                    4   6.3790958626519512E-011
                    3                    8                   10                    5   2.9953640262592174E-011
                    3                    9                    1                    6  -1.0201826362854494E-012
                    3                    9                    2                    7  -2.3375977369066714E-011
                    3                    9                    2                    8  -2.0211294443628347E-011
                    3                    9                    2                    9  -1.8805512702613214E-012
                    3                    9                    3                    8  -1.1358173082620659E-011
                    3                    9                    4                    8  -3.8123691703528806E-011
                    3                    9                    4                    9  -7.3065220540513565E-011
                    3                    9                    5                   10  -2.0177261771114896E-011
                    3                    9                    6                    1   1.0138500282363960E-012
                    3                    9                    7                    1   1.2506686224850183E-012
                    3                    9                    7                    2   2.6434272305808637E-011
                    3                    9                    7                    3   2.6713906260689146E-011
                    3                    9                    7                    4  -1.9921911342812848E-012
                    3                    9                    8                    2  -1.0719741067033439E-012
                    3                    9                    8                    3  -2.0730587385608956E-012
                    3                    9                    9                    2   1.0826166352284616E-012
                    3                    9                    9                    3   7.2904682291152767E-011
                    3                    9                    9                    4   6.1226728548247067E-011
                    3                    9                   10                    5   2.0810117518088589E-011
                    3                   10                    4                   10  -3.7300273980633847E-011
                    3                   10                    5                    7   7.3212338969064206E-012
                    3                   10                    5                    8  -1.2635240076441789E-011
                    3                   10                    5                    9  -9.2547245908458642E-012
                    3                   10                    7                    5  -4.6891240890190033E-012
                    3                   10                    9                    5   1.4927437758105455E-011
                    3                   10                   10                    1  -1.1779850098841971E-012
                    3                   10                   10                    2  -8.6058122433785300E-012
                    3                   10                   10                    3   3.4357405809259944E-011
                    3                   10                   10                    4   2.2741229038780730E-011
                    4                    2                    2                    2  -1.7214716419597233E-012
                    4                    2                    2                    3  -2.5849565543634156E-012
                    4                    2                    2                    4  -3.7188030432844243E-012
                    4                    2                    3                    2   5.2947819739745938E-012
                    4                    3                    2                    2  -3.0583055262940630E-012
                    4                    3                    2                    3  -7.0979541688664938E-012
                    4                    3                    2                    4   3.0802313824573879E-012
                    4                    3                    3                    2   1.4411683652015839E-012
                    4                    3                    3                    3   1.3431243029658870E-011
                    4                    3                    3                    4  -3.4781399982364292E-011
                    4                    3                    4                    4   1.1838487821028451E-011
                    4                    4                    3                    4   1.1838486098706066E-011
                    4                    4                    4                    3  -1.1838487821028451E-011
                    4                    5                    2                    5  -6.4463087645627581E-012
                    4                    5                    3                    5   2.2372992347641230E-011
                    4                    5                    5                    2   1.3968375067729966E-012
                    4                    5                    5                    3  -1.1371573821472580E-011
                    4                    5                    5                    4  -7.6085804323611228E-012
                    4                    6                    3                    8  -1.8488452956100243E-012
                    4                    6                    8                    3   1.9395379399766988E-012
                    4                    7                    2                    7  -8.1996276088402986E-012
                    4                    7                    2                    8   1.2046684830235854E-011
                    4                    7                    2                    9   1.5142859188799207E-011
                    4                    7                    3                    7   3.2829662599542786E-011
                    4                    7                    3                    8   5.5269296084237141E-012
                    4                    7                    4                    8   2.9921412569855477E-012
                    4                    7                    4                    9  -2.8523919337608561E-012
                    4                    7                    5                   10  -6.4851041203795035E-012
                    4                    7                    7                    2   6.4781600223051683E-012
                    4                    7                    7                    3  -1.4631611894300178E-011
                    4                    7                    7                    4  -1.8862023054566635E-011
                    4                    7                    8                    2  -2.7534849400545625E-011
                    4                    7                    8                    3  -4.6263236297416910E-012
                    4                    7                    8                    4  -1.0825992879937019E-012
                    4                    7                    9                    3  -3.3528804732618767E-012
                    4                    7                    9                    4   2.0390356070265625E-012
                    4                    7                   10                    5   6.5637946466967634E-012
                    4                    8                    2                    7   1.6765753715897169E-011
                    4                    8                    2                    8  -9.1117009770602664E-012
                    4                    8                    3                    7   1.9269565110224818E-011
                    4                    8                    3                    8   9.1245287367480721E-011
                    4                    8                    3                    9   3.8123691703528806E-011
                    4                    8                    4                    7  -2.9921412569855477E-012
                    4                    8                    4                    9   7.6477851829181986E-012
                    4                    8                    5                   10   1.5073457239334065E-011
                    4                    8                    7                    2  -1.9824059060979948E-011
                    4                    8                    7                    3   2.0137017053833972E-012
                    4                    8                    7                    4   3.7900758920184074E-012
                    4                    8                    8                    2  -1.7828365520000666E-011
                    4                    8                    8                    3  -7.7814046872681786E-011
                    4                    8                    8                    4  -7.2904682291152767E-011
                    4                    8                    9                    2   3.3529116982844442E-012
                    4                    8                    9                    4   4.1907033399013471E-012
                    4                    8                   10                    5  -1.5706309516860806E-011
                    4                    9                    1                    6   1.0068508526916986E-012
                    4                    9                    2                    6   1.4396470127131522E-012
                    4                    9                    2                    7   2.3563040407736935E-011
                    4                    9                    2                    8  -3.4510033719570288E-012
                    4                    9                    2                    9  -2.9199483109199065E-011
                    4                    9                    3                    6  -1.8128502171643746E-012
                    4                    9                    3                    7  -1.1222515972075797E-012
                    4                    9                    3                    8   6.3790958626519512E-011
                    4                    9                    3                    9   7.3065220540513565E-011
                    4                    9                    4                    7   2.8523919337608561E-012
                    4                    9                    4                    8  -7.6477851829181986E-012
                    4                    9                    5                   10   1.4062404019021812E-011
                    4                    9                    6                    1  -1.0068508526916986E-012
                    4                    9                    7                    1  -1.4148127114310682E-012
                    4                    9                    7                    2  -2.3563026529949127E-011
                    4                    9                    7                    3   2.9707486470798017E-012
                    4                    9                    7                    4   2.8386126782464771E-011
                    4                    9                    8                    1   1.6328973763413135E-012
                    4                    9                    8                    2   1.6025063220848068E-012
                    4                    9                    8                    3  -6.3790958626519512E-011
                    4                    9                    8                    4  -6.1226697323224499E-011
                    4                    9                    9                    2  -2.0390356070265625E-012
                    4                    9                    9                    3  -4.1907345649239147E-012
                    4                    9                   10                    5  -1.4062404019021812E-011
                    4                   10                    2                   10  -1.7230106230670117E-011
                    4                   10                    3                   10   3.7300273980633847E-011
                    4                   10                    5                    7  -5.7701100841800468E-012
                    4                   10                    5                    8   6.9005096775542896E-012
                    4                   10                    5                    9   6.4356436846324527E-012
                    4                   10                    7                    5   1.0783905018962869E-011
                    4                   10                    8                    5  -1.4927444696999359E-011
                    4                   10                   10                    2   7.1667741186054457E-012
                    4                   10                   10                    3  -1.8271918700296652E-011
                    4                   10                   10                    4  -1.4044321261508230E-011
                    5                    2                    3                    5   1.2846182451120569E-012
                    5                    2                    4                    5  -1.3968375067729966E-012
                    5                    2                    5                    3  -1.9442928170243512E-012
                    5                    2                    5                    4   1.1428150092918088E-012
                    5                    3                    2                    5   4.0263417599994966E-012
                    5                    3                    3                    5  -2.1722401655210888E-011
                    5                    3                    4                    5   1.1371573821472580E-011
                    5                    3                    5                    2   1.9442928170243512E-012
                    5                    3                    5                    4  -2.4852446489642688E-012
                    5                    4                    2                    5   6.1922880018050463E-012
                    5                    4                    3                    5  -1.3486663175132918E-011
                    5                    4                    4                    5   7.6085804323611228E-012
                    5                    4                    5                    2  -1.1428150092918088E-012
                    5                    4                    5                    3   2.4852446489642688E-012
                    5                    6                    8                    5   1.1779839256820246E-012
                    5                    7                    2                   10   5.3995696802644488E-012
                    5                    7                    3                   10  -7.3212338969064206E-012
                    5                    7                    4                   10   5.7701100841800468E-012
                    5                    7                    5                    8  -2.6335383526698841E-012
                    5                    7                    7                    5  -6.0043081617777716E-012
                    5                    7                    8                    5   8.6058191822724339E-012
                    5                    7                    9                    5  -7.1667533019237339E-012
                    5                    8                    2                   10  -1.9428382513897446E-012
                    5                    8                    3                   10   1.2635240076441789E-011
                    5                    8                    4                   10  -6.9005096775542896E-012
                    5                    8                    5                    7   2.6335383526698841E-012
                    5                    8                    5                    9  -3.7128737584435356E-012
                    5                    8                    7                    5   5.9692103690500709E-012
                    5                    8                    8                    5  -3.4357405809259944E-011
                    5                    8                    9                    5   1.8271918700296652E-011
                    5                    8                   10                    4   1.2277982450181746E-012
                    5                    9                    2                   10  -4.8304138466903623E-012
                    5                    9                    3                   10   9.2547245908458642E-012
                    5                    9                    4                   10  -6.4356436846324527E-012
                    5                    9                    5                    8   3.7128737584435356E-012
                    5                    9                    7                    5   1.1022655010961557E-011
                    5                    9                    8                    5  -2.2741229038780730E-011
                    5                    9                    9                    5   1.4044321261508230E-011
                    5                    9                   10                    3  -1.2277913061242707E-012
                    5                   10                    2                    7   6.4250965658985137E-012
                    5                   10                    2                    8  -6.6202997944797559E-012
                    5                   10                    2                    9  -9.2968202580756554E-012
                    5                   10                    3                    6  -1.2743126866221477E-012
                    5                   10                    3                    7  -6.3065733191258744E-012
                    5                   10                    3                    8   2.9953636793145222E-011
                    5                   10                    3                    9   2.0177261771114896E-011
                    5                   10                    4                    7   6.4851041203795035E-012
                    5                   10                    4                    8  -1.5073457239334065E-011
                    5                   10                    4                    9  -1.4062404019021812E-011
                    5                   10                    7                    2  -6.4250688103228981E-012
                    5                   10                    7                    3   6.2665133498951420E-012
                    5                   10                    7                    4   9.3754864982642516E-012
                    5                   10                    8                    1   1.3431569224897633E-012
                    5                   10                    8                    2   6.6603545595400604E-012
                    5                   10                    8                    3  -2.9953636793145222E-011
                    5                   10                    8                    4  -2.0810133997961611E-011
                    5                   10                    9                    2  -6.5637703605680997E-012
                    5                   10                    9                    3   1.5706311251584282E-011
                    5                   10                    9                    4   1.4062390141234005E-011
                    6                    1                    3                    8  -1.2178903718851330E-012
                    6                    1                    3                    9  -1.0138500282363960E-012
                    6                    1                    4                    9   1.0068508526916986E-012
                    6                    1                    8                    3   1.2178938413320850E-012
                    6                    1                    8                    4   1.0201743963489385E-012
                    6                    1                    9                    4  -1.0068508526916986E-012
                    6                    2                    3                    8  -1.1322331960883503E-012
                    6                    2                    8                    3   1.1289545687187541E-012
                    7                    1                    3                    9  -1.2506686224850183E-012
                    7                    1                    4                    9   1.4148127114310682E-012
                    7                    1                    9                    4  -1.4396643599479120E-012
                    7                    2                    2                    8   2.9834745784995675E-012
                    7                    2                    3                    7  -8.1545048491449279E-012
                    7                    2                    3                    8  -3.7569281019500522E-011
                    7                    2                    3                    9  -2.6434272305808637E-011
                    7                    2                    4                    7  -6.4781600223051683E-012
                    7                    2                    4                    8   1.9824059060979948E-011
                    7                    2                    4                    9   2.3563026529949127E-011
                    7                    2                    5                   10   6.4250688103228981E-012
                    7                    2                    7                    3  -3.3242956998247308E-012
                    7                    2                    7                    4  -2.6723961585317646E-012
                    7                    2                    8                    2   8.4953294399170431E-012
                    7                    2                    8                    3   3.7569392041802985E-011
                    7                    2                    8                    4   2.3375973032258024E-011
                    7                    2                    9                    2   8.1996449560750584E-012
                    7                    2                    9                    3  -1.6765756317982383E-011
                    7                    2                    9                    4  -2.3563040407736935E-011
                    7                    2                   10                    5  -6.4251104436863216E-012
                    7                    3                    2                    7  -2.9834572312648078E-012
                    7                    3                    3                    7  -3.2810754113654639E-011
                    7                    3                    3                    8  -3.1356510270252880E-011
                    7                    3                    3                    9  -2.6713906260689146E-011
                    7                    3                    4                    7   1.4631611894300178E-011
                    7                    3                    4                    8  -2.0137017053833972E-012
                    7                    3                    4                    9  -2.9707486470798017E-012
                    7                    3                    5                   10  -6.2665133498951420E-012
                    7                    3                    7                    2   3.3242956998247308E-012
                    7                    3                    8                    2   2.8870184021201339E-011
                    7                    3                    8                    3   3.1172178987376453E-011
                    7                    3                    8                    4   2.0211270157499683E-011
                    7                    3                    9                    2  -1.2046677023980212E-011
                    7                    3                    9                    3   9.1116988086559214E-012
                    7                    3                    9                    4   3.4509756163814131E-012
                    7                    3                   10                    5   6.6202807125215202E-012
                    7                    4                    3                    7  -1.9133070128241059E-011
                    7                    4                    3                    8  -1.9394895411917190E-011
                    7                    4                    3                    9   1.9921911342812848E-012
                    7                    4                    4                    7   1.8862023054566635E-011
                    7                    4                    4                    8  -3.7900758920184074E-012
                    7                    4                    4                    9  -2.8386126782464771E-011
                    7                    4                    5                   10  -9.3754864982642516E-012
                    7                    4                    7                    2   2.6723961585317646E-012
                    7                    4                    8                    2   1.5473424624934395E-011
                    7                    4                    8                    3   1.8494282494341263E-011
                    7                    4                    8                    4   1.8805339230265616E-012
                    7                    4                    9                    2  -1.5142914699950438E-011
                    7                    4                    9                    4   2.9199483109199065E-011
                    7                    4                   10                    5   9.2967959719469917E-012
                    7                    5                    3                   10   4.6891240890190033E-012
                    7                    5                    4                   10  -1.0783905018962869E-011
                    7                    5                    5                    7   6.0043081617777716E-012
                    7                    5                    5                    8  -5.9692103690500709E-012
                    7                    5                    5                    9  -1.1022655010961557E-011
                    7                    5                    9                    5   1.7230085413988405E-011
                    7                    5                   10                    2  -5.3996251914156801E-012
                    7                    5                   10                    3   1.9428382513897446E-012
                    7                    5                   10                    4   4.8304207855842662E-012
                    7                    7                    7                    9  -1.7214701989131594E-012
                    7                    7                    8                    9  -3.0583054843002747E-012
                    7                    7                    9                    7   1.7214710524576725E-012
                    7                    7                    9                    8   3.0583050070369136E-012
                    7                    8                    8                    7  -3.9410696928143807E-012
                    7                    8                    8                    9  -6.5025883982938737E-012
                    7                    8                    9                    7   2.5849357376817039E-012
                    7                    8                    9                    8   7.0979576383134457E-012
                    7                    9                    7                    7   1.7214701989131594E-012
                    7                    9                    8                    7  -3.6595240726633449E-012
                    7                    9                    8                    9   3.8729228157841078E-012
                    7                    9                    9                    7   3.7188030432844243E-012
                    7                    9                    9                    8  -3.0802235762017460E-012
                    7                   10                    8                   10   4.6860137298265769E-012
                    7                   10                    9                   10   6.4463052951158062E-012
                    7                   10                   10                    8  -4.0263400252760206E-012
                    7                   10                   10                    9  -6.1922984101459022E-012
                    8                    1                    3                    8  -1.1254345979455627E-012
                    8                    1                    4                    9  -1.6328973763413135E-012
                    8                    1                    5                   10  -1.3431569224897633E-012
                    8                    1                    8                    3   1.4758042878038058E-012
                    8                    1                    9                    4   1.8128502171643746E-012
                    8                    1                   10                    5   1.2743174571117066E-012
                    8                    2                    2                    7   8.1544875019101681E-012
                    8                    2                    2                    8   3.2810754113654639E-011
                    8                    2                    2                    9   1.9133132578286194E-011
                    8                    2                    3                    8  -7.7970863272824875E-012
                    8                    2                    3                    9   1.0719741067033439E-012
                    8                    2                    4                    7   2.7534849400545625E-011
                    8                    2                    4                    8   1.7828365520000666E-011
                    8                    2                    4                    9  -1.6025063220848068E-012
                    8                    2                    5                   10  -6.6603545595400604E-012
                    8                    2                    7                    2  -8.4953294399170431E-012
                    8                    2                    7                    3  -2.8870184021201339E-011
                    8                    2                    7                    4  -1.5473424624934395E-011
                    8                    2                    8                    3   7.9814124059884861E-012
                    8                    2                    9                    2  -3.2829721580140969E-011
                    8                    2                    9                    3  -1.9269547762990058E-011
                    8                    2                    9                    4   1.1222828222301473E-012
                    8                    2                   10                    5   6.3065889316371582E-012
                    8                    3                    1                    6   1.2178903718851330E-012
                    8                    3                    1                    7   1.1322227877474944E-012
                    8                    3                    2                    7   3.7569419797378600E-011
                    8                    3                    2                    8   3.1356481647315526E-011
                    8                    3                    2                    9   1.9394874595235478E-011
                    8                    3                    3                    6   1.1254348147859972E-012
                    8                    3                    3                    7   7.7971162512624481E-012
                    8                    3                    3                    9   2.0730587385608956E-012
                    8                    3                    4                    6  -1.9395379399766988E-012
                    8                    3                    4                    7   4.6263236297416910E-012
                    8                    3                    4                    8   7.7814046872681786E-011
                    8                    3                    4                    9   6.3790958626519512E-011
                    8                    3                    5                   10   2.9953636793145222E-011
                    8                    3                    6                    1  -1.2178938413320850E-012
                    8                    3                    6                    2  -1.1289545687187541E-012
                    8                    3                    7                    2  -3.7569392041802985E-011
                    8                    3                    7                    3  -3.1172178987376453E-011
                    8                    3                    7                    4  -1.8494282494341263E-011
                    8                    3                    8                    1  -1.4758042878038058E-012
                    8                    3                    8                    2  -7.9814124059884861E-012
                    8                    3                    8                    4   1.1358221654877987E-011
                    8                    3                    9                    1   1.8488483313761073E-012
                    8                    3                    9                    2  -5.5269122611889543E-012
                    8                    3                    9                    3  -9.1245264816075533E-011
                    8                    3                    9                    4  -6.3790958626519512E-011
                    8                    3                   10                    5  -2.9953640262592174E-011
[...]
    7    7    8    3        0.0057415931
    7    7    8    4       -0.0101991521
    7    7    8    6        0.0362752676
    7    7    8    7       -0.0184167571
    7    7    8    8        0.2825097327
    7    8    8    1       -0.0004813079
    7    8    8    2       -0.0044137566
    7    8    8    3        0.0072554489
    7    8    8    4       -0.0065334934
    7    8    8    6       -0.0239733882
    7    8    8    7        0.0177261847
    7    8    8    8       -0.0551052799
    8    1    1    1        0.0632202483
    8    1    1    2       -0.0102982063
    8    1    1    3        0.0073182204
    8    1    1    4       -0.0061977955
    8    1    1    6        0.0078602789
    8    1    1    7       -0.0030336333
    8    1    1    8        0.0065939258
    8    2    1    1       -0.0660199039
    8    2    1    2        0.0013374869
    8    2    1    3        0.0038737564
    8    2    1    4       -0.0068886805
    8    2    1    6        0.0029634814
    8    2    1    7       -0.0030230311
    8    2    1    8        0.0035835825
    8    3    1    1        0.0835942514
    8    3    1    2       -0.0016579834
    8    3    1    3       -0.0007421609
    8    3    1    4       -0.0019196760
    8    3    1    6        0.0014774264
    8    3    1    7        0.0006026876
    8    3    1    8        0.0009128558
    8    4    1    1       -0.0960456125
    8    4    1    2        0.0008972478
    8    4    1    3       -0.0043860428
    8    4    1    4       -0.0002251987
    8    4    1    6       -0.0012823771
    8    4    1    7        0.0024955088
    8    4    1    8       -0.0017798025
    8    5    1    5       -0.0050306250
    8    6    1    1        0.1595205166
    8    6    1    2       -0.0022169169
    8    6    1    3       -0.0007862484
    8    6    1    4        0.0039324181
    8    6    1    6       -0.0009136078
    8    6    1    7        0.0010039150
    8    6    1    8       -0.0011185904
    8    7    1    1       -0.0998362400
    8    7    1    2        0.0014333514
    8    7    1    3        0.0006038343
    8    7    1    4        0.0008690695
    8    7    1    6       -0.0007440090
    8    7    1    7       -0.0004097212
    8    7    1    8       -0.0004813079
    8    8    1    1        0.4729385239
    8    8    1    2       -0.0020391526
    8    8    1    3       -0.0028757902
    8    8    1    4        0.0049368708
    8    8    1    6       -0.0017823907
    8    8    1    7        0.0021255703
    8    8    1    8       -0.0020325897
    8    1    2    1       -0.0098771654
    8    1    2    2        0.0011716452
    8    1    2    3        0.0064944828
    8    1    2    4       -0.0090126721
    8    1    2    6        0.0037078262
    8    1    2    7       -0.0037088178
    8    1    2    8        0.0035835825
    8    2    2    1        0.0017004363
    8    2    2    2       -0.0268292407
    8    2    2    3        0.0081636078
    8    2    2    4       -0.0139086370
    8    2    2    6        0.0228873345
    8    2    2    7       -0.0080935323
    8    2    2    8        0.0269876396
    8    3    2    1       -0.0020539263
    8    3    2    2        0.0258430314
    8    3    2    3        0.0189242546
    8    3    2    4       -0.0371476273
    8    3    2    6       -0.0078786569
    8    3    2    7       -0.0012151301
    8    3    2    8       -0.0184731033
    8    4    2    1        0.0011828451
    8    4    2    2       -0.0422748750
    8    4    2    3       -0.0403629230
    8    4    2    4        0.0206598342
    8    4    2    6        0.0122665348
    8    4    2    7        0.0111588923
    8    4    2    8        0.0181948514
    8    5    2    5       -0.0216866876
    8    6    2    1       -0.0022175288
    8    6    2    2        0.1040000284
    8    6    2    3       -0.0102467148
    8    6    2    4        0.0112855527
    8    6    2    6       -0.0162510674
    8    6    2    7       -0.0052846347
    8    6    2    8        0.0067609166
    8    7    2    1        0.0014481388
    8    7    2    2       -0.0629824986
    8    7    2    3        0.0084135191
    8    7    2    4        0.0058099931
    8    7    2    6        0.0062192270
    8    7    2    7        0.0038480159
    8    7    2    8       -0.0044137566
    8    8    2    1       -0.0020391526
    8    8    2    2        0.4237202781
    8    8    2    3       -0.0649659952
    8    8    2    4        0.0489265763
    8    8    2    6       -0.0180599999
    8    8    2    7       -0.0105668317
    8    8    2    8        0.0361747322
    8    1    3    1        0.0067817171
    8    1    3    2        0.0064274786
    8    1    3    3       -0.0010149482
    8    1    3    4        0.0002120999
    8    1    3    6       -0.0011393289
    8    1    3    7       -0.0004807639
    8    1    3    8        0.0009128558
    8    2    3    1        0.0037583262
    8    2    3    2        0.0082825705
    8    2    3    3       -0.0115067247
    8    2    3    4       -0.0183402996
    8    2    3    6       -0.0101920196
    8    2    3    7        0.0097496032
    8    2    3    8       -0.0184731033
    8    3    3    1       -0.0008051897
    8    3    3    2        0.0183300180
    8    3    3    3        0.0061501099
    8    3    3    4        0.0254260439
    8    3    3    6        0.0272725060
    8    3    3    7       -0.0210026402
    8    3    3    8        0.0568295481
    8    4    3    1       -0.0046620452
    8    4    3    2       -0.0413335764
    8    4    3    3       -0.0057760282
    8    4    3    4       -0.0214794989
    8    4    3    6       -0.0215387385
    8    4    3    7        0.0159912262
    8    4    3    8       -0.0451657567
    8    5    3    5        0.0080391101
    8    6    3    1       -0.0007378201
    8    6    3    2       -0.0100324931
    8    6    3    3        0.0970840412
    8    6    3    4       -0.0119814781
    8    6    3    6        0.0028511043
    8    6    3    7       -0.0155789052
    8    6    3    8       -0.0207333244
    8    7    3    1        0.0006035516
    8    7    3    2        0.0083809451
    8    7    3    3       -0.0594877516
    8    7    3    4        0.0048807676
    8    7    3    6       -0.0022449138
    8    7    3    7        0.0146481410
    8    7    3    8        0.0072554489
    8    8    3    1       -0.0028757902
    8    8    3    2       -0.0649659952
    8    8    3    3        0.4440080443
    8    8    3    4       -0.0576905937
    8    8    3    6       -0.0352108803
    8    8    3    7       -0.0208631674
    8    8    3    8       -0.0976512155
    8    1    4    1       -0.0055794600
    8    1    4    2       -0.0089370216
    8    1    4    3        0.0001989159
    8    1    4    4        0.0046970816
    8    1    4    6        0.0003404185
    8    1    4    7        0.0020863709
    8    1    4    8       -0.0017798025
    8    2    4    1       -0.0069815621
    8    2    4    2       -0.0141645022
    8    2    4    3       -0.0182674564
    8    2    4    4       -0.0071957319
    8    2    4    6        0.0136924220
    8    2    4    7        0.0024153904
    8    2    4    8        0.0181948514
    8    3    4    1       -0.0021412455
    8    3    4    2       -0.0379591632
    8    3    4    3        0.0261624816
    8    3    4    4        0.0113529257
    8    3    4    6       -0.0250457097
    8    3    4    7        0.0120477031
    8    3    4    8       -0.0451657567
    8    4    4    1       -0.0003823420
    8    4    4    2        0.0202956015
    8    4    4    3       -0.0211101351
    8    4    4    4       -0.0276848831
    8    4    4    6        0.0319823565
    8    4    4    7       -0.0179985215
    8    4    4    8        0.0549804875
    8    5    4    5       -0.0017362656
    8    6    4    1        0.0039244128
    8    6    4    2        0.0111565763
    8    6    4    3       -0.0118921716
    8    6    4    4        0.0960626238
    8    6    4    6       -0.0105134872
    8    6    4    7       -0.0003578045
    8    6    4    8        0.0162816272
    8    7    4    1        0.0009310428
    8    7    4    2        0.0059671614
    8    7    4    3        0.0047010722
    8    7    4    4       -0.0638755537
    8    7    4    6        0.0046361768
    8    7    4    7       -0.0021451074
    8    7    4    8       -0.0065334934
    8    8    4    1        0.0049368708
    8    8    4    2        0.0489265763
    8    8    4    3       -0.0576905937
    8    8    4    4        0.4307469376
    8    8    4    6        0.0210472696
    8    8    4    7       -0.0200680438
    8    8    4    8        0.0876535193
    8    1    5    5        0.0008579216
    8    2    5    5       -0.0332573311
    8    3    5    5        0.0346281473
    8    4    5    5       -0.0396697235
    8    5    5    1       -0.0054511751
    8    5    5    2       -0.0230401118
    8    5    5    3        0.0086523558
    8    5    5    4       -0.0021055565
    8    5    5    6        0.0084713091
    8    5    5    7       -0.0035062373
    8    5    5    8        0.0102422165
    8    6    5    5        0.0929975542
    8    7    5    5       -0.0597853483
    8    8    5    5        0.3969106456
    8    1    6    1        0.0080909625
    8    1    6    2        0.0040972669
    8    1    6    3       -0.0013254992
    8    1    6    4        0.0005770342
    8    1    6    6       -0.0025374811
    8    1    6    7        0.0009871677
    8    1    6    8       -0.0011185904
    8    2    6    1        0.0033903143
    8    2    6    2        0.0249401454
    8    2    6    3       -0.0103804224
    8    2    6    4        0.0135790933
    8    2    6    6       -0.0026355633
    8    2    6    7       -0.0051198051
    8    2    6    8        0.0067609166
    8    3    6    1        0.0013084494
    8    3    6    2       -0.0076940873
    8    3    6    3        0.0270171327
    8    3    6    4       -0.0237339147
    8    3    6    6       -0.0223519852
    8    3    6    7        0.0168722730
    8    3    6    8       -0.0207333244
    8    4    6    1       -0.0010939757
    8    4    6    2        0.0123911998
    8    4    6    3       -0.0207630824
    8    4    6    4        0.0319417799
    8    4    6    6        0.0136374407
    8    4    6    7       -0.0209858867
    8    4    6    8        0.0162816272
    8    5    6    5        0.0100007607
    8    6    6    1       -0.0008988480
    8    6    6    2       -0.0162300426
    8    6    6    3        0.0032466615
    8    6    6    4       -0.0106629808
    8    6    6    6        0.0464718077
    8    6    6    7       -0.0044394593
    8    6    6    8        0.0497373878
    8    7    6    1       -0.0007585545
    8    7    6    2        0.0063011627
    8    7    6    3       -0.0022688737
    8    7    6    4        0.0049984805
    8    7    6    6       -0.0256152562
    8    7    6    7        0.0047733680
    8    7    6    8       -0.0239733882
    8    8    6    1       -0.0017823907
    8    8    6    2       -0.0180599999
    8    8    6    3       -0.0352108803
    8    8    6    4        0.0210472696
    8    8    6    6        0.3794115102
    8    8    6    7       -0.0716608892
    8    8    6    8        0.1016002093
    8    1    7    1       -0.0031485474
    8    1    7    2       -0.0038417405
    8    1    7    3       -0.0002926772
    8    1    7    4        0.0021929499
    8    1    7    6        0.0009819397
    8    1    7    7        0.0011581757
    8    1    7    8       -0.0004813079
    8    2    7    1       -0.0031855602
    8    2    7    2       -0.0092571060
    8    2    7    3        0.0089561587
    8    2    7    4        0.0041749709
    8    2    7    6       -0.0052868625
    8    2    7    7        0.0000554283
    8    2    7    8       -0.0044137566
    8    3    7    1        0.0007122099
    8    3    7    2       -0.0006524004
    8    3    7    3       -0.0203274341
    8    3    7    4        0.0118728134
    8    3    7    6        0.0167707251
    8    3    7    7        0.0057415931
    8    3    7    8        0.0072554489
    8    4    7    1        0.0026624336
    8    4    7    2        0.0125415351
    8    4    7    3        0.0147805111
    8    4    7    4       -0.0187470835
    8    4    7    6       -0.0210184719
    8    4    7    7       -0.0101991521
    8    4    7    8       -0.0065334934
    8    5    7    5       -0.0038581467
    8    6    7    1        0.0009865558
    8    6    7    2       -0.0053721129
    8    6    7    3       -0.0156541715
    8    6    7    4        0.0000166362
    8    6    7    6       -0.0044568509
    8    6    7    7        0.0362752676
    8    6    7    8       -0.0239733882
    8    7    7    1       -0.0004056028
    8    7    7    2        0.0038147828
    8    7    7    3        0.0145963376
    8    7    7    4       -0.0022280513
    8    7    7    6        0.0047783769
    8    7    7    7       -0.0184167571
    8    7    7    8        0.0177261847
    8    8    7    1        0.0021255703
    8    8    7    2       -0.0105668317
    8    8    7    3       -0.0208631674
    8    8    7    4       -0.0200680438
    8    8    7    6       -0.0716608892
    8    8    7    7        0.2825097327
    8    8    7    8       -0.0551052799
    8    1    8    1        0.0067775744
    8    1    8    2        0.0038783326
    8    1    8    3        0.0007673554
    8    1    8    4       -0.0016970966
    8    1    8    6       -0.0011099504
    8    1    8    7       -0.0004911619
    8    1    8    8       -0.0020325897
    8    2    8    1        0.0038783326
    8    2    8    2        0.0291865864
    8    2    8    3       -0.0179088097
    8    2    8    4        0.0174426780
    8    2    8    6        0.0065382029
    8    2    8    7       -0.0042053433
    8    2    8    8        0.0361747322
    8    3    8    1        0.0007673554
    8    3    8    2       -0.0179088097
    8    3    8    3        0.0565012163
    8    3    8    4       -0.0440975612
    8    3    8    6       -0.0200847597
    8    3    8    7        0.0069764542
    8    3    8    8       -0.0976512155
    8    4    8    1       -0.0016970966
    8    4    8    2        0.0174426780
    8    4    8    3       -0.0440975612
    8    4    8    4        0.0553933295
    8    4    8    6        0.0158225819
    8    4    8    7       -0.0063116893
    8    4    8    8        0.0876535193
    8    5    8    5        0.0108520321
    8    6    8    1       -0.0011099504
    8    6    8    2        0.0065382029
    8    6    8    3       -0.0200847597
    8    6    8    4        0.0158225819
    8    6    8    6        0.0496741049
    8    6    8    7       -0.0239079222
    8    6    8    8        0.1016002093
    8    7    8    1       -0.0004911619
    8    7    8    2       -0.0042053433
    8    7    8    3        0.0069764542
    8    7    8    4       -0.0063116893
    8    7    8    6       -0.0239079222
    8    7    8    7        0.0176747709
    8    7    8    8       -0.0551052799
    8    8    8    1       -0.0020325897
    8    8    8    2        0.0361747322
    8    8    8    3       -0.0976512155
    8    8    8    4        0.0876535193
    8    8    8    6        0.1016002093
    8    8    8    7       -0.0551052799
    8    8    8    8        0.5840851901
 end_two_electron_integrals

 Parallel integral file used       1 records with       0 large values


 Task  times  cpu:        5.8s     wall:        5.8s


                                NWChem Input Module
                                -------------------


 Summary of allocated global arrays
-----------------------------------
  No active global arrays


MA_summarize_allocated_blocks: starting scan ...
MA_summarize_allocated_blocks: scan completed: 0 heap blocks, 0 stack blocks
MA usage statistics:

	allocation statistics:
					      heap	     stack
					      ----	     -----
	current number of blocks	         0	         0
	maximum number of blocks	        17	        42
	current total bytes		         0	         0
	maximum total bytes		   2110096	 141357496
	maximum total K-bytes		      2111	    141358
	maximum total M-bytes		         3	       142


                                     CITATION
                                     --------
                Please cite the following reference when publishing
                           results obtained with NWChem:

          E. Apra, E. J. Bylaska, W. A. de Jong, N. Govind, K. Kowalski,
       T. P. Straatsma, M. Valiev, H. J. J. van Dam, Y. Alexeev, J. Anchell,
       V. Anisimov, F. W. Aquino, R. Atta-Fynn, J. Autschbach, N. P. Bauman,
     J. C. Becca, D. E. Bernholdt, K. Bhaskaran-Nair, S. Bogatko, P. Borowski,
         J. Boschen, J. Brabec, A. Bruner, E. Cauet, Y. Chen, G. N. Chuev,
      C. J. Cramer, J. Daily, M. J. O. Deegan, T. H. Dunning Jr., M. Dupuis,
   K. G. Dyall, G. I. Fann, S. A. Fischer, A. Fonari, H. Fruchtl, L. Gagliardi,
      J. Garza, N. Gawande, S. Ghosh, K. Glaesemann, A. W. Gotz, J. Hammond,
       V. Helms, E. D. Hermes, K. Hirao, S. Hirata, M. Jacquelin, L. Jensen,
   B. G. Johnson, H. Jonsson, R. A. Kendall, M. Klemm, R. Kobayashi, V. Konkov,
      S. Krishnamoorthy, M. Krishnan, Z. Lin, R. D. Lins, R. J. Littlefield,
      A. J. Logsdail, K. Lopata, W. Ma, A. V. Marenich, J. Martin del Campo,
   D. Mejia-Rodriguez, J. E. Moore, J. M. Mullin, T. Nakajima, D. R. Nascimento,
    J. A. Nichols, P. J. Nichols, J. Nieplocha, A. Otero-de-la-Roza, B. Palmer,
    A. Panyala, T. Pirojsirikul, B. Peng, R. Peverati, J. Pittner, L. Pollack,
   R. M. Richard, P. Sadayappan, G. C. Schatz, W. A. Shelton, D. W. Silverstein,
   D. M. A. Smith, T. A. Soares, D. Song, M. Swart, H. L. Taylor, G. S. Thomas,
            V. Tipparaju, D. G. Truhlar, K. Tsemekhman, T. Van Voorhis,
      A. Vazquez-Mayagoitia, P. Verma, O. Villa, A. Vishnu, K. D. Vogiatzis,
        D. Wang, J. H. Weare, M. J. Williamson, T. L. Windus, K. Wolinski,
        A. T. Wong, Q. Wu, C. Yang, Q. Yu, M. Zacharias, Z. Zhang, Y. Zhao,
                                and R. J. Harrison
                        "NWChem: Past, present, and future
                         J. Chem. Phys. 152, 184102 (2020)
                               doi:10.1063/5.0004997

                                      AUTHORS
                                      -------
  E. Apra, E. J. Bylaska, N. Govind, K. Kowalski, M. Valiev, D. Mejia-Rodriguez,
       A. Kunitsa, N. P. Bauman, A. Panyala, W. A. de Jong, T. P. Straatsma,
        H. J. J. van Dam, D. Wang, T. L. Windus, J. Hammond, J. Autschbach,
    K. Bhaskaran-Nair, J. Brabec, K. Lopata, S. A. Fischer, S. Krishnamoorthy,
     M. Jacquelin, W. Ma, M. Klemm, O. Villa, Y. Chen, V. Anisimov, F. Aquino,
    S. Hirata, M. T. Hackler, Eric Hermes, L. Jensen, J. E. Moore, J. C. Becca,
      V. Konjkov, T. Risthaus, M. Malagoli, A. Marenich, A. Otero-de-la-Roza,
        J. Mullin, P. Nichols, R. Peverati, J. Pittner, Y. Zhao, P.-D. Fan,
        A. Fonari, M. J. Williamson, R. J. Harrison, J. R. Rehr, M. Dupuis,
     D. Silverstein, D. M. A. Smith, J. Nieplocha, V. Tipparaju, M. Krishnan,
     B. E. Van Kuiken, A. Vazquez-Mayagoitia, M. Swart, Q. Wu, T. Van Voorhis,
     A. A. Auer, M. Nooijen, L. D. Crosby, E. Brown, G. Cisneros, G. I. Fann,
   H. Fruchtl, J. Garza, K. Hirao, R. A. Kendall, J. A. Nichols, K. Tsemekhman,
    K. Wolinski, J. Anchell, D. E. Bernholdt, P. Borowski, T. Clark, D. Clerc,
   H. Dachsel, M. J. O. Deegan, K. Dyall, D. Elwood, E. Glendening, M. Gutowski,
   A. C. Hess, J. Jaffe, B. G. Johnson, J. Ju, R. Kobayashi, R. Kutteh, Z. Lin,
   R. Littlefield, X. Long, B. Meng, T. Nakajima, S. Niu, L. Pollack, M. Rosing,
   K. Glaesemann, G. Sandrone, M. Stave, H. Taylor, G. Thomas, J. H. van Lenthe,
                               A. T. Wong, Z. Zhang.

 Total times  cpu:        5.8s     wall:        5.8s
