 argument  1 = input.nw
  NWChem w/ OpenMP: maximum threads =    1



============================== echo of input deck ==============================
 echo
 start H2O
 title "H2O"

 memory total 24 gb

 geometry units bohr
 symmetry c1
        O  0.00000000  0.00000000  0.00000000
        H  0.00000000  2.396485  0.00000000
        H  1.72558000 -0.64860000  0.00000000
 end

 basis spherical
   * library cc-pVDZ
 end

 scf
   vectors input h2o.mos
   vectors output h2o.mos
 end

 tce
   2eorb
   2emet 13
   ccsd
   maxiter 300
 end

# set tce:print_integrals T
# set tce:qorb 8
# set tce:qela 5
# set tce:qelb 5

 set tce:qducc T
 set tce:nactv 3
 set tce:nonhf T
 set tce:ducc_model 6

 set tce:printtol 0.02

 task tce
================================================================================


                                         
                                         


             Northwest Computational Chemistry Package (NWChem) 7.0.1
             --------------------------------------------------------


                    Environmental Molecular Sciences Laboratory
                       Pacific Northwest National Laboratory
                                Richland, WA 99352

                              Copyright (c) 1994-2020
                       Pacific Northwest National Laboratory
                            Battelle Memorial Institute

             NWChem is an open-source computational chemistry package
                        distributed under the terms of the
                      Educational Community License (ECL) 2.0
             A copy of the license is included with this distribution
                              in the LICENSE.TXT file

                                  ACKNOWLEDGMENT
                                  --------------

            This software and its documentation were developed at the
            EMSL at Pacific Northwest National Laboratory, a multiprogram
            national laboratory, operated for the U.S. Department of Energy
            by Battelle under Contract Number DE-AC05-76RL01830. Support
            for this work was provided by the Department of Energy Office
            of Biological and Environmental Research, Office of Basic
            Energy Sciences, and the Office of Advanced Scientific Computing.


           Job information
           ---------------

    hostname        = WE46210
    program         = /home/baum612/code/nwchem/bin/LINUX64/nwchem
    date            = Fri Sep  6 10:01:46 2024

    compiled        = Wed_Sep_04_02:00:17_2024
    source          = /home/baum612/code/nwchem
    nwchem branch   = 7.0.0
    nwchem revision = nwchem_on_git-4191-g39d87d64de
    ga revision     = 5.8.1
    use scalapack   = F
    input           = input.nw
    prefix          = H2O.
    data base       = ./H2O.db
    status          = startup
    nproc           =        1
    time left       =     -1s



           Memory information
           ------------------

    heap     =  805306366 doubles =   6144.0 Mbytes
    stack    =  805306363 doubles =   6144.0 Mbytes
    global   = 1610612736 doubles =  12288.0 Mbytes (distinct from heap & stack)
    total    = 3221225465 doubles =  24576.0 Mbytes
    verify   = yes
    hardfail = no 


           Directory information
           ---------------------

  0 permanent = .
  0 scratch   = .




                                NWChem Input Module
                                -------------------


                                        H2O
                                        ---
 Turning off AUTOSYM since
 SYMMETRY directive was detected!


          ------
          auto-z
          ------
  no constraints, skipping    0.0000000000000000     
  no constraints, skipping    0.0000000000000000     


                             Geometry "geometry" -> ""
                             -------------------------

 Output coordinates in a.u. (scale by  1.000000000 to convert to a.u.)

  No.       Tag          Charge          X              Y              Z
 ---- ---------------- ---------- -------------- -------------- --------------
    1 O                    8.0000    -0.17255800    -0.17478850     0.00000000
    2 H                    1.0000    -0.17255800     2.22169650     0.00000000
    3 H                    1.0000     1.55302200    -0.82338850     0.00000000

      Atomic Mass 
      ----------- 

      O                 15.994910
      H                  1.007825


 Effective nuclear repulsion energy (a.u.)       7.9636236715

            Nuclear Dipole moment (a.u.) 
            ----------------------------
        X                 Y               Z
 ---------------- ---------------- ----------------
    -0.0000000000     0.0000000000     0.0000000000



                                Z-matrix (autoz)
                                -------- 

 Units are Angstrom for bonds and degrees for angles

      Type          Name      I     J     K     L     M      Value
      ----------- --------  ----- ----- ----- ----- ----- ----------
    1 Stretch                  1     2                       1.26817
    2 Stretch                  1     3                       0.97551
    3 Bend                     2     1     3               110.59992


            XYZ format geometry
            -------------------
     3
 geometry
 O                    -0.09131377    -0.09249410     0.00000000
 H                    -0.09131377     1.17567124     0.00000000
 H                     0.82182391    -0.43571846     0.00000000

 ==============================================================================
                                internuclear distances
 ------------------------------------------------------------------------------
       center one      |      center two      | atomic units |       a.u.
 ------------------------------------------------------------------------------
    3 H                |   1 O                |     1.84345  |     1.84345
 ------------------------------------------------------------------------------
                         number of included internuclear distances:          1
 ==============================================================================





 Summary of "ao basis" -> "" (spherical)
 ------------------------------------------------------------------------------
       Tag                 Description            Shells   Functions and Types
 ---------------- ------------------------------  ------  ---------------------
 *                          cc-pVDZ                   on all atoms 


                      Basis "ao basis" -> "ao basis" (spherical)
                      -----
  O (Oxygen)
  ----------
            Exponent  Coefficients 
       -------------- ---------------------------------------------------------
  1 S  1.17200000E+04  0.000710
  1 S  1.75900000E+03  0.005470
  1 S  4.00800000E+02  0.027837
  1 S  1.13700000E+02  0.104800
  1 S  3.70300000E+01  0.283062
  1 S  1.32700000E+01  0.448719
  1 S  5.02500000E+00  0.270952
  1 S  1.01300000E+00  0.015458

  2 S  1.17200000E+04 -0.000160
  2 S  1.75900000E+03 -0.001263
  2 S  4.00800000E+02 -0.006267
  2 S  1.13700000E+02 -0.025716
  2 S  3.70300000E+01 -0.070924
  2 S  1.32700000E+01 -0.165411
  2 S  5.02500000E+00 -0.116955
  2 S  1.01300000E+00  0.557368

  3 S  3.02300000E-01  1.000000

  4 P  1.77000000E+01  0.043018
  4 P  3.85400000E+00  0.228913
  4 P  1.04600000E+00  0.508728

  5 P  2.75300000E-01  1.000000

  6 D  1.18500000E+00  1.000000

  H (Hydrogen)
  ------------
            Exponent  Coefficients 
       -------------- ---------------------------------------------------------
  1 S  1.30100000E+01  0.019685
  1 S  1.96200000E+00  0.137977
  1 S  4.44600000E-01  0.478148

  2 S  1.22000000E-01  1.000000

  3 P  7.27000000E-01  1.000000



 Summary of "ao basis" -> "ao basis" (spherical)
 ------------------------------------------------------------------------------
       Tag                 Description            Shells   Functions and Types
 ---------------- ------------------------------  ------  ---------------------
 O                          cc-pVDZ                  6       14   3s2p1d
 H                          cc-pVDZ                  3        5   2s1p


                                 NWChem SCF Module
                                 -----------------


                                        H2O



  ao basis        = "ao basis"
  functions       =    24
  atoms           =     3
  closed shells   =     5
  open shells     =     0
  charge          =   0.00
  wavefunction    = RHF 
  input vectors   = ./h2o.mos
  output vectors  = ./h2o.mos
  use symmetry    = F
  symmetry adapt  = F


 Summary of "ao basis" -> "ao basis" (spherical)
 ------------------------------------------------------------------------------
       Tag                 Description            Shells   Functions and Types
 ---------------- ------------------------------  ------  ---------------------
 O                          cc-pVDZ                  6       14   3s2p1d
 H                          cc-pVDZ                  3        5   2s1p



 Forming initial guess at       0.0s


 Loading old vectors from job with title :

H2O


 Starting SCF solution at       0.0s



 ----------------------------------------------
         Quadratically convergent ROHF

 Convergence threshold     :          1.000E-04
 Maximum no. of iterations :           30
 Final Fock-matrix accuracy:          1.000E-07
 ----------------------------------------------


 #quartets = 3.081D+03 #integrals = 2.131D+04 #direct =  0.0% #cached =100.0%


 Integral file          = ./H2O.aoints.0
 Record size in doubles =  65536        No. of integs per rec  =  43688
 Max. records in memory =      4        Max. records in file   = 232240
 No. of bits per label  =      8        No. of bits per value  =     64


              iter       energy          gnorm     gmax       time
             ----- ------------------- --------- --------- --------
                 1      -75.9634211466  1.40D-02  4.54D-03      0.1
                 2      -75.9634375293  1.02D-04  5.14D-05      0.1
                 3      -75.9634375311  3.67D-06  2.47D-06      0.1


       Final RHF  results 
       ------------------ 

         Total SCF energy =    -75.963437531057
      One-electron energy =   -120.862268307485
      Two-electron energy =     36.935207104930
 Nuclear repulsion energy =      7.963623671498

        Time for solution =      0.1s


             Final eigenvalues
             -----------------

              1      
    1  -20.5717
    2   -1.2805
    3   -0.6406
    4   -0.5180
    5   -0.4852
    6    0.1341
    7    0.2342
    8    0.6506
    9    0.8131
   10    1.1501
   11    1.1785
   12    1.2955
   13    1.4540
   14    1.5297
   15    1.6741

                       ROHF Final Molecular Orbital Analysis
                       -------------------------------------

 Vector    2  Occ=2.000000D+00  E=-1.280462D+00
              MO Center=  5.7D-02, -8.4D-02, -1.2D-17, r^2= 5.1D-01
   Bfn.  Coefficient  Atom+Function         Bfn.  Coefficient  Atom+Function  
  ----- ------------  ---------------      ----- ------------  ---------------
     2      0.453657  1 O  s                  3      0.452316  1 O  s          
    20      0.196026  3 H  s          

 Vector    3  Occ=2.000000D+00  E=-6.406170D-01
              MO Center=  4.5D-02,  4.3D-02,  7.7D-18, r^2= 8.8D-01
   Bfn.  Coefficient  Atom+Function         Bfn.  Coefficient  Atom+Function  
  ----- ------------  ---------------      ----- ------------  ---------------
     4      0.396071  1 O  px                20      0.360839  3 H  s          
     5     -0.279371  1 O  py                15     -0.215040  2 H  s          
     7      0.209217  1 O  px                 3     -0.189570  1 O  s          
     8     -0.150551  1 O  py         

 Vector    4  Occ=2.000000D+00  E=-5.179939D-01
              MO Center= -1.0D-01,  8.5D-02, -3.4D-17, r^2= 8.9D-01
   Bfn.  Coefficient  Atom+Function         Bfn.  Coefficient  Atom+Function  
  ----- ------------  ---------------      ----- ------------  ---------------
     5      0.383706  1 O  py                 4      0.354759  1 O  px         
     8      0.286605  1 O  py                 7      0.268139  1 O  px         
    15      0.263328  2 H  s                  3     -0.239375  1 O  s          

 Vector    5  Occ=2.000000D+00  E=-4.851609D-01
              MO Center= -7.3D-02, -8.8D-02,  6.3D-17, r^2= 5.9D-01
   Bfn.  Coefficient  Atom+Function         Bfn.  Coefficient  Atom+Function  
  ----- ------------  ---------------      ----- ------------  ---------------
     6      0.637525  1 O  pz                 9      0.498378  1 O  pz         

 Vector    6  Occ=0.000000D+00  E= 1.341410D-01
              MO Center=  6.1D-02,  8.7D-01,  9.4D-18, r^2= 2.4D+00
   Bfn.  Coefficient  Atom+Function         Bfn.  Coefficient  Atom+Function  
  ----- ------------  ---------------      ----- ------------  ---------------
    16      0.929947  2 H  s                  3     -0.689631  1 O  s          
     8     -0.400781  1 O  py                21      0.354438  3 H  s          
     5     -0.275726  1 O  py                15      0.191772  2 H  s          

 Vector    7  Occ=0.000000D+00  E= 2.341915D-01
              MO Center=  9.0D-01, -3.0D-01, -6.9D-17, r^2= 2.9D+00
   Bfn.  Coefficient  Atom+Function         Bfn.  Coefficient  Atom+Function  
  ----- ------------  ---------------      ----- ------------  ---------------
    21      1.491196  3 H  s                 16     -0.705412  2 H  s          
     3     -0.529827  1 O  s                  7     -0.427484  1 O  px         
     8      0.421809  1 O  py                 5      0.206151  1 O  py         
     4     -0.203495  1 O  px         

 Vector    8  Occ=0.000000D+00  E= 6.505973D-01
              MO Center= -1.0D-01,  1.2D+00,  3.7D-17, r^2= 1.6D+00
   Bfn.  Coefficient  Atom+Function         Bfn.  Coefficient  Atom+Function  
  ----- ------------  ---------------      ----- ------------  ---------------
    15      1.277321  2 H  s                 16     -1.232678  2 H  s          
     3      0.276138  1 O  s                  5     -0.251925  1 O  py         
    21      0.175932  3 H  s          

 Vector    9  Occ=0.000000D+00  E= 8.131307D-01
              MO Center=  6.7D-01, -3.6D-01,  7.7D-17, r^2= 1.3D+00
   Bfn.  Coefficient  Atom+Function         Bfn.  Coefficient  Atom+Function  
  ----- ------------  ---------------      ----- ------------  ---------------
    20      1.292135  3 H  s                 21     -0.863915  3 H  s          
     4     -0.281428  1 O  px                 7     -0.275535  1 O  px         
    22      0.243909  3 H  px                 8      0.171469  1 O  py         
     2     -0.159980  1 O  s          

 Vector   10  Occ=0.000000D+00  E= 1.150059D+00
              MO Center= -2.1D-01,  1.5D-01,  6.6D-16, r^2= 1.3D+00
   Bfn.  Coefficient  Atom+Function         Bfn.  Coefficient  Atom+Function  
  ----- ------------  ---------------      ----- ------------  ---------------
     7      1.224259  1 O  px                 4     -0.733758  1 O  px         
     3      0.516647  1 O  s                 20     -0.460494  3 H  s          
    21     -0.431871  3 H  s                 22      0.348490  3 H  px         
    17      0.290352  2 H  px                 5     -0.173930  1 O  py         
    16      0.154230  2 H  s          

 Vector   11  Occ=0.000000D+00  E= 1.178503D+00
              MO Center= -9.8D-02,  8.8D-02, -3.6D-16, r^2= 1.1D+00
   Bfn.  Coefficient  Atom+Function         Bfn.  Coefficient  Atom+Function  
  ----- ------------  ---------------      ----- ------------  ---------------
     9     -0.933533  1 O  pz                 6      0.915258  1 O  pz         
    19     -0.260032  2 H  pz         

 Vector   12  Occ=0.000000D+00  E= 1.295500D+00
              MO Center=  5.2D-02, -3.4D-01, -2.3D-16, r^2= 1.4D+00
   Bfn.  Coefficient  Atom+Function         Bfn.  Coefficient  Atom+Function  
  ----- ------------  ---------------      ----- ------------  ---------------
     8      1.347071  1 O  py                 5     -0.830702  1 O  py         
    21      0.563997  3 H  s                  7     -0.490671  1 O  px         
    16     -0.466342  2 H  s                  3     -0.318285  1 O  s          
    18      0.314079  2 H  py                23      0.301194  3 H  py         
    15     -0.275294  2 H  s                 20      0.260768  3 H  s          

 Vector   13  Occ=0.000000D+00  E= 1.454023D+00
              MO Center=  3.3D-01,  3.1D-01,  1.7D-16, r^2= 1.3D+00
   Bfn.  Coefficient  Atom+Function         Bfn.  Coefficient  Atom+Function  
  ----- ------------  ---------------      ----- ------------  ---------------
    19      0.685342  2 H  pz                24     -0.649483  3 H  pz         
     6      0.255699  1 O  pz                 9     -0.154600  1 O  pz         

 Vector   14  Occ=0.000000D+00  E= 1.529679D+00
              MO Center= -3.1D-02,  9.3D-02, -7.2D-16, r^2= 1.6D+00
   Bfn.  Coefficient  Atom+Function         Bfn.  Coefficient  Atom+Function  
  ----- ------------  ---------------      ----- ------------  ---------------
     3      0.752765  1 O  s                  2     -0.674298  1 O  s          
    17      0.616898  2 H  px                23      0.545088  3 H  py         
     7     -0.536285  1 O  px                 8     -0.344472  1 O  py         
     1     -0.273565  1 O  s                 22      0.263277  3 H  px         
    21     -0.239529  3 H  s                  4      0.236911  1 O  px         

 Vector   15  Occ=0.000000D+00  E= 1.674090D+00
              MO Center=  2.4D-01,  2.0D-01,  4.8D-16, r^2= 1.5D+00
   Bfn.  Coefficient  Atom+Function         Bfn.  Coefficient  Atom+Function  
  ----- ------------  ---------------      ----- ------------  ---------------
    24      0.791094  3 H  pz                19      0.691759  2 H  pz         
     9     -0.666238  1 O  pz                 6      0.174556  1 O  pz         


 center of mass
 --------------
 x =  -0.07599894 y =  -0.07698131 z =   0.00000000

 moments of inertia (a.u.)
 ------------------
           6.039760782277           1.298063797880           0.000000000000
           1.298063797880           2.833002082974           0.000000000000
           0.000000000000           0.000000000000           8.872762865251

  Mulliken analysis of the total density
  --------------------------------------

    Atom       Charge   Shell Charges
 -----------   ------   -------------------------------------------------------
    1 O    8     8.44   2.00  0.85  0.93  2.72  1.94  0.01
    2 H    1     0.74   0.51  0.20  0.04
    3 H    1     0.81   0.67  0.07  0.08

       Multipole analysis of the density wrt the origin
       ------------------------------------------------

     L   x y z        total         open         nuclear
     -   - - -        -----         ----         -------
     0   0 0 0     -0.000000      0.000000     10.000000

     1   1 0 0      0.630328      0.000000     -0.000000
     1   0 1 0      0.515565      0.000000      0.000000
     1   0 0 1     -0.000000      0.000000      0.000000

     2   2 0 0     -4.167882      0.000000      2.679864
     2   1 1 0     -0.833404      0.000000     -1.420823
     2   1 0 1      0.000000      0.000000      0.000000
     2   0 2 0     -2.896088      0.000000      5.858312
     2   0 1 1     -0.000000      0.000000      0.000000
     2   0 0 2     -5.493856      0.000000      0.000000


 Parallel integral file used       1 records with       0 large values

                   NWChem Extensible Many-Electron Theory Module
                   ---------------------------------------------

              ======================================================
                   This portion of the program was automatically
                  generated by a Tensor Contraction Engine (TCE).
                  The development of this portion of the program
                 and TCE was supported by US Department of Energy,
                Office of Science, Office of Basic Energy Science.
                      TCE is a product of Battelle and PNNL.
              Please cite: S.Hirata, J.Phys.Chem.A 107, 9887 (2003).
              ======================================================

                                        H2O


            General Information
            -------------------
      Number of processors :     1
         Wavefunction type : Restricted Hartree-Fock
          No. of electrons :    10
           Alpha electrons :     5
            Beta electrons :     5
           No. of orbitals :    48
            Alpha orbitals :    24
             Beta orbitals :    24
        Alpha frozen cores :     0
         Beta frozen cores :     0
     Alpha frozen virtuals :     0
      Beta frozen virtuals :     0
         Spin multiplicity : singlet 
    Number of AO functions :    24
       Number of AO shells :    12
        Use of symmetry is : off
      Symmetry adaption is : off
         Schwarz screening : 0.10D-09

          Correlation Information
          -----------------------
          Calculation type : Coupled-cluster singles & doubles                           
   Perturbative correction : none                                                        
            Max iterations :      300
        Residual threshold : 0.10D-06
     T(0) DIIS level shift : 0.00D+00
     L(0) DIIS level shift : 0.00D+00
     T(1) DIIS level shift : 0.00D+00
     L(1) DIIS level shift : 0.00D+00
     T(R) DIIS level shift : 0.00D+00
     T(I) DIIS level shift : 0.00D+00
   CC-T/L Amplitude update :  5-th order DIIS
                I/O scheme : Global Array Library
        L-threshold :  0.10D-06
        EOM-threshold :  0.10D-06
 no EOMCCSD initial starts read in
 TCE RESTART OPTIONS
 READ_INT:   F
 WRITE_INT:  F
 READ_TA:    F
 WRITE_TA:   F
 READ_XA:    F
 WRITE_XA:   F
 READ_IN3:   F
 WRITE_IN3:  F
 SLICE:      F
 D4D5:       F
 quantumc:   F
 qrotation:  F
 pwtce:      F
 qducc:      T
 nacto:                         0
 nrotv:                         0
 nrot:                          0

            Memory Information
            ------------------
          Available GA space size is    1610612160 doubles
          Available MA space size is    1610610956 doubles

 Maximum block size        32 doubles

 tile_dim =     19

 Block   Spin    Irrep     Size     Offset   Alpha
 -------------------------------------------------
   1    alpha     a      5 doubles       0       1
   2    beta      a      5 doubles       5       1
   3    alpha     a     19 doubles      10       3
   4    beta      a     19 doubles      29       3

 Global array virtual files algorithm will be used

 Parallel file system coherency ......... OK

 #quartets = 3.081D+03 #integrals = 2.131D+04 #direct =  0.0% #cached =100.0%


 Integral file          = ./H2O.aoints.0
 Record size in doubles =  65536        No. of integs per rec  =  43688
 Max. records in memory =      4        Max. records in file   = 232240
 No. of bits per label  =      8        No. of bits per value  =     64


 Fock matrix recomputed
 1-e file size   =              576
 1-e file name   = ./H2O.f1
 Cpu & wall time / sec            0.0            0.0
 4-electron integrals stored in orbital form

 v2    file size   =           185666
 4-index algorithm nr.  13 is used
 imaxsize =       30
 imaxsize ichop =        0
 Cpu & wall time / sec            0.1            0.1
 T1-number-of-tasks                    1

 t1 file size   =               95
 t1 file name   = ./H2O.t1
 t1 file handle =       -998
 T2-number-of-boxes                    2

 t2 file size   =            18050
 t2 file name   = ./H2O.t2
 t2 file handle =       -996
CCSD iterations
 ---------------------------------------------------------
 Iter          Residuum       Correlation     Cpu    Wall 
 ---------------------------------------------------------
NEW TASK SCHEDULING
CCSD_T1_NTS --- OK
CCSD_T2_NTS --- OK
    1   0.1172128844357  -0.2147612556035     0.0     0.0
    2   0.0362850520653  -0.2191892356035     0.0     0.0
    3   0.0149645217453  -0.2232365140433     0.0     0.0
    4   0.0069418105512  -0.2243301609373     0.0     0.0
    5   0.0033885367746  -0.2248469793580     0.0     0.0
 MICROCYCLE DIIS UPDATE:                    5                    5
    6   0.0005825071589  -0.2252576237700     0.0     0.0
    7   0.0003720546688  -0.2252723022638     0.0     0.0
    8   0.0002057428898  -0.2252759782519     0.0     0.0
    9   0.0001370592945  -0.2252769712396     0.0     0.0
   10   0.0000864542201  -0.2252784494637     0.0     0.0
 MICROCYCLE DIIS UPDATE:                   10                    5
   11   0.0000068780332  -0.2252812004681     0.0     0.0
   12   0.0000023875523  -0.2252812328409     0.0     0.0
   13   0.0000011007315  -0.2252813613386     0.0     0.0
   14   0.0000005501054  -0.2252813891022     0.0     0.0
   15   0.0000002862755  -0.2252814018072     0.0     0.0
 MICROCYCLE DIIS UPDATE:                   15                    5
   16   0.0000000608738  -0.2252814080708     0.0     0.0
 -----------------------------------------------------------------
 Iterations converged
 CCSD correlation energy / hartree =        -0.225281408070840
 CCSD total energy / hartree       =       -76.188718939127483

 Singles contributions

 Doubles contributions
     6a   (alpha)     6a   (beta ) ---     2a   (alpha)     4a   (beta )       -0.0202947286
     6a   (alpha)     6a   (beta ) ---     3a   (alpha)     3a   (beta )       -0.0302005432
     6a   (alpha)     6a   (beta ) ---     3a   (alpha)     4a   (beta )        0.0323500301
     6a   (alpha)     6a   (beta ) ---     4a   (alpha)     2a   (beta )       -0.0202947286
     6a   (alpha)     6a   (beta ) ---     4a   (alpha)     3a   (beta )        0.0323500301
     6a   (alpha)     6a   (beta ) ---     4a   (alpha)     4a   (beta )       -0.0699980024
     6a   (alpha)     7a   (beta ) ---     4a   (alpha)     3a   (beta )       -0.0252569861
     6a   (alpha)     8a   (beta ) ---     3a   (alpha)     4a   (beta )        0.0204421420
     6a   (alpha)     8a   (beta ) ---     4a   (alpha)     3a   (beta )        0.0218611127
     6a   (alpha)     8a   (beta ) ---     4a   (alpha)     4a   (beta )       -0.0364257151
     7a   (alpha)     6a   (beta ) ---     3a   (alpha)     4a   (beta )       -0.0252569861
     7a   (alpha)     7a   (beta ) ---     3a   (alpha)     3a   (beta )       -0.0336430685
     7a   (alpha)     9a   (beta ) ---     3a   (alpha)     3a   (beta )       -0.0231390304
     8a   (alpha)     6a   (beta ) ---     3a   (alpha)     4a   (beta )        0.0218611127
     8a   (alpha)     6a   (beta ) ---     4a   (alpha)     3a   (beta )        0.0204421420
     8a   (alpha)     6a   (beta ) ---     4a   (alpha)     4a   (beta )       -0.0364257151
     8a   (alpha)     8a   (beta ) ---     3a   (alpha)     4a   (beta )        0.0218510259
     8a   (alpha)     8a   (beta ) ---     4a   (alpha)     3a   (beta )        0.0218510259
     8a   (alpha)     8a   (beta ) ---     4a   (alpha)     4a   (beta )       -0.0322632829
     9a   (alpha)     7a   (beta ) ---     3a   (alpha)     3a   (beta )       -0.0231390304
     9a   (alpha)     9a   (beta ) ---     3a   (alpha)     3a   (beta )       -0.0407912365
    10a   (alpha)    10a   (beta ) ---     4a   (alpha)     4a   (beta )       -0.0246407745
    10a   (alpha)    11a   (beta ) ---     4a   (alpha)     5a   (beta )        0.0215653608
    11a   (alpha)    10a   (beta ) ---     5a   (alpha)     4a   (beta )        0.0215653608
    11a   (alpha)    11a   (beta ) ---     5a   (alpha)     5a   (beta )       -0.0482991152
 Ground state specification:
 exp(T)|Ref>~(1+T)|Ref>
 ------- a(p)+/a(q) strings ----------

 singles norm

 doubles norm

 Reference string
   1.0000000000000000      :(1a)+ (2a)+ (3a)+ (4a)+ (5a)+ (1b)+ (2b)+ (3b)+ (4b)+ (5b)+ |0>

 Singles strings

 Doubles strings
 -------------------------------------
 enrep_tce =    7.9636236714981203     
  EHF(total)         =       -75.96343753
  Shift (HFtot-HFA)  =         0.00000000
 ALL OCCUPIED ORBITALS ARE ACTIVE IN DUCC --> NO SHIFT
 Number of active orbitals                    8
 Number of active alpha electrons                    5
 Number of active beta electrons                    5
  nos                    10
  nvs                    38
 noas                     5
 nobs                     5
 nvas                    19
 nvbs                    19
 nactv                     3
 DUCC MODEL =                     6
 NONHF =  T
 F-T1 correlation    =   -1.4230345230260138E-008
 V-T1-T1 correlation =    4.2805482977818269E-005
 V-T2 correlation    =  -0.22532419932344355     
 Total correlation   =  -0.22528140807081096     
 F-T1(Ext) correlation         =    5.9924902576811470E-009
 V-T1(Ext)-T1(Ext) correlation =    2.0285132297421414E-005
 V-T2(Ext) correlation         =  -0.19395914928295169     
 Total Ext correlation         =  -0.19393885815816400     
1-BODY TIME =    1.909 SECONDS.
  HHHH TIME =    2.170 SECONDS.
  PPPP TIME =    0.029 SECONDS.
  HHHP TIME =    0.606 SECONDS.
  PPPH TIME =    0.096 SECONDS.
  HPHP TIME =    0.364 SECONDS.
  HHPP TIME =    0.328 SECONDS.
 ONE-BODY UNITARY CHECK
 TWO-BODY UNITARY CHECK
                    2                    7                    3                    9   1.3502358953143556E-012
                    2                    7                    4                    7   1.5180322276986402E-012
                    2                    7                    4                    9  -2.0288909441390501E-012
                    2                    7                    8                    4  -1.6318595780218104E-012
                    2                    7                    9                    2  -1.2080319383711569E-012
                    2                    7                    9                    4   2.0288909441390501E-012
                    2                    8                    4                    8   1.4837376119403167E-012
                    2                    9                    4                    7  -1.1526196663780297E-012
                    2                    9                    4                    9   2.9560659475791340E-012
                    2                    9                    8                    2  -1.4155343563970746E-012
                    2                    9                    9                    2   1.7301715615758440E-012
                    2                    9                    9                    4  -2.8928803796901548E-012
                    2                   10                    4                   10   1.7928228346342223E-012
                    2                   10                   10                    4  -1.4830636718698997E-012
                    3                    3                    3                    4   1.1901543826550919E-012
                    3                    3                    4                    3  -1.1901499744838762E-012
                    3                    4                    3                    3  -1.1901543826550919E-012
                    3                    5                    5                    3  -1.2867484855405564E-012
                    3                    5                    5                    4   1.6038489980552129E-012
                    3                    7                    4                    9   1.0794629079491358E-012
                    3                    7                    7                    4   1.4156037453361137E-012
                    3                    7                    9                    4  -1.1565054469642178E-012
                    3                    8                    4                    7   1.4251586022417939E-012
                    3                    8                    4                    9  -1.3893677874854404E-012
                    3                    8                    9                    2  -1.5218104554293177E-012
                    3                    8                    9                    3  -1.0417951223917754E-012
                    3                    8                    9                    4   1.3893677874854404E-012
                    3                    9                    2                    7  -1.3502358953143556E-012
                    3                    9                    4                    9  -3.0663076244774601E-012
                    3                    9                    5                   10  -1.1745925412864899E-012
                    3                    9                    7                    2   1.6318829967887361E-012
                    3                    9                    9                    4   3.6227479349726366E-012
                    3                    9                   10                    5   1.2524712170169927E-012
                    3                   10                    4                   10  -1.1062539773121216E-012
                    3                   10                   10                    3  -1.9397816686250735E-012
                    3                   10                   10                    4   2.5767998845793727E-012
                    4                    3                    3                    3   1.1901499744838762E-012
                    4                    5                    5                    4  -2.2837287616539470E-012
                    4                    7                    2                    7  -1.5180322276986402E-012
                    4                    7                    2                    9   1.1526196663780297E-012
                    4                    7                    3                    8  -1.4251586022417939E-012
                    4                    7                    7                    2   1.2080510203293926E-012
                    4                    7                    7                    4  -1.7301715615758440E-012
                    4                    7                    8                    3   1.5217879040241300E-012
                    4                    8                    2                    8  -1.4837376119403167E-012
                    4                    8                    8                    3   1.0418228779673910E-012
                    4                    9                    2                    7   2.0288909441390501E-012
                    4                    9                    2                    9  -2.9560659475791340E-012
                    4                    9                    3                    7  -1.0794629079491358E-012
                    4                    9                    3                    8   1.3893677874854404E-012
                    4                    9                    3                    9   3.0663076244774601E-012
                    4                    9                    5                   10   1.8700319071029980E-012
                    4                    9                    7                    2  -2.0288909441390501E-012
                    4                    9                    7                    4   2.8929081352657704E-012
                    4                    9                    8                    2   1.1566164692666803E-012
                    4                    9                    8                    3  -1.3893677874854404E-012
                    4                    9                    8                    4  -3.6227479349726366E-012
                    4                    9                   10                    5  -1.8700284376560461E-012
                    4                   10                    2                   10  -1.7928228346342223E-012
                    4                   10                    3                   10   1.1062539773121216E-012
                    4                   10                    5                    9   1.2703935126090471E-012
                    4                   10                   10                    3   1.0593054211582853E-012
                    4                   10                   10                    4  -3.5542679910349761E-012
                    5                    3                    3                    5   1.2867484855405564E-012
                    5                    4                    3                    5  -1.6038489980552129E-012
                    5                    4                    4                    5   2.2837287616539470E-012
                    5                    8                    8                    5   1.9397816686250735E-012
                    5                    8                    9                    5  -1.0593123600521892E-012
                    5                    9                    4                   10  -1.2703935126090471E-012
                    5                    9                    7                    5   1.4831053052333232E-012
                    5                    9                    8                    5  -2.5768068234732766E-012
                    5                    9                    9                    5   3.5542679910349761E-012
                    5                   10                    3                    9   1.1745925412864899E-012
                    5                   10                    4                    9  -1.8700319071029980E-012
                    5                   10                    8                    4  -1.2524772885491586E-012
                    5                   10                    9                    4   1.8700319071029980E-012
                    7                    2                    3                    9  -1.6318829967887361E-012
                    7                    2                    4                    7  -1.2080510203293926E-012
                    7                    2                    4                    9   2.0288909441390501E-012
                    7                    2                    8                    4   1.3502220175265478E-012
                    7                    2                    9                    2   1.5180131457404045E-012
                    7                    2                    9                    4  -2.0288909441390501E-012
                    7                    3                    9                    3   1.4837419487490067E-012
                    7                    4                    3                    7  -1.4156037453361137E-012
                    7                    4                    4                    7   1.7301715615758440E-012
                    7                    4                    4                    9  -2.8929081352657704E-012
                    7                    4                    9                    2  -1.1526612997414531E-012
                    7                    4                    9                    4   2.9560937031547496E-012
                    7                    5                    5                    9  -1.4831053052333232E-012
                    7                    5                    9                    5   1.7928644679976458E-012
                    8                    2                    2                    9   1.4155343563970746E-012
                    8                    2                    4                    9  -1.1566164692666803E-012
                    8                    2                    9                    4   1.0795392357820788E-012
                    8                    3                    4                    7  -1.5217879040241300E-012
                    8                    3                    4                    8  -1.0418228779673910E-012
                    8                    3                    4                    9   1.3893677874854404E-012
                    8                    3                    9                    2   1.4251794189235056E-012
                    8                    3                    9                    4  -1.3893677874854404E-012
                    8                    4                    2                    7   1.6318595780218104E-012
                    8                    4                    4                    9   3.6227479349726366E-012
                    8                    4                    5                   10   1.2524772885491586E-012
                    8                    4                    7                    2  -1.3502220175265478E-012
                    8                    4                    9                    4  -3.0663076244774601E-012
                    8                    4                   10                    5  -1.1746003475421318E-012
                    8                    5                    5                    8  -1.9397816686250735E-012
                    8                    5                    5                    9   2.5768068234732766E-012
                    8                    5                    9                    5  -1.1062470384182177E-012
                    8                    8                    8                    9   1.1901541249620681E-012
                    8                    8                    9                    8  -1.1901508959136545E-012
                    8                    9                    8                    8  -1.1901541249620681E-012
                    8                   10                   10                    8  -1.2867484855405564E-012
                    8                   10                   10                    9   1.6038489980552129E-012
                    9                    2                    2                    7   1.2080319383711569E-012
                    9                    2                    2                    9  -1.7301715615758440E-012
                    9                    2                    3                    8   1.5218104554293177E-012
                    9                    2                    7                    2  -1.5180131457404045E-012
                    9                    2                    7                    4   1.1526612997414531E-012
                    9                    2                    8                    3  -1.4251794189235056E-012
                    9                    3                    3                    8   1.0417951223917754E-012
                    9                    3                    7                    3  -1.4837419487490067E-012
                    9                    4                    2                    7  -2.0288909441390501E-012
                    9                    4                    2                    9   2.8928803796901548E-012
                    9                    4                    3                    7   1.1565054469642178E-012
                    9                    4                    3                    8  -1.3893677874854404E-012
                    9                    4                    3                    9  -3.6227479349726366E-012
                    9                    4                    5                   10  -1.8700319071029980E-012
                    9                    4                    7                    2   2.0288909441390501E-012
                    9                    4                    7                    4  -2.9560937031547496E-012
                    9                    4                    8                    2  -1.0795392357820788E-012
                    9                    4                    8                    3   1.3893677874854404E-012
                    9                    4                    8                    4   3.0663076244774601E-012
                    9                    4                   10                    5   1.8700284376560461E-012
                    9                    5                    5                    8   1.0593123600521892E-012
                    9                    5                    5                    9  -3.5542679910349761E-012
                    9                    5                    7                    5  -1.7928644679976458E-012
                    9                    5                    8                    5   1.1062470384182177E-012
                    9                    5                   10                    4   1.2703657570334315E-012
                    9                    8                    8                    8   1.1901508959136545E-012
                    9                   10                   10                    9  -2.2837287616539470E-012
                   10                    3                    3                   10   1.9397816686250735E-012
                   10                    3                    4                   10  -1.0593054211582853E-012
                   10                    4                    2                   10   1.4830636718698997E-012
                   10                    4                    3                   10  -2.5767998845793727E-012
                   10                    4                    4                   10   3.5542679910349761E-012
                   10                    4                    9                    5  -1.2703657570334315E-012
                   10                    5                    3                    9  -1.2524712170169927E-012
                   10                    5                    4                    9   1.8700284376560461E-012
                   10                    5                    8                    4   1.1746003475421318E-012
                   10                    5                    9                    4  -1.8700284376560461E-012
                   10                    8                    8                   10   1.2867484855405564E-012
                   10                    9                    8                   10  -1.6038489980552129E-012
                   10                    9                    9                   10   2.2837287616539470E-012
 TWO-BODY ANTISYMMETRY CHECK
 TRANSFORMED ~FOCK~ MATRIX
    1    1       -20.5559799100
    1    2        -0.0033347211
    1    3         0.0010253345
    1    4         0.0019884184
    1    6         0.0010820560
    1    7         0.0006494415
    1    8         0.0002281183
    2    1        -0.0033347211
    2    2        -1.3085207906
    2    3        -0.0038598431
    2    4        -0.0020519827
    2    6         0.0008448821
    2    7         0.0000537604
    2    8         0.0014222758
    3    1         0.0010253345
    3    2        -0.0038598431
    3    3        -0.6901841903
    3    4        -0.0034480143
    3    6        -0.0043957506
    3    7         0.0029998143
    3    8        -0.0035464350
    4    1         0.0019884184
    4    2        -0.0020519827
    4    3        -0.0034480143
    4    4        -0.5640178238
    4    6         0.0039259422
    4    7        -0.0034278660
    4    8         0.0039530460
    5    5        -0.5318791294
    6    1         0.0010820560
    6    2         0.0008448821
    6    3        -0.0043957506
    6    4         0.0039259422
    6    6         0.1450245544
    6    7        -0.0013902545
    6    8         0.0055377714
    7    1         0.0006494415
    7    2         0.0000537604
    7    3         0.0029998143
    7    4        -0.0034278660
    7    6        -0.0013902545
    7    7         0.2443541013
    7    8        -0.0020826474
    8    1         0.0002281183
    8    2         0.0014222758
    8    3        -0.0035464350
    8    4         0.0039530460
    8    6         0.0055377714
    8    7        -0.0020826474
    8    8         0.6543442962
 begin_one_electron_integrals
    1    1       -32.8798371696
    1    2         0.5849070240
    1    3        -0.0922904274
    1    4        -0.1357406224
    1    6        -0.1631573777
    1    7        -0.0743750302
    1    8        -0.0649435557
    2    1         0.5849070240
    2    2        -7.7208053459
    2    3         0.0581190384
    2    4         0.3098999036
    2    6         0.7495766524
    2    7         0.4163671463
    2    8         0.2114429486
    3    1        -0.0922904274
    3    2         0.0581190384
    3    3        -6.4396769436
    3    4        -0.3123500209
    3    6        -0.4914993715
    3    7         0.9986258941
    3    8        -0.2220162413
    4    1        -0.1357406224
    4    2         0.3098999036
    4    3        -0.3123500209
    4    4        -6.4472305398
    4    6         0.9459194931
    4    7        -0.2158558671
    4    8         0.3808520080
    5    5        -7.0021117730
    6    1        -0.1631573777
    6    2         0.7495766524
    6    3        -0.4914993715
    6    4         0.9459194931
    6    6        -3.8521264635
    6    7         0.1785481397
    6    8        -1.0377538347
    7    1        -0.0743750302
    7    2         0.4163671463
    7    3         0.9986258941
    7    4        -0.2158558671
    7    6         0.1785481397
    7    7        -3.3132365717
    7    8         0.5040805865
    8    1        -0.0649435557
    8    2         0.2114429486
    8    3        -0.2220162413
    8    4         0.3808520080
    8    6        -1.0377538347
    8    7         0.5040805865
    8    8        -3.1950134127
 end_one_electron_integrals
 begin_two_electron_integrals
    1    1    1    1        4.7398353705
    1    1    1    2       -0.4373044111
    1    1    1    3        0.0685830688
    1    1    1    4        0.1057870104
    1    1    1    6        0.1306896851
    1    1    1    7        0.0615699849
    1    1    1    8        0.0515047590
    1    2    1    1       -0.4373044111
    1    2    1    2        0.0634243587
    1    2    1    3       -0.0081150847
    1    2    1    4       -0.0138789229
    1    2    1    6       -0.0204961038
    1    2    1    7       -0.0106446577
    1    2    1    8       -0.0079305600
    1    3    1    1        0.0685830688
    1    3    1    2       -0.0081150847
    1    3    1    3        0.0181038242
    1    3    1    4        0.0043479833
    1    3    1    6        0.0060977951
    1    3    1    7       -0.0093212221
    1    3    1    8        0.0053305103
    1    4    1    1        0.1057870104
    1    4    1    2       -0.0138789229
    1    4    1    3        0.0043479833
    1    4    1    4        0.0231135486
    1    4    1    6       -0.0060509414
    1    4    1    7        0.0030064309
    1    4    1    8       -0.0059196456
    1    5    1    5        0.0275054139
    1    6    1    1        0.1306896851
    1    6    1    2       -0.0204961038
    1    6    1    3        0.0060977951
    1    6    1    4       -0.0060509414
    1    6    1    6        0.0130400822
    1    6    1    7        0.0000323261
    1    6    1    8        0.0077587042
    1    7    1    1        0.0615699849
    1    7    1    2       -0.0106446577
    1    7    1    3       -0.0093212221
    1    7    1    4        0.0030064309
    1    7    1    6        0.0000323261
    1    7    1    7        0.0080675422
    1    7    1    8       -0.0021350715
    1    8    1    1        0.0515047590
    1    8    1    2       -0.0079305600
    1    8    1    3        0.0053305103
    1    8    1    4       -0.0059196456
    1    8    1    6        0.0077587042
    1    8    1    7       -0.0021350715
    1    8    1    8        0.0053036395
    1    1    2    1       -0.4373044111
    1    1    2    2        1.0549109222
    1    1    2    3       -0.0314106836
    1    1    2    4       -0.0921782498
    1    1    2    6       -0.1551267870
    1    1    2    7       -0.0873160366
    1    1    2    8       -0.0522333109
    1    2    2    1        0.0657195147
    1    2    2    2       -0.0159936196
    1    2    2    3        0.0043852760
    1    2    2    4        0.0054426324
    1    2    2    6        0.0031922399
    1    2    2    7        0.0008829557
    1    2    2    8        0.0014626249
    1    3    2    1       -0.0079085468
    1    3    2    2        0.0086194491
    1    3    2    3        0.0206375128
    1    3    2    4        0.0011283983
    1    3    2    6        0.0019158934
    1    3    2    7       -0.0102684882
    1    3    2    8        0.0025119004
    1    4    2    1       -0.0137808557
    1    4    2    2        0.0090575994
    1    4    2    3        0.0016318721
    1    4    2    4        0.0207624745
    1    4    2    6       -0.0116437700
    1    4    2    7        0.0001200461
    1    4    2    8       -0.0064974470
    1    5    2    5        0.0294053290
    1    6    2    1       -0.0217025200
    1    6    2    2        0.0028028511
    1    6    2    3        0.0033038837
    1    6    2    4       -0.0127489892
    1    6    2    6        0.0058596363
    1    6    2    7       -0.0032146142
    1    6    2    8        0.0038303062
    1    7    2    1       -0.0113131278
    1    7    2    2       -0.0011350255
    1    7    2    3       -0.0126887280
    1    7    2    4        0.0007017150
    1    7    2    6       -0.0030204623
    1    7    2    7        0.0059839909
    1    7    2    8       -0.0025479464
    1    8    2    1       -0.0082651113
    1    8    2    2        0.0013007732
    1    8    2    3        0.0045055878
    1    8    2    4       -0.0085025421
    1    8    2    6        0.0046048251
    1    8    2    7       -0.0031037529
    1    8    2    8        0.0031612197
    1    1    3    1        0.0685830688
    1    1    3    2       -0.0314106836
    1    1    3    3        0.8621231308
    1    1    3    4        0.0723590529
    1    1    3    6        0.0918003258
    1    1    3    7       -0.1876328065
    1    1    3    8        0.0616076396
    1    2    3    1       -0.0079085468
    1    2    3    2        0.0045753007
    1    2    3    3       -0.0081920653
    1    2    3    4       -0.0022726449
    1    2    3    6       -0.0016740771
    1    2    3    7        0.0014501096
    1    2    3    8       -0.0016485121
    1    3    3    1        0.0208405325
    1    3    3    2        0.0216036048
    1    3    3    3       -0.0017407769
    1    3    3    4       -0.0023978962
    1    3    3    6       -0.0039013486
    1    3    3    7       -0.0003947477
    1    3    3    8       -0.0011470910
    1    4    3    1        0.0046435018
    1    4    3    2        0.0017061037
    1    4    3    3        0.0042679447
    1    4    3    4       -0.0043588705
    1    4    3    6        0.0009038281
    1    4    3    7       -0.0004236344
    1    4    3    8       -0.0014694671
    1    5    3    5       -0.0045748668
    1    6    3    1        0.0065952433
    1    6    3    2        0.0032955425
    1    6    3    3       -0.0001322738
    1    6    3    4        0.0023885907
    1    6    3    6       -0.0011273304
    1    6    3    7       -0.0000792064
    1    6    3    8        0.0008679569
    1    7    3    1       -0.0104898698
    1    7    3    2       -0.0129799201
    1    7    3    3        0.0031812822
    1    7    3    4        0.0015168401
    1    7    3    6        0.0029095695
    1    7    3    7        0.0002091831
    1    7    3    8        0.0009014373
    1    8    3    1        0.0057374016
    1    8    3    2        0.0045686469
    1    8    3    3       -0.0009365235
    1    8    3    4        0.0009788077
    1    8    3    6       -0.0011594911
    1    8    3    7       -0.0001326655
    1    8    3    8        0.0003974461
    1    1    4    1        0.1057870104
    1    1    4    2       -0.0921782498
    1    1    4    3        0.0723590529
    1    1    4    4        0.9069535502
    1    1    4    6       -0.1746641100
    1    1    4    7        0.0394057882
    1    1    4    8       -0.0944336040
    1    2    4    1       -0.0137808557
    1    2    4    2        0.0056291270
    1    2    4    3       -0.0022544020
    1    2    4    4       -0.0106326792
    1    2    4    6        0.0006159979
    1    2    4    7       -0.0006080164
    1    2    4    8        0.0012872395
    1    3    4    1        0.0046435018
    1    3    4    2        0.0012301207
    1    3    4    3       -0.0020954013
    1    3    4    4       -0.0000810155
    1    3    4    6       -0.0021845978
    1    3    4    7        0.0028747851
    1    3    4    8       -0.0037912327
    1    4    4    1        0.0256247049
    1    4    4    2        0.0215847728
    1    4    4    3       -0.0045105206
    1    4    4    4       -0.0054106272
    1    4    4    6       -0.0023348982
    1    4    4    7       -0.0024326243
    1    4    4    8        0.0003411758
    1    5    4    5       -0.0066892209
    1    6    4    1       -0.0071462803
    1    6    4    2       -0.0129633648
    1    6    4    3        0.0024189218
    1    6    4    4        0.0064267600
    1    6    4    6        0.0008876745
    1    6    4    7        0.0024191012
    1    6    4    8       -0.0014875155
    1    7    4    1        0.0032401860
    1    7    4    2        0.0006644589
    1    7    4    3        0.0014823155
    1    7    4    4        0.0011682916
    1    7    4    6        0.0010943334
    1    7    4    7       -0.0018807895
    1    7    4    8        0.0020244271
    1    8    4    1       -0.0065696630
    1    8    4    2       -0.0086076216
    1    8    4    3        0.0010009113
    1    8    4    4        0.0038127233
    1    8    4    6        0.0002454383
    1    8    4    7        0.0020410064
    1    8    4    8       -0.0013260237
    1    1    5    5        1.0392438648
    1    2    5    5       -0.0120814151
    1    3    5    5        0.0022766421
    1    4    5    5        0.0033673275
    1    5    5    1        0.0302562947
    1    5    5    2        0.0299430177
    1    5    5    3       -0.0047180742
    1    5    5    4       -0.0070116505
    1    5    5    6       -0.0074946436
    1    5    5    7       -0.0029932203
    1    5    5    8       -0.0045254210
    1    6    5    5        0.0024082117
    1    7    5    5        0.0010438767
    1    8    5    5        0.0007221288
    1    1    6    1        0.1306896851
    1    1    6    2       -0.1551267870
    1    1    6    3        0.0918003258
    1    1    6    4       -0.1746641100
    1    1    6    6        0.4948282671
    1    1    6    7       -0.0354964159
    1    1    6    8        0.1648113209
    1    2    6    1       -0.0217025200
    1    2    6    2        0.0021192368
    1    2    6    3       -0.0012733413
    1    2    6    4       -0.0000657839
    1    2    6    6       -0.0035174440
    1    2    6    7        0.0008570509
    1    2    6    8       -0.0022964179
    1    3    6    1        0.0065952433
    1    3    6    2        0.0020025375
    1    3    6    3       -0.0037878058
    1    3    6    4       -0.0020033843
    1    3    6    6       -0.0014206753
    1    3    6    7        0.0034716242
    1    3    6    8       -0.0001987886
    1    4    6    1       -0.0071462803
    1    4    6    2       -0.0116948062
    1    4    6    3        0.0009695863
    1    4    6    4       -0.0019534301
    1    4    6    6        0.0079685321
    1    4    6    7        0.0009462598
    1    4    6    8        0.0034473830
    1    5    6    5       -0.0070061488
    1    6    6    1        0.0127186674
    1    6    6    2        0.0050931386
    1    6    6    3       -0.0008694503
    1    6    6    4        0.0003199714
    1    6    6    6       -0.0030662117
    1    6    6    7        0.0001395934
    1    6    6    8       -0.0009633690
    1    7    6    1        0.0000492787
    1    7    6    2       -0.0030412851
    1    7    6    3        0.0026275763
    1    7    6    4        0.0008324414
    1    7    6    6        0.0021979216
    1    7    6    7       -0.0018254127
    1    7    6    8        0.0008645092
    1    8    6    1        0.0075301293
    1    8    6    2        0.0042492086
    1    8    6    3       -0.0010033643
    1    8    6    4        0.0000293800
    1    8    6    6       -0.0025704341
    1    8    6    7        0.0003487087
    1    8    6    8       -0.0008522846
    1    1    7    1        0.0615699849
    1    1    7    2       -0.0873160366
    1    1    7    3       -0.1876328065
    1    1    7    4        0.0394057882
    1    1    7    6       -0.0354964159
    1    1    7    7        0.4249849938
    1    1    7    8       -0.0775898336
    1    2    7    1       -0.0113131278
    1    2    7    2        0.0003070434
    1    2    7    3        0.0005044015
    1    2    7    4       -0.0004965189
    1    2    7    6        0.0008588057
    1    2    7    7       -0.0021128898
    1    2    7    8        0.0010879607
    1    3    7    1       -0.0104898698
    1    3    7    2       -0.0106727242
    1    3    7    3       -0.0002953022
    1    3    7    4        0.0028675989
    1    3    7    6        0.0034811798
    1    3    7    7        0.0045480284
    1    3    7    8        0.0004908966
    1    4    7    1        0.0032401860
    1    4    7    2        0.0001136454
    1    4    7    3       -0.0003475795
    1    4    7    4       -0.0021704044
    1    4    7    6        0.0009429758
    1    4    7    7        0.0009656210
    1    4    7    8        0.0010427751
    1    5    7    5       -0.0027695296
    1    6    7    1        0.0000492787
    1    6    7    2       -0.0032149586
    1    6    7    3       -0.0005383486
    1    6    7    4        0.0022561102
    1    6    7    6        0.0001453710
    1    6    7    7        0.0014169282
    1    6    7    8       -0.0007467999
    1    7    7    1        0.0077368530
    1    7    7    2        0.0054899066
    1    7    7    3       -0.0001256937
    1    7    7    4       -0.0017805498
    1    7    7    6       -0.0018356332
    1    7    7    7       -0.0019317519
    1    7    7    8       -0.0003016598
    1    8    7    1       -0.0020540225
    1    8    7    2       -0.0030287790
    1    8    7    3       -0.0002814614
    1    8    7    4        0.0019420687
    1    8    7    6        0.0003541378
    1    8    7    7        0.0012211943
    1    8    7    8       -0.0004807249
    1    1    8    1        0.0515047590
    1    1    8    2       -0.0522333109
    1    1    8    3        0.0616076396
    1    1    8    4       -0.0944336040
    1    1    8    6        0.1648113209
    1    1    8    7       -0.0775898336
    1    1    8    8        0.4251156520
    1    2    8    1       -0.0082651113
    1    2    8    2        0.0011854058
    1    2    8    3       -0.0013615608
    1    2    8    4        0.0009933223
    1    2    8    6       -0.0022946443
    1    2    8    7        0.0010761614
    1    2    8    8       -0.0017019283
    1    3    8    1        0.0057374016
    1    3    8    2        0.0026153220
    1    3    8    3       -0.0010549410
    1    3    8    4       -0.0035562395
    1    3    8    6       -0.0002389904
    1    3    8    7        0.0004841471
    1    3    8    8       -0.0021054807
    1    4    8    1       -0.0065696630
    1    4    8    2       -0.0064627003
    1    4    8    3       -0.0012890041
    1    4    8    4        0.0004438029
    1    4    8    6        0.0034659104
    1    4    8    7        0.0009930095
    1    4    8    8        0.0045181018
    1    5    8    5       -0.0041688550
    1    6    8    1        0.0075301293
    1    6    8    2        0.0034274637
    1    6    8    3        0.0010065836
    1    6    8    4       -0.0016469929
    1    6    8    6       -0.0009805968
    1    6    8    7       -0.0007344450
    1    6    8    8       -0.0021409394
    1    7    8    1       -0.0020540225
    1    7    8    2       -0.0024454646
    1    7    8    3        0.0008089925
    1    7    8    4        0.0018708566
    1    7    8    6        0.0008792050
    1    7    8    7       -0.0003033740
    1    7    8    8        0.0017990865
    1    8    8    1        0.0051480964
    1    8    8    2        0.0029381549
    1    8    8    3        0.0004954188
    1    8    8    4       -0.0014031063
    1    8    8    6       -0.0008613431
    1    8    8    7       -0.0004743185
    1    8    8    8       -0.0017082290
    2    1    1    1       -0.4373044111
    2    1    1    2        0.0657195147
    2    1    1    3       -0.0079085468
    2    1    1    4       -0.0137808557
    2    1    1    6       -0.0217025200
    2    1    1    7       -0.0113131278
    2    1    1    8       -0.0082651113
    2    2    1    1        1.0549109222
    2    2    1    2       -0.0159936196
    2    2    1    3        0.0086194491
    2    2    1    4        0.0090575994
    2    2    1    6        0.0028028511
    2    2    1    7       -0.0011350255
    2    2    1    8        0.0013007732
    2    3    1    1       -0.0314106836
    2    3    1    2        0.0043852760
    2    3    1    3        0.0206375128
    2    3    1    4        0.0016318721
    2    3    1    6        0.0033038837
    2    3    1    7       -0.0126887280
    2    3    1    8        0.0045055878
    2    4    1    1       -0.0921782498
    2    4    1    2        0.0054426324
    2    4    1    3        0.0011283983
    2    4    1    4        0.0207624745
    2    4    1    6       -0.0127489892
    2    4    1    7        0.0007017150
    2    4    1    8       -0.0085025421
    2    5    1    5        0.0294053290
    2    6    1    1       -0.1551267870
    2    6    1    2        0.0031922399
    2    6    1    3        0.0019158934
    2    6    1    4       -0.0116437700
    2    6    1    6        0.0058596363
    2    6    1    7       -0.0030204623
    2    6    1    8        0.0046048251
    2    7    1    1       -0.0873160366
    2    7    1    2        0.0008829557
    2    7    1    3       -0.0102684882
    2    7    1    4        0.0001200461
    2    7    1    6       -0.0032146142
    2    7    1    7        0.0059839909
    2    7    1    8       -0.0031037529
    2    8    1    1       -0.0522333109
    2    8    1    2        0.0014626249
    2    8    1    3        0.0025119004
    2    8    1    4       -0.0064974470
    2    8    1    6        0.0038303062
    2    8    1    7       -0.0025479464
    2    8    1    8        0.0031612197
    2    1    2    1        0.0634243587
    2    1    2    2       -0.0159936196
    2    1    2    3        0.0045753007
    2    1    2    4        0.0056291270
    2    1    2    6        0.0021192368
    2    1    2    7        0.0003070434
    2    1    2    8        0.0011854058
    2    2    2    1       -0.0159936196
    2    2    2    2        0.7425169550
    2    2    2    3        0.0277658724
    2    2    2    4       -0.0134983818
    2    2    2    6       -0.0827570191
    2    2    2    7       -0.0538952778
    2    2    2    8       -0.0208948674
    2    3    2    1        0.0045753007
    2    3    2    2        0.0277658724
    2    3    2    3        0.1304062293
    2    3    2    4        0.0074708273
    2    3    2    6        0.0168230343
    2    3    2    7       -0.0380982699
    2    3    2    8        0.0068680448
    2    4    2    1        0.0056291270
    2    4    2    2       -0.0134983818
    2    4    2    3        0.0074708273
    2    4    2    4        0.1111302590
    2    4    2    6       -0.0332702194
    2    4    2    7        0.0100765541
    2    4    2    8       -0.0149648157
    2    5    2    5        0.1244573157
    2    6    2    1        0.0021192368
    2    6    2    2       -0.0827570191
    2    6    2    3        0.0168230343
    2    6    2    4       -0.0332702194
    2    6    2    6        0.0475993527
    2    6    2    7        0.0017684555
    2    6    2    8        0.0240066661
    2    7    2    1        0.0003070434
    2    7    2    2       -0.0538952778
    2    7    2    3       -0.0380982699
    2    7    2    4        0.0100765541
    2    7    2    6        0.0017684555
    2    7    2    7        0.0328150500
    2    7    2    8       -0.0064623891
    2    8    2    1        0.0011854058
    2    8    2    2       -0.0208948674
    2    8    2    3        0.0068680448
    2    8    2    4       -0.0149648157
    2    8    2    6        0.0240066661
    2    8    2    7       -0.0064623891
    2    8    2    8        0.0218869859
    2    1    3    1       -0.0081150847
    2    1    3    2        0.0043852760
    2    1    3    3       -0.0081920653
    2    1    3    4       -0.0022544020
    2    1    3    6       -0.0012733413
    2    1    3    7        0.0005044015
    2    1    3    8       -0.0013615608
    2    2    3    1        0.0086194491
    2    2    3    2        0.0277658724
    2    2    3    3        0.6486208151
    2    2    3    4        0.0326623284
    2    2    3    6        0.0528818720
    2    2    3    7       -0.1072598711
    2    2    3    8        0.0190698825
    2    3    3    1        0.0216036048
    2    3    3    2        0.1354421835
    2    3    3    3       -0.0027243506
    2    3    3    4        0.0099220291
    2    3    3    6       -0.0010414304
    2    3    3    7        0.0109994293
    2    3    3    8        0.0094739257
    2    4    3    1        0.0012301207
    2    4    3    2        0.0084126263
    2    4    3    3       -0.0053315905
    2    4    3    4       -0.0313975555
    2    4    3    6       -0.0108774257
    2    4    3    7        0.0187781346
    2    4    3    8       -0.0304335160
    2    5    3    5       -0.0156644592
    2    6    3    1        0.0020025375
    2    6    3    2        0.0160233336
    2    6    3    3       -0.0619025305
    2    6    3    4       -0.0034053473
    2    6    3    6       -0.0146819787
    2    6    3    7        0.0251731784
    2    6    3    8       -0.0048322210
    2    7    3    1       -0.0106727242
    2    7    3    2       -0.0374652406
    2    7    3    3       -0.0245966144
    2    7    3    4        0.0025128781
    2    7    3    6        0.0078809580
    2    7    3    7        0.0188027858
    2    7    3    8       -0.0002550247
    2    8    3    1        0.0026153220
    2    8    3    2        0.0067982981
    2    8    3    3       -0.0115646126
    2    8    3    4       -0.0140775138
    2    8    3    6       -0.0089602203
    2    8    3    7        0.0070910048
    2    8    3    8       -0.0128459411
    2    1    4    1       -0.0138789229
    2    1    4    2        0.0054426324
    2    1    4    3       -0.0022726449
    2    1    4    4       -0.0106326792
    2    1    4    6       -0.0000657839
    2    1    4    7       -0.0004965189
    2    1    4    8        0.0009933223
    2    2    4    1        0.0090575994
    2    2    4    2       -0.0134983818
    2    2    4    3        0.0326623284
    2    2    4    4        0.6425554243
    2    2    4    6       -0.1069314868
    2    2    4    7        0.0260103897
    2    2    4    8       -0.0417078593
    2    3    4    1        0.0017061037
    2    3    4    2        0.0084126263
    2    3    4    3        0.0109231724
    2    3    4    4       -0.0278806899
    2    3    4    6       -0.0135422568
    2    3    4    7        0.0183074742
    2    3    4    8       -0.0335007875
    2    4    4    1        0.0215847728
    2    4    4    2        0.1153613836
    2    4    4    3       -0.0313206005
    2    4    4    4       -0.0475531452
    2    4    4    6        0.0178638508
    2    4    4    7       -0.0135539800
    2    4    4    8        0.0255796946
    2    5    4    5       -0.0225136993
    2    6    4    1       -0.0116948062
    2    6    4    2       -0.0324336392
    2    6    4    3       -0.0035514832
    2    6    4    4       -0.0495762626
    2    6    4    6        0.0270509357
    2    6    4    7        0.0046615778
    2    6    4    8        0.0098800176
    2    7    4    1        0.0001136454
    2    7    4    2        0.0100560828
    2    7    4    3        0.0022787382
    2    7    4    4       -0.0365147902
    2    7    4    6        0.0148997383
    2    7    4    7       -0.0070578563
    2    7    4    8        0.0122789213
    2    8    4    1       -0.0064627003
    2    8    4    2       -0.0147392975
    2    8    4    3       -0.0141444411
    2    8    4    4       -0.0004805075
    2    8    4    6        0.0130376315
    2    8    4    7        0.0037988488
    2    8    4    8        0.0164338570
    2    1    5    5       -0.0120814151
    2    2    5    5        0.7114230863
    2    3    5    5       -0.0114880932
    2    4    5    5       -0.0415141012
    2    5    5    1        0.0299430177
    2    5    5    2        0.1287298139
    2    5    5    3       -0.0153093828
    2    5    5    4       -0.0232886971
    2    5    5    6       -0.0248049394
    2    5    5    7       -0.0088003440
    2    5    5    8       -0.0193202344
    2    6    5    5       -0.0812243151
    2    7    5    5       -0.0441156241
    2    8    5    5       -0.0265503344
    2    1    6    1       -0.0204961038
    2    1    6    2        0.0031922399
    2    1    6    3       -0.0016740771
    2    1    6    4        0.0006159979
    2    1    6    6       -0.0035174440
    2    1    6    7        0.0008588057
    2    1    6    8       -0.0022946443
    2    2    6    1        0.0028028511
    2    2    6    2       -0.0827570191
    2    2    6    3        0.0528818720
    2    2    6    4       -0.1069314868
    2    2    6    6        0.4052218699
    2    2    6    7       -0.0096228065
    2    2    6    8        0.1076208055
    2    3    6    1        0.0032955425
    2    3    6    2        0.0160233336
    2    3    6    3       -0.0003015663
    2    3    6    4       -0.0136802015
    2    3    6    6       -0.0258724722
    2    3    6    7        0.0360133791
    2    3    6    8       -0.0091136500
    2    4    6    1       -0.0129633648
    2    4    6    2       -0.0324336392
    2    4    6    3       -0.0109847765
    2    4    6    4        0.0186047663
    2    4    6    6        0.0327673739
    2    4    6    7        0.0010043137
    2    4    6    8        0.0106446051
    2    5    6    5       -0.0231861011
    2    6    6    1        0.0050931386
    2    6    6    2        0.0425621772
    2    6    6    3       -0.0137512854
    2    6    6    4        0.0252485910
    2    6    6    6       -0.0311072374
    2    6    6    7        0.0023691824
    2    6    6    8       -0.0145462283
    2    7    6    1       -0.0032149586
    2    7    6    2        0.0007686112
    2    7    6    3        0.0048718971
    2    7    6    4        0.0134271762
    2    7    6    6       -0.0115103534
    2    7    6    7        0.0029666497
    2    7    6    8       -0.0082460512
    2    8    6    1        0.0034274637
    2    8    6    2        0.0218104017
    2    8    6    3       -0.0089453426
    2    8    6    4        0.0133739884
    2    8    6    6       -0.0009264042
    2    8    6    7       -0.0050366490
    2    8    6    8        0.0078907498
    2    1    7    1       -0.0106446577
    2    1    7    2        0.0008829557
    2    1    7    3        0.0014501096
    2    1    7    4       -0.0006080164
    2    1    7    6        0.0008570509
    2    1    7    7       -0.0021128898
    2    1    7    8        0.0010761614
    2    2    7    1       -0.0011350255
    2    2    7    2       -0.0538952778
    2    2    7    3       -0.1072598711
    2    2    7    4        0.0260103897
    2    2    7    6       -0.0096228065
    2    2    7    7        0.3688745872
    2    2    7    8       -0.0496952440
    2    3    7    1       -0.0129799201
    2    3    7    2       -0.0374652406
    2    3    7    3        0.0101766568
    2    3    7    4        0.0179009635
    2    3    7    6        0.0359920289
    2    3    7    7        0.0393642357
    2    3    7    8        0.0078026678
    2    4    7    1        0.0006644589
    2    4    7    2        0.0100560828
    2    4    7    3        0.0180332305
    2    4    7    4       -0.0132577314
    2    4    7    6        0.0010029016
    2    4    7    7       -0.0001345515
    2    4    7    8        0.0046424814
    2    5    7    5       -0.0081669425
    2    6    7    1       -0.0030412851
    2    6    7    2        0.0007686112
    2    6    7    3        0.0235910195
    2    6    7    4        0.0023945337
    2    6    7    6        0.0025450470
    2    6    7    7       -0.0112183644
    2    6    7    8        0.0034702825
    2    7    7    1        0.0054899066
    2    7    7    2        0.0272294635
    2    7    7    3        0.0157634291
    2    7    7    4       -0.0062103666
    2    7    7    6        0.0027133105
    2    7    7    7       -0.0096001717
    2    7    7    8        0.0041232944
    2    8    7    1       -0.0024454646
    2    8    7    2       -0.0055407717
    2    8    7    3        0.0076165017
    2    8    7    4        0.0021135151
    2    8    7    6       -0.0048677849
    2    8    7    7        0.0001356777
    2    8    7    8       -0.0038820822
    2    1    8    1       -0.0079305600
    2    1    8    2        0.0014626249
    2    1    8    3       -0.0016485121
    2    1    8    4        0.0012872395
    2    1    8    6       -0.0022964179
    2    1    8    7        0.0010879607
    2    1    8    8       -0.0017019283
    2    2    8    1        0.0013007732
    2    2    8    2       -0.0208948674
    2    2    8    3        0.0190698825
    2    2    8    4       -0.0417078593
    2    2    8    6        0.1076208055
    2    2    8    7       -0.0496952440
    2    2    8    8        0.3839594402
    2    3    8    1        0.0045686469
    2    3    8    2        0.0067982981
    2    3    8    3        0.0100274461
    2    3    8    4       -0.0327300428
    2    3    8    6       -0.0093002829
    2    3    8    7        0.0078106577
    2    3    8    8       -0.0539751034
    2    4    8    1       -0.0086076216
    2    4    8    2       -0.0147392975
    2    4    8    3       -0.0298561731
    2    4    8    4        0.0256239221
    2    4    8    6        0.0108099878
    2    4    8    7        0.0045127679
    2    4    8    8        0.0513194244
    2    5    8    5       -0.0182118453
    2    6    8    1        0.0042492086
    2    6    8    2        0.0218104017
    2    6    8    3       -0.0049875609
    2    6    8    4        0.0099337792
    2    6    8    6       -0.0145443209
    2    6    8    7        0.0033893453
    2    6    8    8       -0.0133018518
    2    7    8    1       -0.0030287790
    2    7    8    2       -0.0055407717
    2    7    8    3       -0.0009185874
    2    7    8    4        0.0110708725
    2    7    8    6       -0.0081406437
    2    7    8    7        0.0041642756
    2    7    8    8       -0.0113901005
    2    8    8    1        0.0029381549
    2    8    8    2        0.0200347146
    2    8    8    3       -0.0132398993
    2    8    8    4        0.0169693142
    2    8    8    6        0.0080792958
    2    8    8    7       -0.0040296816
    2    8    8    8        0.0309213116
    3    1    1    1        0.0685830688
    3    1    1    2       -0.0079085468
    3    1    1    3        0.0208405325
    3    1    1    4        0.0046435018
    3    1    1    6        0.0065952433
    3    1    1    7       -0.0104898698
    3    1    1    8        0.0057374016
    3    2    1    1       -0.0314106836
    3    2    1    2        0.0045753007
    3    2    1    3        0.0216036048
    3    2    1    4        0.0017061037
[...]
    7    7    8    3        0.0059226660
    7    7    8    4       -0.0123805606
    7    7    8    6        0.0388562602
    7    7    8    7       -0.0140097963
    7    7    8    8        0.2597354657
    7    8    8    1       -0.0004743185
    7    8    8    2       -0.0040296816
    7    8    8    3        0.0075373471
    7    8    8    4       -0.0085224797
    7    8    8    6       -0.0225928903
    7    8    8    7        0.0135713650
    7    8    8    8       -0.0446277060
    8    1    1    1        0.0515047590
    8    1    1    2       -0.0082651113
    8    1    1    3        0.0057374016
    8    1    1    4       -0.0065696630
    8    1    1    6        0.0075301293
    8    1    1    7       -0.0020540225
    8    1    1    8        0.0051480964
    8    2    1    1       -0.0522333109
    8    2    1    2        0.0011854058
    8    2    1    3        0.0026153220
    8    2    1    4       -0.0064627003
    8    2    1    6        0.0034274637
    8    2    1    7       -0.0024454646
    8    2    1    8        0.0029381549
    8    3    1    1        0.0616076396
    8    3    1    2       -0.0013615608
    8    3    1    3       -0.0010549410
    8    3    1    4       -0.0012890041
    8    3    1    6        0.0010065836
    8    3    1    7        0.0008089925
    8    3    1    8        0.0004954188
    8    4    1    1       -0.0944336040
    8    4    1    2        0.0009933223
    8    4    1    3       -0.0035562395
    8    4    1    4        0.0004438029
    8    4    1    6       -0.0016469929
    8    4    1    7        0.0018708566
    8    4    1    8       -0.0014031063
    8    5    1    5       -0.0041688550
    8    6    1    1        0.1648113209
    8    6    1    2       -0.0022946443
    8    6    1    3       -0.0002389904
    8    6    1    4        0.0034659104
    8    6    1    6       -0.0009805968
    8    6    1    7        0.0008792050
    8    6    1    8       -0.0008613431
    8    7    1    1       -0.0775898336
    8    7    1    2        0.0010761614
    8    7    1    3        0.0004841471
    8    7    1    4        0.0009930095
    8    7    1    6       -0.0007344450
    8    7    1    7       -0.0003033740
    8    7    1    8       -0.0004743185
    8    8    1    1        0.4251156520
    8    8    1    2       -0.0017019283
    8    8    1    3       -0.0021054807
    8    8    1    4        0.0045181018
    8    8    1    6       -0.0021409394
    8    8    1    7        0.0017990865
    8    8    1    8       -0.0017082290
    8    1    2    1       -0.0079305600
    8    1    2    2        0.0013007732
    8    1    2    3        0.0045686469
    8    1    2    4       -0.0086076216
    8    1    2    6        0.0042492086
    8    1    2    7       -0.0030287790
    8    1    2    8        0.0029381549
    8    2    2    1        0.0014626249
    8    2    2    2       -0.0208948674
    8    2    2    3        0.0067982981
    8    2    2    4       -0.0147392975
    8    2    2    6        0.0218104017
    8    2    2    7       -0.0055407717
    8    2    2    8        0.0200347146
    8    3    2    1       -0.0016485121
    8    3    2    2        0.0190698825
    8    3    2    3        0.0100274461
    8    3    2    4       -0.0298561731
    8    3    2    6       -0.0049875609
    8    3    2    7       -0.0009185874
    8    3    2    8       -0.0132398993
    8    4    2    1        0.0012872395
    8    4    2    2       -0.0417078593
    8    4    2    3       -0.0327300428
    8    4    2    4        0.0256239221
    8    4    2    6        0.0099337792
    8    4    2    7        0.0110708725
    8    4    2    8        0.0169693142
    8    5    2    5       -0.0182118453
    8    6    2    1       -0.0022964179
    8    6    2    2        0.1076208055
    8    6    2    3       -0.0093002829
    8    6    2    4        0.0108099878
    8    6    2    6       -0.0145443209
    8    6    2    7       -0.0081406437
    8    6    2    8        0.0080792958
    8    7    2    1        0.0010879607
    8    7    2    2       -0.0496952440
    8    7    2    3        0.0078106577
    8    7    2    4        0.0045127679
    8    7    2    6        0.0033893453
    8    7    2    7        0.0041642756
    8    7    2    8       -0.0040296816
    8    8    2    1       -0.0017019283
    8    8    2    2        0.3839594402
    8    8    2    3       -0.0539751034
    8    8    2    4        0.0513194244
    8    8    2    6       -0.0133018518
    8    8    2    7       -0.0113901005
    8    8    2    8        0.0309213116
    8    1    3    1        0.0053305103
    8    1    3    2        0.0045055878
    8    1    3    3       -0.0009365235
    8    1    3    4        0.0010009113
    8    1    3    6       -0.0010033643
    8    1    3    7       -0.0002814614
    8    1    3    8        0.0004954188
    8    2    3    1        0.0025119004
    8    2    3    2        0.0068680448
    8    2    3    3       -0.0115646126
    8    2    3    4       -0.0141444411
    8    2    3    6       -0.0089453426
    8    2    3    7        0.0076165017
    8    2    3    8       -0.0132398993
    8    3    3    1       -0.0011470910
    8    3    3    2        0.0094739257
    8    3    3    3        0.0065991417
    8    3    3    4        0.0230367045
    8    3    3    6        0.0250477962
    8    3    3    7       -0.0143556523
    8    3    3    8        0.0415629176
    8    4    3    1       -0.0037912327
    8    4    3    2       -0.0335007875
    8    4    3    3       -0.0069763420
    8    4    3    4       -0.0281363065
    8    4    3    6       -0.0240445296
    8    4    3    7        0.0139424146
    8    4    3    8       -0.0419711733
    8    5    3    5        0.0069463169
    8    6    3    1       -0.0001987886
    8    6    3    2       -0.0091136500
    8    6    3    3        0.0996604246
    8    6    3    4       -0.0127294813
    8    6    3    6        0.0026361486
    8    6    3    7       -0.0151029136
    8    6    3    8       -0.0234058625
    8    7    3    1        0.0004908966
    8    7    3    2        0.0078026678
    8    7    3    3       -0.0468044643
    8    7    3    4        0.0038186842
    8    7    3    6       -0.0018873326
    8    7    3    7        0.0112517828
    8    7    3    8        0.0075373471
    8    8    3    1       -0.0021054807
    8    8    3    2       -0.0539751034
    8    8    3    3        0.4019070230
    8    8    3    4       -0.0596798366
    8    8    3    6       -0.0379123381
    8    8    3    7       -0.0170146984
    8    8    3    8       -0.0867749366
    8    1    4    1       -0.0059196456
    8    1    4    2       -0.0085025421
    8    1    4    3        0.0009788077
    8    1    4    4        0.0038127233
    8    1    4    6        0.0000293800
    8    1    4    7        0.0019420687
    8    1    4    8       -0.0014031063
    8    2    4    1       -0.0064974470
    8    2    4    2       -0.0149648157
    8    2    4    3       -0.0140775138
    8    2    4    4       -0.0004805075
    8    2    4    6        0.0133739884
    8    2    4    7        0.0021135151
    8    2    4    8        0.0169693142
    8    3    4    1       -0.0014694671
    8    3    4    2       -0.0304335160
    8    3    4    3        0.0236847640
    8    3    4    4       -0.0038866135
    8    3    4    6       -0.0271296318
    8    3    4    7        0.0102768786
    8    3    4    8       -0.0419711733
    8    4    4    1        0.0003411758
    8    4    4    2        0.0255796946
    8    4    4    3       -0.0279246116
    8    4    4    4       -0.0146877633
    8    4    4    6        0.0421788346
    8    4    4    7       -0.0174475731
    8    4    4    8        0.0600458435
    8    5    4    5       -0.0029056866
    8    6    4    1        0.0034473830
    8    6    4    2        0.0106446051
    8    6    4    3       -0.0126004717
    8    6    4    4        0.1046327227
    8    6    4    6       -0.0101143769
    8    6    4    7       -0.0001592232
    8    6    4    8        0.0251357019
    8    7    4    1        0.0010427751
    8    7    4    2        0.0046424814
    8    7    4    3        0.0036713860
    8    7    4    4       -0.0521621715
    8    7    4    6        0.0036152751
    8    7    4    7       -0.0025297445
    8    7    4    8       -0.0085224797
    8    8    4    1        0.0045181018
    8    8    4    2        0.0513194244
    8    8    4    3       -0.0596798366
    8    8    4    4        0.4161972518
    8    8    4    6        0.0396364681
    8    8    4    7       -0.0204112402
    8    8    4    8        0.1001485706
    8    1    5    5        0.0007221288
    8    2    5    5       -0.0265503344
    8    3    5    5        0.0251954128
    8    4    5    5       -0.0388008641
    8    5    5    1       -0.0045254210
    8    5    5    2       -0.0193202344
    8    5    5    3        0.0074908900
    8    5    5    4       -0.0033538842
    8    5    5    6        0.0081980171
    8    5    5    7       -0.0025637185
    8    5    5    8        0.0077540128
    8    6    5    5        0.0973031188
    8    7    5    5       -0.0478107726
    8    8    5    5        0.3647722798
    8    1    6    1        0.0077587042
    8    1    6    2        0.0046048251
    8    1    6    3       -0.0011594911
    8    1    6    4        0.0002454383
    8    1    6    6       -0.0025704341
    8    1    6    7        0.0003541378
    8    1    6    8       -0.0008613431
    8    2    6    1        0.0038303062
    8    2    6    2        0.0240066661
    8    2    6    3       -0.0089602203
    8    2    6    4        0.0130376315
    8    2    6    6       -0.0009264042
    8    2    6    7       -0.0048677849
    8    2    6    8        0.0080792958
    8    3    6    1        0.0008679569
    8    3    6    2       -0.0048322210
    8    3    6    3        0.0250388751
    8    3    6    4       -0.0258841631
    8    3    6    6       -0.0247679975
    8    3    6    7        0.0119281795
    8    3    6    8       -0.0234058625
    8    4    6    1       -0.0014875155
    8    4    6    2        0.0098800176
    8    4    6    3       -0.0231815287
    8    4    6    4        0.0421892449
    8    4    6    6        0.0224389650
    8    4    6    7       -0.0183569399
    8    4    6    8        0.0251357019
    8    5    6    5        0.0097102121
    8    6    6    1       -0.0009633690
    8    6    6    2       -0.0145462283
    8    6    6    3        0.0030219423
    8    6    6    4       -0.0104392066
    8    6    6    6        0.0582453467
    8    6    6    7       -0.0070161840
    8    6    6    8        0.0595210860
    8    7    6    1       -0.0007467999
    8    7    6    2        0.0034702825
    8    7    6    3       -0.0018488106
    8    7    6    4        0.0039174618
    8    7    6    6       -0.0248697447
    8    7    6    7        0.0052460538
    8    7    6    8       -0.0225928903
    8    8    6    1       -0.0021409394
    8    8    6    2       -0.0133018518
    8    8    6    3       -0.0379123381
    8    8    6    4        0.0396364681
    8    8    6    6        0.3957704428
    8    8    6    7       -0.0664801786
    8    8    6    8        0.1058306310
    8    1    7    1       -0.0021350715
    8    1    7    2       -0.0031037529
    8    1    7    3       -0.0001326655
    8    1    7    4        0.0020410064
    8    1    7    6        0.0003487087
    8    1    7    7        0.0012211943
    8    1    7    8       -0.0004743185
    8    2    7    1       -0.0025479464
    8    2    7    2       -0.0064623891
    8    2    7    3        0.0070910048
    8    2    7    4        0.0037988488
    8    2    7    6       -0.0050366490
    8    2    7    7        0.0001356777
    8    2    7    8       -0.0040296816
    8    3    7    1        0.0009014373
    8    3    7    2       -0.0002550247
    8    3    7    3       -0.0138606330
    8    3    7    4        0.0101458917
    8    3    7    6        0.0118274836
    8    3    7    7        0.0059226660
    8    3    7    8        0.0075373471
    8    4    7    1        0.0020244271
    8    4    7    2        0.0122789213
    8    4    7    3        0.0128248036
    8    4    7    4       -0.0179543173
    8    4    7    6       -0.0183383558
    8    4    7    7       -0.0123805606
    8    4    7    8       -0.0085224797
    8    5    7    5       -0.0027505628
    8    6    7    1        0.0008645092
    8    6    7    2       -0.0082460512
    8    6    7    3       -0.0151278460
    8    6    7    4        0.0001958435
    8    6    7    6       -0.0070334379
    8    6    7    7        0.0388562602
    8    6    7    8       -0.0225928903
    8    7    7    1       -0.0003016598
    8    7    7    2        0.0041232944
    8    7    7    3        0.0111966794
    8    7    7    4       -0.0025489095
    8    7    7    6        0.0052469179
    8    7    7    7       -0.0140097963
    8    7    7    8        0.0135713650
    8    8    7    1        0.0017990865
    8    8    7    2       -0.0113901005
    8    8    7    3       -0.0170146984
    8    8    7    4       -0.0204112402
    8    8    7    6       -0.0664801786
    8    8    7    7        0.2597354657
    8    8    7    8       -0.0446277060
    8    1    8    1        0.0053036395
    8    1    8    2        0.0031612197
    8    1    8    3        0.0003974461
    8    1    8    4       -0.0013260237
    8    1    8    6       -0.0008522846
    8    1    8    7       -0.0004807249
    8    1    8    8       -0.0017082290
    8    2    8    1        0.0031612197
    8    2    8    2        0.0218869859
    8    2    8    3       -0.0128459411
    8    2    8    4        0.0164338570
    8    2    8    6        0.0078907498
    8    2    8    7       -0.0038820822
    8    2    8    8        0.0309213116
    8    3    8    1        0.0003974461
    8    3    8    2       -0.0128459411
    8    3    8    3        0.0415756213
    8    3    8    4       -0.0411294196
    8    3    8    6       -0.0228655791
    8    3    8    7        0.0073731557
    8    3    8    8       -0.0867749366
    8    4    8    1       -0.0013260237
    8    4    8    2        0.0164338570
    8    4    8    3       -0.0411294196
    8    4    8    4        0.0602633802
    8    4    8    6        0.0246671615
    8    4    8    7       -0.0083893455
    8    4    8    8        0.1001485706
    8    5    8    5        0.0082835693
    8    6    8    1       -0.0008522846
    8    6    8    2        0.0078907498
    8    6    8    3       -0.0228655791
    8    6    8    4        0.0246671615
    8    6    8    6        0.0594349351
    8    6    8    7       -0.0225299844
    8    6    8    8        0.1058306310
    8    7    8    1       -0.0004807249
    8    7    8    2       -0.0038820822
    8    7    8    3        0.0073731557
    8    7    8    4       -0.0083893455
    8    7    8    6       -0.0225299844
    8    7    8    7        0.0135372646
    8    7    8    8       -0.0446277060
    8    8    8    1       -0.0017082290
    8    8    8    2        0.0309213116
    8    8    8    3       -0.0867749366
    8    8    8    4        0.1001485706
    8    8    8    6        0.1058306310
    8    8    8    7       -0.0446277060
    8    8    8    8        0.5605152489
 end_two_electron_integrals

 Parallel integral file used       1 records with       0 large values


 Task  times  cpu:        6.0s     wall:        6.0s


                                NWChem Input Module
                                -------------------


 Summary of allocated global arrays
-----------------------------------
  No active global arrays


MA_summarize_allocated_blocks: starting scan ...
MA_summarize_allocated_blocks: scan completed: 0 heap blocks, 0 stack blocks
MA usage statistics:

	allocation statistics:
					      heap	     stack
					      ----	     -----
	current number of blocks	         0	         0
	maximum number of blocks	        17	        42
	current total bytes		         0	         0
	maximum total bytes		   2110096	 141357496
	maximum total K-bytes		      2111	    141358
	maximum total M-bytes		         3	       142


                                     CITATION
                                     --------
                Please cite the following reference when publishing
                           results obtained with NWChem:

          E. Apra, E. J. Bylaska, W. A. de Jong, N. Govind, K. Kowalski,
       T. P. Straatsma, M. Valiev, H. J. J. van Dam, Y. Alexeev, J. Anchell,
       V. Anisimov, F. W. Aquino, R. Atta-Fynn, J. Autschbach, N. P. Bauman,
     J. C. Becca, D. E. Bernholdt, K. Bhaskaran-Nair, S. Bogatko, P. Borowski,
         J. Boschen, J. Brabec, A. Bruner, E. Cauet, Y. Chen, G. N. Chuev,
      C. J. Cramer, J. Daily, M. J. O. Deegan, T. H. Dunning Jr., M. Dupuis,
   K. G. Dyall, G. I. Fann, S. A. Fischer, A. Fonari, H. Fruchtl, L. Gagliardi,
      J. Garza, N. Gawande, S. Ghosh, K. Glaesemann, A. W. Gotz, J. Hammond,
       V. Helms, E. D. Hermes, K. Hirao, S. Hirata, M. Jacquelin, L. Jensen,
   B. G. Johnson, H. Jonsson, R. A. Kendall, M. Klemm, R. Kobayashi, V. Konkov,
      S. Krishnamoorthy, M. Krishnan, Z. Lin, R. D. Lins, R. J. Littlefield,
      A. J. Logsdail, K. Lopata, W. Ma, A. V. Marenich, J. Martin del Campo,
   D. Mejia-Rodriguez, J. E. Moore, J. M. Mullin, T. Nakajima, D. R. Nascimento,
    J. A. Nichols, P. J. Nichols, J. Nieplocha, A. Otero-de-la-Roza, B. Palmer,
    A. Panyala, T. Pirojsirikul, B. Peng, R. Peverati, J. Pittner, L. Pollack,
   R. M. Richard, P. Sadayappan, G. C. Schatz, W. A. Shelton, D. W. Silverstein,
   D. M. A. Smith, T. A. Soares, D. Song, M. Swart, H. L. Taylor, G. S. Thomas,
            V. Tipparaju, D. G. Truhlar, K. Tsemekhman, T. Van Voorhis,
      A. Vazquez-Mayagoitia, P. Verma, O. Villa, A. Vishnu, K. D. Vogiatzis,
        D. Wang, J. H. Weare, M. J. Williamson, T. L. Windus, K. Wolinski,
        A. T. Wong, Q. Wu, C. Yang, Q. Yu, M. Zacharias, Z. Zhang, Y. Zhao,
                                and R. J. Harrison
                        "NWChem: Past, present, and future
                         J. Chem. Phys. 152, 184102 (2020)
                               doi:10.1063/5.0004997

                                      AUTHORS
                                      -------
  E. Apra, E. J. Bylaska, N. Govind, K. Kowalski, M. Valiev, D. Mejia-Rodriguez,
       A. Kunitsa, N. P. Bauman, A. Panyala, W. A. de Jong, T. P. Straatsma,
        H. J. J. van Dam, D. Wang, T. L. Windus, J. Hammond, J. Autschbach,
    K. Bhaskaran-Nair, J. Brabec, K. Lopata, S. A. Fischer, S. Krishnamoorthy,
     M. Jacquelin, W. Ma, M. Klemm, O. Villa, Y. Chen, V. Anisimov, F. Aquino,
    S. Hirata, M. T. Hackler, Eric Hermes, L. Jensen, J. E. Moore, J. C. Becca,
      V. Konjkov, T. Risthaus, M. Malagoli, A. Marenich, A. Otero-de-la-Roza,
        J. Mullin, P. Nichols, R. Peverati, J. Pittner, Y. Zhao, P.-D. Fan,
        A. Fonari, M. J. Williamson, R. J. Harrison, J. R. Rehr, M. Dupuis,
     D. Silverstein, D. M. A. Smith, J. Nieplocha, V. Tipparaju, M. Krishnan,
     B. E. Van Kuiken, A. Vazquez-Mayagoitia, M. Swart, Q. Wu, T. Van Voorhis,
     A. A. Auer, M. Nooijen, L. D. Crosby, E. Brown, G. Cisneros, G. I. Fann,
   H. Fruchtl, J. Garza, K. Hirao, R. A. Kendall, J. A. Nichols, K. Tsemekhman,
    K. Wolinski, J. Anchell, D. E. Bernholdt, P. Borowski, T. Clark, D. Clerc,
   H. Dachsel, M. J. O. Deegan, K. Dyall, D. Elwood, E. Glendening, M. Gutowski,
   A. C. Hess, J. Jaffe, B. G. Johnson, J. Ju, R. Kobayashi, R. Kutteh, Z. Lin,
   R. Littlefield, X. Long, B. Meng, T. Nakajima, S. Niu, L. Pollack, M. Rosing,
   K. Glaesemann, G. Sandrone, M. Stave, H. Taylor, G. Thomas, J. H. van Lenthe,
                               A. T. Wong, Z. Zhang.

 Total times  cpu:        6.0s     wall:        6.1s
