 argument  1 = input.nw
  NWChem w/ OpenMP: maximum threads =    1



============================== echo of input deck ==============================
 echo
 start H2O
 title "H2O"

 memory total 24 gb

 geometry units bohr
 symmetry c1
        O  0.00000000  0.00000000  0.00000000
        H  0.00000000  2.4149195  0.00000000
        H  1.72558000 -0.64860000  0.00000000
 end

 basis spherical
   * library cc-pVDZ
 end

 scf
   vectors input h2o.mos
   vectors output h2o.mos
 end

 tce
   2eorb
   2emet 13
   ccsd
   maxiter 300
 end

# set tce:print_integrals T
# set tce:qorb 8
# set tce:qela 5
# set tce:qelb 5

 set tce:qducc T
 set tce:nactv 3
 set tce:nonhf T
 set tce:ducc_model 6

 set tce:printtol 0.02

 task tce
================================================================================


                                         
                                         


             Northwest Computational Chemistry Package (NWChem) 7.0.1
             --------------------------------------------------------


                    Environmental Molecular Sciences Laboratory
                       Pacific Northwest National Laboratory
                                Richland, WA 99352

                              Copyright (c) 1994-2020
                       Pacific Northwest National Laboratory
                            Battelle Memorial Institute

             NWChem is an open-source computational chemistry package
                        distributed under the terms of the
                      Educational Community License (ECL) 2.0
             A copy of the license is included with this distribution
                              in the LICENSE.TXT file

                                  ACKNOWLEDGMENT
                                  --------------

            This software and its documentation were developed at the
            EMSL at Pacific Northwest National Laboratory, a multiprogram
            national laboratory, operated for the U.S. Department of Energy
            by Battelle under Contract Number DE-AC05-76RL01830. Support
            for this work was provided by the Department of Energy Office
            of Biological and Environmental Research, Office of Basic
            Energy Sciences, and the Office of Advanced Scientific Computing.


           Job information
           ---------------

    hostname        = WE46210
    program         = /home/baum612/code/nwchem/bin/LINUX64/nwchem
    date            = Fri Sep  6 10:01:53 2024

    compiled        = Wed_Sep_04_02:00:17_2024
    source          = /home/baum612/code/nwchem
    nwchem branch   = 7.0.0
    nwchem revision = nwchem_on_git-4191-g39d87d64de
    ga revision     = 5.8.1
    use scalapack   = F
    input           = input.nw
    prefix          = H2O.
    data base       = ./H2O.db
    status          = startup
    nproc           =        1
    time left       =     -1s



           Memory information
           ------------------

    heap     =  805306366 doubles =   6144.0 Mbytes
    stack    =  805306363 doubles =   6144.0 Mbytes
    global   = 1610612736 doubles =  12288.0 Mbytes (distinct from heap & stack)
    total    = 3221225465 doubles =  24576.0 Mbytes
    verify   = yes
    hardfail = no 


           Directory information
           ---------------------

  0 permanent = .
  0 scratch   = .




                                NWChem Input Module
                                -------------------


                                        H2O
                                        ---
 Turning off AUTOSYM since
 SYMMETRY directive was detected!


          ------
          auto-z
          ------
  autoz: The atoms group into disjoint clusters
 cluster   1:    1    3
 cluster   2:    2
 Connecting clusters   1   2 via atoms    1    2 r = 1.28
  autoz: regenerating connections with new bonds
  no constraints, skipping    0.0000000000000000     
  no constraints, skipping    0.0000000000000000     


                             Geometry "geometry" -> ""
                             -------------------------

 Output coordinates in a.u. (scale by  1.000000000 to convert to a.u.)

  No.       Tag          Charge          X              Y              Z
 ---- ---------------- ---------- -------------- -------------- --------------
    1 O                    8.0000    -0.17255800    -0.17663195     0.00000000
    2 H                    1.0000    -0.17255800     2.23828755     0.00000000
    3 H                    1.0000     1.55302200    -0.82523195     0.00000000

      Atomic Mass 
      ----------- 

      O                 15.994910
      H                  1.007825


 Effective nuclear repulsion energy (a.u.)       7.9368368442

            Nuclear Dipole moment (a.u.) 
            ----------------------------
        X                 Y               Z
 ---------------- ---------------- ----------------
    -0.0000000000     0.0000000000     0.0000000000



                                Z-matrix (autoz)
                                -------- 

 Units are Angstrom for bonds and degrees for angles

      Type          Name      I     J     K     L     M      Value
      ----------- --------  ----- ----- ----- ----- ----- ----------
    1 Stretch                  1     2                       1.27792
    2 Stretch                  1     3                       0.97551
    3 Bend                     2     1     3               110.59992


            XYZ format geometry
            -------------------
     3
 geometry
 O                    -0.09131377    -0.09346961     0.00000000
 H                    -0.09131377     1.18445085     0.00000000
 H                     0.82182391    -0.43669397     0.00000000

 ==============================================================================
                                internuclear distances
 ------------------------------------------------------------------------------
       center one      |      center two      | atomic units |       a.u.
 ------------------------------------------------------------------------------
    3 H                |   1 O                |     1.84345  |     1.84345
 ------------------------------------------------------------------------------
                         number of included internuclear distances:          1
 ==============================================================================





 Summary of "ao basis" -> "" (spherical)
 ------------------------------------------------------------------------------
       Tag                 Description            Shells   Functions and Types
 ---------------- ------------------------------  ------  ---------------------
 *                          cc-pVDZ                   on all atoms 


                      Basis "ao basis" -> "ao basis" (spherical)
                      -----
  O (Oxygen)
  ----------
            Exponent  Coefficients 
       -------------- ---------------------------------------------------------
  1 S  1.17200000E+04  0.000710
  1 S  1.75900000E+03  0.005470
  1 S  4.00800000E+02  0.027837
  1 S  1.13700000E+02  0.104800
  1 S  3.70300000E+01  0.283062
  1 S  1.32700000E+01  0.448719
  1 S  5.02500000E+00  0.270952
  1 S  1.01300000E+00  0.015458

  2 S  1.17200000E+04 -0.000160
  2 S  1.75900000E+03 -0.001263
  2 S  4.00800000E+02 -0.006267
  2 S  1.13700000E+02 -0.025716
  2 S  3.70300000E+01 -0.070924
  2 S  1.32700000E+01 -0.165411
  2 S  5.02500000E+00 -0.116955
  2 S  1.01300000E+00  0.557368

  3 S  3.02300000E-01  1.000000

  4 P  1.77000000E+01  0.043018
  4 P  3.85400000E+00  0.228913
  4 P  1.04600000E+00  0.508728

  5 P  2.75300000E-01  1.000000

  6 D  1.18500000E+00  1.000000

  H (Hydrogen)
  ------------
            Exponent  Coefficients 
       -------------- ---------------------------------------------------------
  1 S  1.30100000E+01  0.019685
  1 S  1.96200000E+00  0.137977
  1 S  4.44600000E-01  0.478148

  2 S  1.22000000E-01  1.000000

  3 P  7.27000000E-01  1.000000



 Summary of "ao basis" -> "ao basis" (spherical)
 ------------------------------------------------------------------------------
       Tag                 Description            Shells   Functions and Types
 ---------------- ------------------------------  ------  ---------------------
 O                          cc-pVDZ                  6       14   3s2p1d
 H                          cc-pVDZ                  3        5   2s1p


                                 NWChem SCF Module
                                 -----------------


                                        H2O



  ao basis        = "ao basis"
  functions       =    24
  atoms           =     3
  closed shells   =     5
  open shells     =     0
  charge          =   0.00
  wavefunction    = RHF 
  input vectors   = ./h2o.mos
  output vectors  = ./h2o.mos
  use symmetry    = F
  symmetry adapt  = F


 Summary of "ao basis" -> "ao basis" (spherical)
 ------------------------------------------------------------------------------
       Tag                 Description            Shells   Functions and Types
 ---------------- ------------------------------  ------  ---------------------
 O                          cc-pVDZ                  6       14   3s2p1d
 H                          cc-pVDZ                  3        5   2s1p



 Forming initial guess at       0.0s


 Loading old vectors from job with title :

H2O


 Starting SCF solution at       0.0s



 ----------------------------------------------
         Quadratically convergent ROHF

 Convergence threshold     :          1.000E-04
 Maximum no. of iterations :           30
 Final Fock-matrix accuracy:          1.000E-07
 ----------------------------------------------


 #quartets = 3.081D+03 #integrals = 2.131D+04 #direct =  0.0% #cached =100.0%


 Integral file          = ./H2O.aoints.0
 Record size in doubles =  65536        No. of integs per rec  =  43688
 Max. records in memory =      4        Max. records in file   = 232240
 No. of bits per label  =      8        No. of bits per value  =     64


              iter       energy          gnorm     gmax       time
             ----- ------------------- --------- --------- --------
                 1      -75.9607730182  1.37D-02  4.43D-03      0.1
                 2      -75.9607890003  1.03D-04  5.26D-05      0.1
                 3      -75.9607890021  3.73D-06  2.53D-06      0.1


       Final RHF  results 
       ------------------ 

         Total SCF energy =    -75.960789002063
      One-electron energy =   -120.808510583909
      Two-electron energy =     36.910884737679
 Nuclear repulsion energy =      7.936836844168

        Time for solution =      0.0s


             Final eigenvalues
             -----------------

              1      
    1  -20.5724
    2   -1.2798
    3   -0.6394
    4   -0.5166
    5   -0.4852
    6    0.1319
    7    0.2337
    8    0.6480
    9    0.8134
   10    1.1494
   11    1.1777
   12    1.2976
   13    1.4546
   14    1.5306
   15    1.6730

                       ROHF Final Molecular Orbital Analysis
                       -------------------------------------

 Vector    2  Occ=2.000000D+00  E=-1.279762D+00
              MO Center=  5.7D-02, -8.7D-02, -1.2D-17, r^2= 5.1D-01
   Bfn.  Coefficient  Atom+Function         Bfn.  Coefficient  Atom+Function  
  ----- ------------  ---------------      ----- ------------  ---------------
     2      0.453824  1 O  s                  3      0.453230  1 O  s          
    20      0.196316  3 H  s          

 Vector    3  Occ=2.000000D+00  E=-6.394115D-01
              MO Center=  4.4D-02,  4.0D-02,  6.6D-18, r^2= 8.8D-01
   Bfn.  Coefficient  Atom+Function         Bfn.  Coefficient  Atom+Function  
  ----- ------------  ---------------      ----- ------------  ---------------
     4      0.399869  1 O  px                20      0.361717  3 H  s          
     5     -0.275078  1 O  py                 7      0.211962  1 O  px         
    15     -0.210985  2 H  s                  3     -0.194358  1 O  s          

 Vector    4  Occ=2.000000D+00  E=-5.166212D-01
              MO Center= -1.0D-01,  9.4D-02, -3.5D-17, r^2= 9.0D-01
   Bfn.  Coefficient  Atom+Function         Bfn.  Coefficient  Atom+Function  
  ----- ------------  ---------------      ----- ------------  ---------------
     5      0.385516  1 O  py                 4      0.350574  1 O  px         
     8      0.288793  1 O  py                 7      0.265825  1 O  px         
    15      0.265104  2 H  s                  3     -0.235503  1 O  s          
    16      0.152029  2 H  s          

 Vector    5  Occ=2.000000D+00  E=-4.852048D-01
              MO Center= -7.3D-02, -9.0D-02,  6.4D-17, r^2= 5.9D-01
   Bfn.  Coefficient  Atom+Function         Bfn.  Coefficient  Atom+Function  
  ----- ------------  ---------------      ----- ------------  ---------------
     6      0.637775  1 O  pz                 9      0.498254  1 O  pz         

 Vector    6  Occ=0.000000D+00  E= 1.318635D-01
              MO Center=  5.3D-02,  8.7D-01,  9.2D-18, r^2= 2.4D+00
   Bfn.  Coefficient  Atom+Function         Bfn.  Coefficient  Atom+Function  
  ----- ------------  ---------------      ----- ------------  ---------------
    16      0.925621  2 H  s                  3     -0.677478  1 O  s          
     8     -0.404168  1 O  py                21      0.343064  3 H  s          
     5     -0.280034  1 O  py                15      0.196226  2 H  s          

 Vector    7  Occ=0.000000D+00  E= 2.337226D-01
              MO Center=  9.1D-01, -3.2D-01, -5.3D-17, r^2= 2.9D+00
   Bfn.  Coefficient  Atom+Function         Bfn.  Coefficient  Atom+Function  
  ----- ------------  ---------------      ----- ------------  ---------------
    21      1.491703  3 H  s                 16     -0.688181  2 H  s          
     3     -0.540865  1 O  s                  7     -0.427884  1 O  px         
     8      0.416467  1 O  py                 4     -0.204258  1 O  px         
     5      0.204249  1 O  py         

 Vector    8  Occ=0.000000D+00  E= 6.479960D-01
              MO Center= -1.0D-01,  1.2D+00,  1.0D-17, r^2= 1.6D+00
   Bfn.  Coefficient  Atom+Function         Bfn.  Coefficient  Atom+Function  
  ----- ------------  ---------------      ----- ------------  ---------------
    15      1.277089  2 H  s                 16     -1.239856  2 H  s          
     3      0.277491  1 O  s                  5     -0.249067  1 O  py         
    21      0.176575  3 H  s          

 Vector    9  Occ=0.000000D+00  E= 8.133911D-01
              MO Center=  6.7D-01, -3.6D-01,  1.2D-16, r^2= 1.3D+00
   Bfn.  Coefficient  Atom+Function         Bfn.  Coefficient  Atom+Function  
  ----- ------------  ---------------      ----- ------------  ---------------
    20      1.293038  3 H  s                 21     -0.864004  3 H  s          
     4     -0.281829  1 O  px                 7     -0.276698  1 O  px         
    22      0.244018  3 H  px                 8      0.169958  1 O  py         
     2     -0.159439  1 O  s          

 Vector   10  Occ=0.000000D+00  E= 1.149439D+00
              MO Center= -2.1D-01,  1.5D-01, -9.2D-16, r^2= 1.3D+00
   Bfn.  Coefficient  Atom+Function         Bfn.  Coefficient  Atom+Function  
  ----- ------------  ---------------      ----- ------------  ---------------
     7      1.226424  1 O  px                 4     -0.733195  1 O  px         
     3      0.514666  1 O  s                 20     -0.461320  3 H  s          
    21     -0.433857  3 H  s                 22      0.348513  3 H  px         
    17      0.293131  2 H  px                 5     -0.169116  1 O  py         
    16      0.156155  2 H  s          

 Vector   11  Occ=0.000000D+00  E= 1.177684D+00
              MO Center= -9.9D-02,  9.1D-02,  7.7D-16, r^2= 1.2D+00
   Bfn.  Coefficient  Atom+Function         Bfn.  Coefficient  Atom+Function  
  ----- ------------  ---------------      ----- ------------  ---------------
     9     -0.932682  1 O  pz                 6      0.913630  1 O  pz         
    19     -0.263872  2 H  pz         

 Vector   12  Occ=0.000000D+00  E= 1.297624D+00
              MO Center=  5.5D-02, -3.4D-01, -5.2D-17, r^2= 1.3D+00
   Bfn.  Coefficient  Atom+Function         Bfn.  Coefficient  Atom+Function  
  ----- ------------  ---------------      ----- ------------  ---------------
     8      1.337951  1 O  py                 5     -0.834501  1 O  py         
    21      0.558913  3 H  s                  7     -0.483418  1 O  px         
    16     -0.457016  2 H  s                  3     -0.332497  1 O  s          
    18      0.308609  2 H  py                23      0.304214  3 H  py         
    15     -0.269239  2 H  s                 20      0.261060  3 H  s          

 Vector   13  Occ=0.000000D+00  E= 1.454562D+00
              MO Center=  3.3D-01,  3.2D-01, -3.4D-17, r^2= 1.3D+00
   Bfn.  Coefficient  Atom+Function         Bfn.  Coefficient  Atom+Function  
  ----- ------------  ---------------      ----- ------------  ---------------
    19      0.685355  2 H  pz                24     -0.649312  3 H  pz         
     6      0.259331  1 O  pz                 9     -0.155208  1 O  pz         

 Vector   14  Occ=0.000000D+00  E= 1.530620D+00
              MO Center= -3.1D-02,  9.9D-02,  6.7D-16, r^2= 1.6D+00
   Bfn.  Coefficient  Atom+Function         Bfn.  Coefficient  Atom+Function  
  ----- ------------  ---------------      ----- ------------  ---------------
     3      0.750196  1 O  s                  2     -0.672374  1 O  s          
    17      0.618391  2 H  px                23      0.544837  3 H  py         
     7     -0.534796  1 O  px                 8     -0.343223  1 O  py         
     1     -0.272875  1 O  s                 22      0.261923  3 H  px         
     4      0.238195  1 O  px                21     -0.238840  3 H  s          

 Vector   15  Occ=0.000000D+00  E= 1.672968D+00
              MO Center=  2.4D-01,  2.0D-01, -6.1D-16, r^2= 1.5D+00
   Bfn.  Coefficient  Atom+Function         Bfn.  Coefficient  Atom+Function  
  ----- ------------  ---------------      ----- ------------  ---------------
    24      0.791010  3 H  pz                19      0.690150  2 H  pz         
     9     -0.665305  1 O  pz                 6      0.177069  1 O  pz         


 center of mass
 --------------
 x =  -0.07599894 y =  -0.07779322 z =   0.00000000

 moments of inertia (a.u.)
 ------------------
           6.125497228063           1.299857744430           0.000000000000
           1.299857744430           2.833002082974           0.000000000000
           0.000000000000           0.000000000000           8.958499311037

  Mulliken analysis of the total density
  --------------------------------------

    Atom       Charge   Shell Charges
 -----------   ------   -------------------------------------------------------
    1 O    8     8.44   2.00  0.85  0.93  2.71  1.94  0.01
    2 H    1     0.74   0.50  0.20  0.04
    3 H    1     0.81   0.67  0.07  0.08

       Multipole analysis of the density wrt the origin
       ------------------------------------------------

     L   x y z        total         open         nuclear
     -   - - -        -----         ----         -------
     0   0 0 0     -0.000000      0.000000     10.000000

     1   1 0 0      0.630256      0.000000     -0.000000
     1   0 1 0      0.516473      0.000000      0.000000
     1   0 0 1     -0.000000      0.000000      0.000000

     2   2 0 0     -4.174115      0.000000      2.679864
     2   1 1 0     -0.834616      0.000000     -1.424004
     2   1 0 1      0.000000      0.000000      0.000000
     2   0 2 0     -2.880725      0.000000      5.940530
     2   0 1 1     -0.000000      0.000000      0.000000
     2   0 0 2     -5.500765      0.000000      0.000000


 Parallel integral file used       1 records with       0 large values

                   NWChem Extensible Many-Electron Theory Module
                   ---------------------------------------------

              ======================================================
                   This portion of the program was automatically
                  generated by a Tensor Contraction Engine (TCE).
                  The development of this portion of the program
                 and TCE was supported by US Department of Energy,
                Office of Science, Office of Basic Energy Science.
                      TCE is a product of Battelle and PNNL.
              Please cite: S.Hirata, J.Phys.Chem.A 107, 9887 (2003).
              ======================================================

                                        H2O


            General Information
            -------------------
      Number of processors :     1
         Wavefunction type : Restricted Hartree-Fock
          No. of electrons :    10
           Alpha electrons :     5
            Beta electrons :     5
           No. of orbitals :    48
            Alpha orbitals :    24
             Beta orbitals :    24
        Alpha frozen cores :     0
         Beta frozen cores :     0
     Alpha frozen virtuals :     0
      Beta frozen virtuals :     0
         Spin multiplicity : singlet 
    Number of AO functions :    24
       Number of AO shells :    12
        Use of symmetry is : off
      Symmetry adaption is : off
         Schwarz screening : 0.10D-09

          Correlation Information
          -----------------------
          Calculation type : Coupled-cluster singles & doubles                           
   Perturbative correction : none                                                        
            Max iterations :      300
        Residual threshold : 0.10D-06
     T(0) DIIS level shift : 0.00D+00
     L(0) DIIS level shift : 0.00D+00
     T(1) DIIS level shift : 0.00D+00
     L(1) DIIS level shift : 0.00D+00
     T(R) DIIS level shift : 0.00D+00
     T(I) DIIS level shift : 0.00D+00
   CC-T/L Amplitude update :  5-th order DIIS
                I/O scheme : Global Array Library
        L-threshold :  0.10D-06
        EOM-threshold :  0.10D-06
 no EOMCCSD initial starts read in
 TCE RESTART OPTIONS
 READ_INT:   F
 WRITE_INT:  F
 READ_TA:    F
 WRITE_TA:   F
 READ_XA:    F
 WRITE_XA:   F
 READ_IN3:   F
 WRITE_IN3:  F
 SLICE:      F
 D4D5:       F
 quantumc:   F
 qrotation:  F
 pwtce:      F
 qducc:      T
 nacto:                         0
 nrotv:                         0
 nrot:                          0

            Memory Information
            ------------------
          Available GA space size is    1610612160 doubles
          Available MA space size is    1610610956 doubles

 Maximum block size        32 doubles

 tile_dim =     19

 Block   Spin    Irrep     Size     Offset   Alpha
 -------------------------------------------------
   1    alpha     a      5 doubles       0       1
   2    beta      a      5 doubles       5       1
   3    alpha     a     19 doubles      10       3
   4    beta      a     19 doubles      29       3

 Global array virtual files algorithm will be used

 Parallel file system coherency ......... OK

 #quartets = 3.081D+03 #integrals = 2.131D+04 #direct =  0.0% #cached =100.0%


 Integral file          = ./H2O.aoints.0
 Record size in doubles =  65536        No. of integs per rec  =  43688
 Max. records in memory =      4        Max. records in file   = 232240
 No. of bits per label  =      8        No. of bits per value  =     64


 Fock matrix recomputed
 1-e file size   =              576
 1-e file name   = ./H2O.f1
 Cpu & wall time / sec            0.0            0.0
 4-electron integrals stored in orbital form

 v2    file size   =           185666
 4-index algorithm nr.  13 is used
 imaxsize =       30
 imaxsize ichop =        0
 Cpu & wall time / sec            0.1            0.1
 T1-number-of-tasks                    1

 t1 file size   =               95
 t1 file name   = ./H2O.t1
 t1 file handle =       -998
 T2-number-of-boxes                    2

 t2 file size   =            18050
 t2 file name   = ./H2O.t2
 t2 file handle =       -996
CCSD iterations
 ---------------------------------------------------------
 Iter          Residuum       Correlation     Cpu    Wall 
 ---------------------------------------------------------
NEW TASK SCHEDULING
CCSD_T1_NTS --- OK
CCSD_T2_NTS --- OK
    1   0.1175897801982  -0.2151061390548     0.0     0.0
    2   0.0365462935747  -0.2195148215723     0.0     0.0
    3   0.0151499057822  -0.2236178272313     0.0     0.0
    4   0.0070658726031  -0.2247312439556     0.0     0.0
    5   0.0034682657040  -0.2252612713818     0.0     0.0
 MICROCYCLE DIIS UPDATE:                    5                    5
    6   0.0006026149483  -0.2256872270183     0.0     0.0
    7   0.0003864711238  -0.2257021342817     0.0     0.0
    8   0.0002148820924  -0.2257060064007     0.0     0.0
    9   0.0001436820422  -0.2257070596639     0.0     0.0
   10   0.0000909853991  -0.2257086284991     0.0     0.0
 MICROCYCLE DIIS UPDATE:                   10                    5
   11   0.0000072485294  -0.2257115623541     0.0     0.0
   12   0.0000025153838  -0.2257116185756     0.0     0.0
   13   0.0000011575099  -0.2257117579509     0.0     0.0
   14   0.0000005769651  -0.2257117899190     0.0     0.0
   15   0.0000002999335  -0.2257118045284     0.0     0.0
 MICROCYCLE DIIS UPDATE:                   15                    5
   16   0.0000000646513  -0.2257118124579     0.0     0.0
 -----------------------------------------------------------------
 Iterations converged
 CCSD correlation energy / hartree =        -0.225711812457902
 CCSD total energy / hartree       =       -76.186500814520457

 Singles contributions

 Doubles contributions
     6a   (alpha)     6a   (beta ) ---     2a   (alpha)     4a   (beta )       -0.0204796321
     6a   (alpha)     6a   (beta ) ---     3a   (alpha)     3a   (beta )       -0.0303641662
     6a   (alpha)     6a   (beta ) ---     3a   (alpha)     4a   (beta )        0.0334529527
     6a   (alpha)     6a   (beta ) ---     4a   (alpha)     2a   (beta )       -0.0204796321
     6a   (alpha)     6a   (beta ) ---     4a   (alpha)     3a   (beta )        0.0334529527
     6a   (alpha)     6a   (beta ) ---     4a   (alpha)     4a   (beta )       -0.0733348493
     6a   (alpha)     7a   (beta ) ---     4a   (alpha)     3a   (beta )       -0.0253801159
     6a   (alpha)     8a   (beta ) ---     3a   (alpha)     4a   (beta )        0.0205895906
     6a   (alpha)     8a   (beta ) ---     4a   (alpha)     3a   (beta )        0.0219990906
     6a   (alpha)     8a   (beta ) ---     4a   (alpha)     4a   (beta )       -0.0374884467
     7a   (alpha)     6a   (beta ) ---     3a   (alpha)     4a   (beta )       -0.0253801159
     7a   (alpha)     7a   (beta ) ---     3a   (alpha)     3a   (beta )       -0.0335330204
     7a   (alpha)     9a   (beta ) ---     3a   (alpha)     3a   (beta )       -0.0233514288
     8a   (alpha)     6a   (beta ) ---     3a   (alpha)     4a   (beta )        0.0219990906
     8a   (alpha)     6a   (beta ) ---     4a   (alpha)     3a   (beta )        0.0205895906
     8a   (alpha)     6a   (beta ) ---     4a   (alpha)     4a   (beta )       -0.0374884467
     8a   (alpha)     8a   (beta ) ---     3a   (alpha)     4a   (beta )        0.0215888535
     8a   (alpha)     8a   (beta ) ---     4a   (alpha)     3a   (beta )        0.0215888535
     8a   (alpha)     8a   (beta ) ---     4a   (alpha)     4a   (beta )       -0.0325236370
     9a   (alpha)     7a   (beta ) ---     3a   (alpha)     3a   (beta )       -0.0233514288
     9a   (alpha)     9a   (beta ) ---     3a   (alpha)     3a   (beta )       -0.0410356219
    10a   (alpha)    10a   (beta ) ---     4a   (alpha)     4a   (beta )       -0.0241597756
    10a   (alpha)    11a   (beta ) ---     4a   (alpha)     5a   (beta )        0.0212270152
    11a   (alpha)    10a   (beta ) ---     5a   (alpha)     4a   (beta )        0.0212270152
    11a   (alpha)    11a   (beta ) ---     5a   (alpha)     5a   (beta )       -0.0481797348
 Ground state specification:
 exp(T)|Ref>~(1+T)|Ref>
 ------- a(p)+/a(q) strings ----------

 singles norm

 doubles norm

 Reference string
   1.0000000000000000      :(1a)+ (2a)+ (3a)+ (4a)+ (5a)+ (1b)+ (2b)+ (3b)+ (4b)+ (5b)+ |0>

 Singles strings

 Doubles strings
 -------------------------------------
 enrep_tce =    7.9368368441680284     
  EHF(total)         =       -75.96078900
  Shift (HFtot-HFA)  =         0.00000000
 ALL OCCUPIED ORBITALS ARE ACTIVE IN DUCC --> NO SHIFT
 Number of active orbitals                    8
 Number of active alpha electrons                    5
 Number of active beta electrons                    5
  nos                    10
  nvs                    38
 noas                     5
 nobs                     5
 nvas                    19
 nvbs                    19
 nactv                     3
 DUCC MODEL =                     6
 NONHF =  T
 F-T1 correlation    =   -1.4838134209617778E-008
 V-T1-T1 correlation =    4.4384821195212187E-005
 V-T2 correlation    =  -0.22575618244095016     
 Total correlation   =  -0.22571181245788915     
 F-T1(Ext) correlation         =    6.3579285172961697E-009
 V-T1(Ext)-T1(Ext) correlation =    2.1112332160289644E-005
 V-T2(Ext) correlation         =  -0.19383410594578243     
 Total Ext correlation         =  -0.19381298725569363     
1-BODY TIME =    1.843 SECONDS.
  HHHH TIME =    2.173 SECONDS.
  PPPP TIME =    0.031 SECONDS.
  HHHP TIME =    0.611 SECONDS.
  PPPH TIME =    0.079 SECONDS.
  HPHP TIME =    0.357 SECONDS.
  HHPP TIME =    0.330 SECONDS.
 ONE-BODY UNITARY CHECK
 TWO-BODY UNITARY CHECK
                    2                    7                    3                    9   1.3673801674274344E-012
                    2                    7                    4                    7   1.5730819424852882E-012
                    2                    7                    4                    9  -2.1279505935112297E-012
                    2                    7                    8                    4  -1.6519233897449581E-012
                    2                    7                    9                    2  -1.2633800255956729E-012
                    2                    7                    9                    4   2.1279505935112297E-012
                    2                    8                    4                    8   1.5129729066809539E-012
                    2                    9                    4                    7  -1.2195383591873110E-012
                    2                    9                    4                    9   2.9869995366027524E-012
                    2                    9                    8                    2  -1.4461210007254977E-012
                    2                    9                    9                    2   1.8302026560945706E-012
                    2                    9                    9                    4  -2.9139538004763210E-012
                    2                   10                    4                   10   1.8349072261614197E-012
                    2                   10                   10                    4  -1.4778109291846420E-012
                    3                    3                    3                    4   1.2145640319670793E-012
                    3                    3                    4                    3  -1.2145698591302399E-012
                    3                    4                    3                    3  -1.2145640319670793E-012
                    3                    4                    4                    3   1.0217382495625316E-012
                    3                    5                    5                    3  -1.2742029653622922E-012
                    3                    5                    5                    4   1.6361911825413245E-012
                    3                    7                    4                    9   1.1422737755673040E-012
                    3                    7                    7                    4   1.4461001840437859E-012
                    3                    7                    9                    4  -1.2191497811286922E-012
                    3                    8                    4                    7   1.5247716284028101E-012
                    3                    8                    4                    9  -1.4684989335655985E-012
                    3                    8                    9                    2  -1.6206081615566248E-012
                    3                    8                    9                    3  -1.0905269742789159E-012
                    3                    8                    9                    4   1.4685058724595024E-012
                    3                    9                    2                    7  -1.3673801674274344E-012
                    3                    9                    4                    9  -3.1366541308752716E-012
                    3                    9                    5                   10  -1.2004962995915136E-012
                    3                    9                    7                    2   1.6519242571066961E-012
                    3                    9                    9                    3   1.0392797733516090E-012
                    3                    9                    9                    4   3.7039434019892070E-012
                    3                    9                   10                    5   1.2795294337952789E-012
                    3                   10                    4                   10  -1.1305123504001813E-012
                    3                   10                   10                    3  -1.9239054793729338E-012
                    3                   10                   10                    4   2.6342747427854363E-012
                    4                    3                    3                    3   1.2145698591302399E-012
                    4                    3                    3                    4  -1.0217382495625316E-012
                    4                    5                    5                    4  -2.3625545964023331E-012
                    4                    7                    2                    7  -1.5730819424852882E-012
                    4                    7                    2                    9   1.2195383591873110E-012
                    4                    7                    3                    8  -1.5247716284028101E-012
                    4                    7                    7                    2   1.2634077811712885E-012
                    4                    7                    7                    4  -1.8302026560945706E-012
                    4                    7                    8                    3   1.6205665281932013E-012
                    4                    8                    2                    8  -1.5129729066809539E-012
                    4                    8                    8                    3   1.0905304437258678E-012
                    4                    8                    8                    4  -1.0391687510491465E-012
                    4                    9                    2                    7   2.1279505935112297E-012
                    4                    9                    2                    9  -2.9869995366027524E-012
                    4                    9                    3                    7  -1.1422737755673040E-012
                    4                    9                    3                    8   1.4684989335655985E-012
                    4                    9                    3                    9   3.1366541308752716E-012
                    4                    9                    5                   10   1.9329364497888690E-012
                    4                    9                    7                    2  -2.1279505935112297E-012
                    4                    9                    7                    4   2.9139884949458406E-012
                    4                    9                    8                    2   1.2191705978104039E-012
                    4                    9                    8                    3  -1.4685058724595024E-012
                    4                    9                    8                    4  -3.7039260547544473E-012
                    4                    9                   10                    5  -1.9329364497888690E-012
                    4                   10                    2                   10  -1.8349072261614197E-012
                    4                   10                    3                   10   1.1305123504001813E-012
                    4                   10                    5                    9   1.3214082605905730E-012
                    4                   10                   10                    3   1.0854581122821116E-012
                    4                   10                   10                    4  -3.6830538618914943E-012
                    5                    3                    3                    5   1.2742029653622922E-012
                    5                    4                    3                    5  -1.6361911825413245E-012
                    5                    4                    4                    5   2.3625545964023331E-012
                    5                    8                    8                    5   1.9239054793729338E-012
                    5                    8                    9                    5  -1.0854164789186882E-012
                    5                    9                    4                   10  -1.3214082605905730E-012
                    5                    9                    7                    5   1.4777970513968341E-012
                    5                    9                    8                    5  -2.6343163761488597E-012
                    5                    9                    9                    5   3.6830538618914943E-012
                    5                   10                    3                    9   1.2004962995915136E-012
                    5                   10                    4                    9  -1.9329364497888690E-012
                    5                   10                    8                    4  -1.2795294337952789E-012
                    5                   10                    9                    4   1.9329364497888690E-012
                    7                    2                    3                    9  -1.6519242571066961E-012
                    7                    2                    4                    7  -1.2634077811712885E-012
                    7                    2                    4                    9   2.1279505935112297E-012
                    7                    2                    8                    4   1.3673766979804824E-012
                    7                    2                    9                    2   1.5731322494660915E-012
                    7                    2                    9                    4  -2.1279505935112297E-012
                    7                    3                    9                    3   1.5129546920844561E-012
                    7                    4                    3                    7  -1.4461001840437859E-012
                    7                    4                    4                    7   1.8302026560945706E-012
                    7                    4                    4                    9  -2.9139884949458406E-012
                    7                    4                    9                    2  -1.2197604037922360E-012
                    7                    4                    9                    4   2.9870272921783680E-012
                    7                    5                    5                    9  -1.4777970513968341E-012
                    7                    5                    9                    5   1.8348933483736118E-012
                    8                    2                    2                    9   1.4461210007254977E-012
                    8                    2                    4                    9  -1.2191705978104039E-012
                    8                    2                    9                    4   1.1422529588855923E-012
                    8                    3                    4                    7  -1.6205665281932013E-012
                    8                    3                    4                    8  -1.0905304437258678E-012
                    8                    3                    4                    9   1.4685058724595024E-012
                    8                    3                    9                    2   1.5248132617662336E-012
                    8                    3                    9                    4  -1.4685128113534063E-012
                    8                    4                    2                    7   1.6519233897449581E-012
                    8                    4                    4                    8   1.0391687510491465E-012
                    8                    4                    4                    9   3.7039260547544473E-012
                    8                    4                    5                   10   1.2795294337952789E-012
                    8                    4                    7                    2  -1.3673766979804824E-012
                    8                    4                    9                    4  -3.1366402530874637E-012
                    8                    4                   10                    5  -1.2004980343149896E-012
                    8                    5                    5                    8  -1.9239054793729338E-012
                    8                    5                    5                    9   2.6343163761488597E-012
                    8                    5                    9                    5  -1.1305539837636047E-012
                    8                    8                    8                    9   1.2145679213012499E-012
                    8                    8                    9                    8  -1.2145694928650044E-012
                    8                    9                    8                    8  -1.2145679213012499E-012
                    8                    9                    9                    8   1.0217382495625316E-012
                    8                   10                   10                    8  -1.2742029653622922E-012
                    8                   10                   10                    9   1.6361842436474205E-012
                    9                    2                    2                    7   1.2633800255956729E-012
                    9                    2                    2                    9  -1.8302026560945706E-012
                    9                    2                    3                    8   1.6206081615566248E-012
                    9                    2                    7                    2  -1.5731322494660915E-012
                    9                    2                    7                    4   1.2197604037922360E-012
                    9                    2                    8                    3  -1.5248132617662336E-012
                    9                    3                    3                    8   1.0905269742789159E-012
                    9                    3                    3                    9  -1.0392797733516090E-012
                    9                    3                    7                    3  -1.5129546920844561E-012
                    9                    4                    2                    7  -2.1279505935112297E-012
                    9                    4                    2                    9   2.9139538004763210E-012
                    9                    4                    3                    7   1.2191497811286922E-012
                    9                    4                    3                    8  -1.4685058724595024E-012
                    9                    4                    3                    9  -3.7039434019892070E-012
                    9                    4                    5                   10  -1.9329364497888690E-012
                    9                    4                    7                    2   2.1279505935112297E-012
                    9                    4                    7                    4  -2.9870272921783680E-012
                    9                    4                    8                    2  -1.1422529588855923E-012
                    9                    4                    8                    3   1.4685128113534063E-012
                    9                    4                    8                    4   3.1366402530874637E-012
                    9                    4                   10                    5   1.9329364497888690E-012
                    9                    5                    5                    8   1.0854164789186882E-012
                    9                    5                    5                    9  -3.6830538618914943E-012
                    9                    5                    7                    5  -1.8348933483736118E-012
                    9                    5                    8                    5   1.1305539837636047E-012
                    9                    5                   10                    4   1.3214776495296121E-012
                    9                    8                    8                    8   1.2145694928650044E-012
                    9                    8                    8                    9  -1.0217382495625316E-012
                    9                   10                   10                    9  -2.3623325517974081E-012
                   10                    3                    3                   10   1.9239054793729338E-012
                   10                    3                    4                   10  -1.0854581122821116E-012
                   10                    4                    2                   10   1.4778109291846420E-012
                   10                    4                    3                   10  -2.6342747427854363E-012
                   10                    4                    4                   10   3.6830538618914943E-012
                   10                    4                    9                    5  -1.3214776495296121E-012
                   10                    5                    3                    9  -1.2795294337952789E-012
                   10                    5                    4                    9   1.9329364497888690E-012
                   10                    5                    8                    4   1.2004980343149896E-012
                   10                    5                    9                    4  -1.9329364497888690E-012
                   10                    8                    8                   10   1.2742029653622922E-012
                   10                    9                    8                   10  -1.6361842436474205E-012
                   10                    9                    9                   10   2.3623325517974081E-012
 TWO-BODY ANTISYMMETRY CHECK
 TRANSFORMED ~FOCK~ MATRIX
    1    1       -20.5562284289
    1    2        -0.0033684022
    1    3         0.0010623469
    1    4         0.0019811626
    1    6         0.0010750287
    1    7         0.0006674988
    1    8         0.0002210105
    2    1        -0.0033684022
    2    2        -1.3077226556
    2    3        -0.0038931561
    2    4        -0.0020059143
    2    6         0.0009012362
    2    7         0.0000458026
    2    8         0.0014322857
    3    1         0.0010623469
    3    2        -0.0038931561
    3    3        -0.6889147498
    3    4        -0.0034230685
    3    6        -0.0044899759
    3    7         0.0029295099
    3    8        -0.0034855372
    4    1         0.0019811626
    4    2        -0.0020059143
    4    3        -0.0034230685
    4    4        -0.5624375674
    4    6         0.0040982432
    4    7        -0.0034889209
    4    8         0.0039635502
    5    5        -0.5317596483
    6    1         0.0010750287
    6    2         0.0009012362
    6    3        -0.0044899759
    6    4         0.0040982432
    6    6         0.1429135796
    6    7        -0.0014270273
    6    8         0.0055160802
    7    1         0.0006674988
    7    2         0.0000458026
    7    3         0.0029295099
    7    4        -0.0034889209
    7    6        -0.0014270273
    7    7         0.2439020067
    7    8        -0.0019885327
    8    1         0.0002210105
    8    2         0.0014322857
    8    3        -0.0034855372
    8    4         0.0039635502
    8    6         0.0055160802
    8    7        -0.0019885327
    8    8         0.6516166772
 begin_one_electron_integrals
    1    1       -32.8766749183
    1    2         0.5849733491
    1    3        -0.0947821119
    1    4        -0.1339780660
    1    6        -0.1618887306
    1    7        -0.0762622688
    1    8        -0.0635247743
    2    1         0.5849733491
    2    2        -7.7190279744
    2    3         0.0620227702
    2    4         0.3100810178
    2    6         0.7423556228
    2    7         0.4262780138
    2    8         0.2060275602
    3    1        -0.0947821119
    3    2         0.0620227702
    3    3        -6.4405540524
    3    4        -0.3197463595
    3    6        -0.4967073320
    3    7         0.9914004732
    3    8        -0.2126436016
    4    1        -0.1339780660
    4    2         0.3100810178
    4    3        -0.3197463595
    4    4        -6.4268584988
    4    6         0.9645271345
    4    7        -0.2199001470
    4    8         0.3772942087
    5    5        -7.0006084630
    6    1        -0.1618887306
    6    2         0.7423556228
    6    3        -0.4967073320
    6    4         0.9645271345
    6    6        -3.8705701307
    6    7         0.1808608982
    6    8        -1.0375665602
    7    1        -0.0762622688
    7    2         0.4262780138
    7    3         0.9914004732
    7    4        -0.2199001470
    7    6         0.1808608982
    7    7        -3.3131871445
    7    8         0.4913683391
    8    1        -0.0635247743
    8    2         0.2060275602
    8    3        -0.2126436016
    8    4         0.3772942087
    8    6        -1.0375665602
    8    7         0.4913683391
    8    8        -3.1663806109
 end_one_electron_integrals
 begin_two_electron_integrals
    1    1    1    1        4.7398508403
    1    1    1    2       -0.4374497188
    1    1    1    3        0.0705012078
    1    1    1    4        0.1045290998
    1    1    1    6        0.1296228899
    1    1    1    7        0.0631155152
    1    1    1    8        0.0503540363
    1    2    1    1       -0.4374497188
    1    2    1    2        0.0634696236
    1    2    1    3       -0.0083570775
    1    2    1    4       -0.0137428580
    1    2    1    6       -0.0203113349
    1    2    1    7       -0.0109068733
    1    2    1    8       -0.0077434043
    1    3    1    1        0.0705012078
    1    3    1    2       -0.0083570775
    1    3    1    3        0.0182282919
    1    3    1    4        0.0044396000
    1    3    1    6        0.0061713457
    1    3    1    7       -0.0092104959
    1    3    1    8        0.0051809613
    1    4    1    1        0.1045290998
    1    4    1    2       -0.0137428580
    1    4    1    3        0.0044396000
    1    4    1    4        0.0229334433
    1    4    1    6       -0.0062546464
    1    4    1    7        0.0030571105
    1    4    1    8       -0.0059297736
    1    5    1    5        0.0275217751
    1    6    1    1        0.1296228899
    1    6    1    2       -0.0203113349
    1    6    1    3        0.0061713457
    1    6    1    4       -0.0062546464
    1    6    1    6        0.0131094144
    1    6    1    7        0.0000383566
    1    6    1    8        0.0077003226
    1    7    1    1        0.0631155152
    1    7    1    2       -0.0109068733
    1    7    1    3       -0.0092104959
    1    7    1    4        0.0030571105
    1    7    1    6        0.0000383566
    1    7    1    7        0.0080977054
    1    7    1    8       -0.0020455894
    1    8    1    1        0.0503540363
    1    8    1    2       -0.0077434043
    1    8    1    3        0.0051809613
    1    8    1    4       -0.0059297736
    1    8    1    6        0.0077003226
    1    8    1    7       -0.0020455894
    1    8    1    8        0.0051600123
    1    1    2    1       -0.4374497188
    1    1    2    2        1.0552787461
    1    1    2    3       -0.0327580283
    1    1    2    4       -0.0918416056
    1    1    2    6       -0.1536294653
    1    1    2    7       -0.0894230080
    1    1    2    8       -0.0509365272
    1    2    2    1        0.0657673856
    1    2    2    2       -0.0160060385
    1    2    2    3        0.0044975289
    1    2    2    4        0.0053628612
    1    2    2    6        0.0031844270
    1    2    2    7        0.0009110452
    1    2    2    8        0.0014364950
    1    3    2    1       -0.0081502730
    1    3    2    2        0.0088202944
    1    3    2    3        0.0206359054
    1    3    2    4        0.0011650840
    1    3    2    6        0.0019132072
    1    3    2    7       -0.0102664978
    1    3    2    8        0.0023960638
    1    4    2    1       -0.0136469758
    1    4    2    2        0.0088909525
    1    4    2    3        0.0016768803
    1    4    2    4        0.0206820376
    1    4    2    6       -0.0117268940
    1    4    2    7        0.0001319638
    1    4    2    8       -0.0064343595
    1    5    2    5        0.0294276469
    1    6    2    1       -0.0215074327
    1    6    2    2        0.0028419725
    1    6    2    3        0.0033066711
    1    6    2    4       -0.0128604672
    1    6    2    6        0.0060429505
    1    6    2    7       -0.0032636354
    1    6    2    8        0.0038508128
    1    7    2    1       -0.0115905780
    1    7    2    2       -0.0011415525
    1    7    2    3       -0.0126509219
    1    7    2    4        0.0007196966
    1    7    2    6       -0.0030672454
    1    7    2    7        0.0059412109
    1    7    2    8       -0.0024817727
    1    8    2    1       -0.0080697949
    1    8    2    2        0.0013005643
    1    8    2    3        0.0043253707
    1    8    2    4       -0.0084358825
    1    8    2    6        0.0046295585
    1    8    2    7       -0.0030268808
    1    8    2    8        0.0030876467
    1    1    3    1        0.0705012078
    1    1    3    2       -0.0327580283
    1    1    3    3        0.8633930476
    1    1    3    4        0.0739898890
    1    1    3    6        0.0927471577
    1    1    3    7       -0.1863356459
    1    1    3    8        0.0594381213
    1    2    3    1       -0.0081502730
    1    2    3    2        0.0046905528
    1    2    3    3       -0.0082690955
    1    2    3    4       -0.0023105004
    1    2    3    6       -0.0016956008
    1    2    3    7        0.0014250996
    1    2    3    8       -0.0016075790
    1    3    3    1        0.0209713295
    1    3    3    2        0.0216054385
    1    3    3    3       -0.0017924102
    1    3    3    4       -0.0024058130
    1    3    3    6       -0.0038954142
    1    3    3    7       -0.0004021755
    1    3    3    8       -0.0011649724
    1    4    3    1        0.0047344917
    1    4    3    2        0.0017486356
    1    4    3    3        0.0041486341
    1    4    3    4       -0.0044500432
    1    4    3    6        0.0009495832
    1    4    3    7       -0.0004372755
    1    4    3    8       -0.0014067996
    1    5    3    5       -0.0047014296
    1    6    3    1        0.0066768680
    1    6    3    2        0.0033012679
    1    6    3    3       -0.0001319708
    1    6    3    4        0.0024773665
    1    6    3    6       -0.0011725826
    1    6    3    7       -0.0000620263
    1    6    3    8        0.0008249183
    1    7    3    1       -0.0103721194
    1    7    3    2       -0.0129440114
    1    7    3    3        0.0032593972
    1    7    3    4        0.0015050496
    1    7    3    6        0.0029098814
    1    7    3    7        0.0002127514
    1    7    3    8        0.0009088166
    1    8    3    1        0.0055750066
    1    8    3    2        0.0043876775
    1    8    3    3       -0.0009130199
    1    8    3    4        0.0010378775
    1    8    3    6       -0.0011467673
    1    8    3    7       -0.0001168161
    1    8    3    8        0.0003686702
    1    1    4    1        0.1045290998
    1    1    4    2       -0.0918416056
    1    1    4    3        0.0739898890
    1    1    4    4        0.9033540486
    1    1    4    6       -0.1780999763
    1    1    4    7        0.0401285931
    1    1    4    8       -0.0939473934
    1    2    4    1       -0.0136469758
    1    2    4    2        0.0055467356
    1    2    4    3       -0.0022920328
    1    2    4    4       -0.0105436495
    1    2    4    6        0.0006599685
    1    2    4    7       -0.0006146292
    1    2    4    8        0.0012932211
    1    3    4    1        0.0047344917
    1    3    4    2        0.0012645486
    1    3    4    3       -0.0021062605
    1    3    4    4       -0.0000720581
    1    3    4    6       -0.0022147376
    1    3    4    7        0.0028231689
    1    3    4    8       -0.0037052671
    1    4    4    1        0.0254374253
    1    4    4    2        0.0215059834
    1    4    4    3       -0.0046073179
    1    4    4    4       -0.0052688067
    1    4    4    6       -0.0022650449
    1    4    4    7       -0.0024854103
    1    4    4    8        0.0003967079
    1    5    4    5       -0.0066072203
    1    6    4    1       -0.0073770112
    1    6    4    2       -0.0130796174
    1    6    4    3        0.0025095379
    1    6    4    4        0.0063540542
    1    6    4    6        0.0008452820
    1    6    4    7        0.0024715675
    1    6    4    8       -0.0015095440
    1    7    4    1        0.0032951459
    1    7    4    2        0.0006853176
    1    7    4    3        0.0014702048
    1    7    4    4        0.0011914646
    1    7    4    6        0.0010994327
    1    7    4    7       -0.0018498771
    1    7    4    8        0.0019627166
    1    8    4    1       -0.0065809245
    1    8    4    2       -0.0085434561
    1    8    4    3        0.0010607534
    1    8    4    4        0.0037173313
    1    8    4    6        0.0002204471
    1    8    4    7        0.0020188375
    1    8    4    8       -0.0012895992
    1    1    5    5        1.0394968561
    1    2    5    5       -0.0120915948
    1    3    5    5        0.0023399911
    1    4    5    5        0.0033247308
    1    5    5    1        0.0302736074
    1    5    5    2        0.0299658924
    1    5    5    3       -0.0048494173
    1    5    5    4       -0.0069273488
    1    5    5    6       -0.0074514123
    1    5    5    7       -0.0030763351
    1    5    5    8       -0.0044343324
    1    6    5    5        0.0023926566
    1    7    5    5        0.0010713790
    1    8    5    5        0.0007079476
    1    1    6    1        0.1296228899
    1    1    6    2       -0.1536294653
    1    1    6    3        0.0927471577
    1    1    6    4       -0.1780999763
    1    1    6    6        0.4979464153
    1    1    6    7       -0.0359458007
    1    1    6    8        0.1646130375
    1    2    6    1       -0.0215074327
    1    2    6    2        0.0021223539
    1    2    6    3       -0.0012904587
    1    2    6    4       -0.0000353141
    1    2    6    6       -0.0035761855
    1    2    6    7        0.0008620798
    1    2    6    8       -0.0022926155
    1    3    6    1        0.0066768680
    1    3    6    2        0.0020064450
    1    3    6    3       -0.0037815313
    1    3    6    4       -0.0020284451
    1    3    6    6       -0.0013864118
    1    3    6    7        0.0034020389
    1    3    6    8       -0.0001500395
    1    4    6    1       -0.0073770112
    1    4    6    2       -0.0117873925
    1    4    6    3        0.0010188062
    1    4    6    4       -0.0018893815
    1    4    6    6        0.0079772824
    1    4    6    7        0.0009899249
    1    4    6    8        0.0033935798
    1    5    6    5       -0.0069645559
    1    6    6    1        0.0127853011
    1    6    6    2        0.0052729295
    1    6    6    3       -0.0009109750
    1    6    6    4        0.0002771643
    1    6    6    6       -0.0031326240
    1    6    6    7        0.0001015828
    1    6    6    8       -0.0009649523
    1    7    6    1        0.0000567693
    1    7    6    2       -0.0030886461
    1    7    6    3        0.0026321004
    1    7    6    4        0.0008310336
    1    7    6    6        0.0022194962
    1    7    6    7       -0.0017748056
    1    7    6    8        0.0008491969
    1    8    6    1        0.0074725178
    1    8    6    2        0.0042782005
    1    8    6    3       -0.0009941928
    1    8    6    4        0.0000069105
    1    8    6    6       -0.0025550031
    1    8    6    7        0.0002938139
    1    8    6    8       -0.0008274378
    1    1    7    1        0.0631155152
    1    1    7    2       -0.0894230080
    1    1    7    3       -0.1863356459
    1    1    7    4        0.0401285931
    1    1    7    6       -0.0359458007
    1    1    7    7        0.4248926247
    1    1    7    8       -0.0754460871
    1    2    7    1       -0.0115905780
    1    2    7    2        0.0003219790
    1    2    7    3        0.0004866134
    1    2    7    4       -0.0004994693
    1    2    7    6        0.0008638825
    1    2    7    7       -0.0020985689
    1    2    7    8        0.0010537335
    1    3    7    1       -0.0103721194
    1    3    7    2       -0.0106698437
    1    3    7    3       -0.0002975058
    1    3    7    4        0.0028187692
    1    3    7    6        0.0034116372
    1    3    7    7        0.0046439303
    1    3    7    8        0.0004852245
    1    4    7    1        0.0032951459
    1    4    7    2        0.0001305189
    1    4    7    3       -0.0003604050
    1    4    7    4       -0.0022215086
    1    4    7    6        0.0009863686
    1    4    7    7        0.0009308448
    1    4    7    8        0.0010471459
    1    5    7    5       -0.0028470628
    1    6    7    1        0.0000567693
    1    6    7    2       -0.0032645291
    1    6    7    3       -0.0005153543
    1    6    7    4        0.0023047673
    1    6    7    6        0.0001075884
    1    6    7    7        0.0014533304
    1    6    7    8       -0.0007448792
    1    7    7    1        0.0077668104
    1    7    7    2        0.0054451117
    1    7    7    3       -0.0001289704
    1    7    7    4       -0.0017502361
    1    7    7    6       -0.0017850282
    1    7    7    7       -0.0019615057
    1    7    7    8       -0.0002930304
    1    8    7    1       -0.0019675366
    1    8    7    2       -0.0029566456
    1    8    7    3       -0.0002619659
    1    8    7    4        0.0019207398
    1    8    7    6        0.0002992684
    1    8    7    7        0.0012138271
    1    8    7    8       -0.0004759335
    1    1    8    1        0.0503540363
    1    1    8    2       -0.0509365272
    1    1    8    3        0.0594381213
    1    1    8    4       -0.0939473934
    1    1    8    6        0.1646130375
    1    1    8    7       -0.0754460871
    1    1    8    8        0.4205676774
    1    2    8    1       -0.0080697949
    1    2    8    2        0.0011670462
    1    2    8    3       -0.0013309706
    1    2    8    4        0.0009998109
    1    2    8    6       -0.0022907239
    1    2    8    7        0.0010422132
    1    2    8    8       -0.0016660445
    1    3    8    1        0.0055750066
    1    3    8    2        0.0024979650
    1    3    8    3       -0.0010708345
    1    3    8    4       -0.0034744161
    1    3    8    6       -0.0001894304
    1    3    8    7        0.0004779737
    1    3    8    8       -0.0020393676
    1    4    8    1       -0.0065809245
    1    4    8    2       -0.0064049111
    1    4    8    3       -0.0012301981
    1    4    8    4        0.0004944264
    1    4    8    6        0.0034128775
    1    4    8    7        0.0009985794
    1    4    8    8        0.0044719853
    1    5    8    5       -0.0040840886
    1    6    8    1        0.0074725178
    1    6    8    2        0.0034515348
    1    6    8    3        0.0009602211
    1    6    8    4       -0.0016659071
    1    6    8    6       -0.0009823088
    1    6    8    7       -0.0007327655
    1    6    8    8       -0.0021654565
    1    7    8    1       -0.0019675366
    1    7    8    2       -0.0023843671
    1    7    8    3        0.0008178292
    1    7    8    4        0.0018108233
    1    7    8    6        0.0008636179
    1    7    8    7       -0.0002945641
    1    7    8    8        0.0017655234
    1    8    8    1        0.0050073182
    1    8    8    2        0.0028709890
    1    8    8    3        0.0004624104
    1    8    8    4       -0.0013655153
    1    8    8    6       -0.0008364576
    1    8    8    7       -0.0004698463
    1    8    8    8       -0.0016747756
    2    1    1    1       -0.4374497188
    2    1    1    2        0.0657673856
    2    1    1    3       -0.0081502730
    2    1    1    4       -0.0136469758
    2    1    1    6       -0.0215074327
    2    1    1    7       -0.0115905780
    2    1    1    8       -0.0080697949
    2    2    1    1        1.0552787461
    2    2    1    2       -0.0160060385
    2    2    1    3        0.0088202944
    2    2    1    4        0.0088909525
    2    2    1    6        0.0028419725
    2    2    1    7       -0.0011415525
    2    2    1    8        0.0013005643
    2    3    1    1       -0.0327580283
    2    3    1    2        0.0044975289
    2    3    1    3        0.0206359054
    2    3    1    4        0.0016768803
    2    3    1    6        0.0033066711
    2    3    1    7       -0.0126509219
    2    3    1    8        0.0043253707
    2    4    1    1       -0.0918416056
    2    4    1    2        0.0053628612
    2    4    1    3        0.0011650840
    2    4    1    4        0.0206820376
    2    4    1    6       -0.0128604672
    2    4    1    7        0.0007196966
    2    4    1    8       -0.0084358825
    2    5    1    5        0.0294276469
    2    6    1    1       -0.1536294653
    2    6    1    2        0.0031844270
    2    6    1    3        0.0019132072
    2    6    1    4       -0.0117268940
    2    6    1    6        0.0060429505
    2    6    1    7       -0.0030672454
    2    6    1    8        0.0046295585
    2    7    1    1       -0.0894230080
    2    7    1    2        0.0009110452
    2    7    1    3       -0.0102664978
    2    7    1    4        0.0001319638
    2    7    1    6       -0.0032636354
    2    7    1    7        0.0059412109
    2    7    1    8       -0.0030268808
    2    8    1    1       -0.0509365272
    2    8    1    2        0.0014364950
    2    8    1    3        0.0023960638
    2    8    1    4       -0.0064343595
    2    8    1    6        0.0038508128
    2    8    1    7       -0.0024817727
    2    8    1    8        0.0030876467
    2    1    2    1        0.0634696236
    2    1    2    2       -0.0160060385
    2    1    2    3        0.0046905528
    2    1    2    4        0.0055467356
    2    1    2    6        0.0021223539
    2    1    2    7        0.0003219790
    2    1    2    8        0.0011670462
    2    2    2    1       -0.0160060385
    2    2    2    2        0.7428852374
    2    2    2    3        0.0279971903
    2    2    2    4       -0.0141842490
    2    2    2    6       -0.0818127036
    2    2    2    7       -0.0551605253
    2    2    2    8       -0.0203412061
    2    3    2    1        0.0046905528
    2    3    2    2        0.0279971903
    2    3    2    3        0.1302647788
    2    3    2    4        0.0077286335
    2    3    2    6        0.0170428681
    2    3    2    7       -0.0378276574
    2    3    2    8        0.0066799616
    2    4    2    1        0.0055467356
    2    4    2    2       -0.0141842490
    2    4    2    3        0.0077286335
    2    4    2    4        0.1105971489
    2    4    2    6       -0.0339710961
    2    4    2    7        0.0102867987
    2    4    2    8       -0.0149816555
    2    5    2    5        0.1245579639
    2    6    2    1        0.0021223539
    2    6    2    2       -0.0818127036
    2    6    2    3        0.0170428681
    2    6    2    4       -0.0339710961
    2    6    2    6        0.0479148777
    2    6    2    7        0.0017248559
    2    6    2    8        0.0238382215
    2    7    2    1        0.0003219790
    2    7    2    2       -0.0551605253
    2    7    2    3       -0.0378276574
    2    7    2    4        0.0102867987
    2    7    2    6        0.0017248559
    2    7    2    7        0.0330524640
    2    7    2    8       -0.0062084714
    2    8    2    1        0.0011670462
    2    8    2    2       -0.0203412061
    2    8    2    3        0.0066799616
    2    8    2    4       -0.0149816555
    2    8    2    6        0.0238382215
    2    8    2    7       -0.0062084714
    2    8    2    8        0.0212280579
    2    1    3    1       -0.0083570775
    2    1    3    2        0.0044975289
    2    1    3    3       -0.0082690955
    2    1    3    4       -0.0022920328
    2    1    3    6       -0.0012904587
    2    1    3    7        0.0004866134
    2    1    3    8       -0.0013309706
    2    2    3    1        0.0088202944
    2    2    3    2        0.0279971903
    2    2    3    3        0.6488789558
    2    2    3    4        0.0335428939
    2    2    3    6        0.0534986631
    2    2    3    7       -0.1065389689
    2    2    3    8        0.0183360412
    2    3    3    1        0.0216054385
    2    3    3    2        0.1353255320
    2    3    3    3       -0.0029055186
    2    3    3    4        0.0092839487
    2    3    3    6       -0.0013838784
    2    3    3    7        0.0114113493
    2    3    3    8        0.0087528074
    2    4    3    1        0.0012645486
    2    4    3    2        0.0086616876
    2    4    3    3       -0.0061838562
    2    4    3    4       -0.0319578082
    2    4    3    6       -0.0108429749
    2    4    3    7        0.0184316515
    2    4    3    8       -0.0296481078
    2    5    3    5       -0.0160930304
    2    6    3    1        0.0020064450
    2    6    3    2        0.0162450005
    2    6    3    3       -0.0615292943
    2    6    3    4       -0.0032464186
    2    6    3    6       -0.0148068452
    2    6    3    7        0.0248053566
    2    6    3    8       -0.0045665904
    2    7    3    1       -0.0106698437
    2    7    3    2       -0.0372031299
    2    7    3    3       -0.0252450690
    2    7    3    4        0.0022272165
    2    7    3    6        0.0076119910
    2    7    3    7        0.0191180397
    2    7    3    8       -0.0001896109
    2    8    3    1        0.0024979650
    2    8    3    2        0.0066157837
    2    8    3    3       -0.0115070007
    2    8    3    4       -0.0136466570
    2    8    3    6       -0.0087798070
    2    8    3    7        0.0069214963
    2    8    3    8       -0.0123845800
    2    1    4    1       -0.0137428580
    2    1    4    2        0.0053628612
    2    1    4    3       -0.0023105004
    2    1    4    4       -0.0105436495
    2    1    4    6       -0.0000353141
    2    1    4    7       -0.0004994693
    2    1    4    8        0.0009998109
    2    2    4    1        0.0088909525
    2    2    4    2       -0.0141842490
    2    2    4    3        0.0335428939
    2    2    4    4        0.6407425829
    2    2    4    6       -0.1091855103
    2    2    4    7        0.0265070125
    2    2    4    8       -0.0414815321
    2    3    4    1        0.0017486356
    2    3    4    2        0.0086616876
    2    3    4    3        0.0102852615
    2    3    4    4       -0.0285894085
    2    3    4    6       -0.0135346413
    2    3    4    7        0.0179064254
    2    3    4    8       -0.0326896861
    2    4    4    1        0.0215059834
    2    4    4    2        0.1148044269
    2    4    4    3       -0.0318977599
    2    4    4    4       -0.0463169944
    2    4    4    6        0.0185631788
    2    4    4    7       -0.0138133061
    2    4    4    8        0.0259039017
    2    5    4    5       -0.0222429293
    2    6    4    1       -0.0117873925
    2    6    4    2       -0.0331203558
    2    6    4    3       -0.0033888212
    2    6    4    4       -0.0486684085
    2    6    4    6        0.0270573098
    2    6    4    7        0.0048269878
    2    6    4    8        0.0096249889
    2    7    4    1        0.0001305189
    2    7    4    2        0.0102610468
    2    7    4    3        0.0019896943
    2    7    4    4       -0.0371925609
    2    7    4    6        0.0154003008
    2    7    4    7       -0.0071027404
    2    7    4    8        0.0122062385
    2    8    4    1       -0.0064049111
    2    8    4    2       -0.0147606073
    2    8    4    3       -0.0137129465
    2    8    4    4        0.0000469452
    2    8    4    6        0.0129580763
    2    8    4    7        0.0037565455
    2    8    4    8        0.0162894395
    2    1    5    5       -0.0120915948
    2    2    5    5        0.7116727232
    2    3    5    5       -0.0120527588
    2    4    5    5       -0.0414592387
    2    5    5    1        0.0299658924
    2    5    5    2        0.1288285900
    2    5    5    3       -0.0157447605
    2    5    5    4       -0.0230206851
    2    5    5    6       -0.0247005843
    2    5    5    7       -0.0090635354
    2    5    5    8       -0.0189530745
    2    6    5    5       -0.0805080317
    2    7    5    5       -0.0452032402
    2    8    5    5       -0.0259135317
    2    1    6    1       -0.0203113349
    2    1    6    2        0.0031844270
    2    1    6    3       -0.0016956008
    2    1    6    4        0.0006599685
    2    1    6    6       -0.0035761855
    2    1    6    7        0.0008638825
    2    1    6    8       -0.0022907239
    2    2    6    1        0.0028419725
    2    2    6    2       -0.0818127036
    2    2    6    3        0.0534986631
    2    2    6    4       -0.1091855103
    2    2    6    6        0.4066685062
    2    2    6    7       -0.0098392677
    2    2    6    8        0.1075374503
    2    3    6    1        0.0033012679
    2    3    6    2        0.0162450005
    2    3    6    3       -0.0006405525
    2    3    6    4       -0.0136723784
    2    3    6    6       -0.0261189612
    2    3    6    7        0.0352803104
    2    3    6    8       -0.0090008782
    2    4    6    1       -0.0130796174
    2    4    6    2       -0.0331203558
    2    4    6    3       -0.0109471945
    2    4    6    4        0.0192934480
    2    4    6    6        0.0327973751
    2    4    6    7        0.0011227483
    2    4    6    8        0.0106109641
    2    5    6    5       -0.0230948786
    2    6    6    1        0.0052729295
    2    6    6    2        0.0428674001
    2    6    6    3       -0.0138427707
    2    6    6    4        0.0252861269
    2    6    6    6       -0.0314106314
    2    6    6    7        0.0022518963
    2    6    6    8       -0.0143023172
    2    7    6    1       -0.0032645291
    2    7    6    2        0.0007514000
    2    7    6    3        0.0046352765
    2    7    6    4        0.0139081367
    2    7    6    6       -0.0120511468
    2    7    6    7        0.0030937355
    2    7    6    8       -0.0084593807
    2    8    6    1        0.0034515348
    2    8    6    2        0.0216356795
    2    8    6    3       -0.0087754269
    2    8    6    4        0.0133110556
    2    8    6    6       -0.0007577338
    2    8    6    7       -0.0050127386
    2    8    6    8        0.0079886473
    2    1    7    1       -0.0109068733
    2    1    7    2        0.0009110452
    2    1    7    3        0.0014250996
    2    1    7    4       -0.0006146292
    2    1    7    6        0.0008620798
    2    1    7    7       -0.0020985689
    2    1    7    8        0.0010422132
    2    2    7    1       -0.0011415525
    2    2    7    2       -0.0551605253
    2    2    7    3       -0.1065389689
    2    2    7    4        0.0265070125
    2    2    7    6       -0.0098392677
    2    2    7    7        0.3692227471
    2    2    7    8       -0.0484047029
    2    3    7    1       -0.0129440114
    2    3    7    2       -0.0372031299
    2    3    7    3        0.0105891270
    2    3    7    4        0.0175127294
    2    3    7    6        0.0352593580
    2    3    7    7        0.0400450587
    2    3    7    8        0.0077461825
    2    4    7    1        0.0006853176
    2    4    7    2        0.0102610468
    2    4    7    3        0.0176966143
    2    4    7    4       -0.0134965253
    2    4    7    6        0.0011225433
    2    4    7    7       -0.0005181353
    2    4    7    8        0.0044960086
    2    5    7    5       -0.0084126957
    2    6    7    1       -0.0030886461
    2    6    7    2        0.0007514000
    2    6    7    3        0.0232516364
    2    6    7    4        0.0025131421
    2    6    7    6        0.0024344358
    2    6    7    7       -0.0109700264
    2    6    7    8        0.0032255282
    2    7    7    1        0.0054451117
    2    7    7    2        0.0274199285
    2    7    7    3        0.0160427481
    2    7    7    4       -0.0062575714
    2    7    7    6        0.0028372565
    2    7    7    7       -0.0097976852
    2    7    7    8        0.0041011772
    2    8    7    1       -0.0023843671
    2    8    7    2       -0.0053112699
    2    8    7    3        0.0074202906
    2    8    7    4        0.0020846816
    2    8    7    6       -0.0048436703
    2    8    7    7        0.0001488223
    2    8    7    8       -0.0038290467
    2    1    8    1       -0.0077434043
    2    1    8    2        0.0014364950
    2    1    8    3       -0.0016075790
    2    1    8    4        0.0012932211
    2    1    8    6       -0.0022926155
    2    1    8    7        0.0010537335
    2    1    8    8       -0.0016660445
    2    2    8    1        0.0013005643
    2    2    8    2       -0.0203412061
    2    2    8    3        0.0183360412
    2    2    8    4       -0.0414815321
    2    2    8    6        0.1075374503
    2    2    8    7       -0.0484047029
    2    2    8    8        0.3802496553
    2    3    8    1        0.0043876775
    2    3    8    2        0.0066157837
    2    3    8    3        0.0092998754
    2    3    8    4       -0.0319378867
    2    3    8    6       -0.0091843417
    2    3    8    7        0.0077521126
    2    3    8    8       -0.0529046415
    2    4    8    1       -0.0085434561
    2    4    8    2       -0.0147606073
    2    4    8    3       -0.0290928551
    2    4    8    4        0.0259225693
    2    4    8    6        0.0107788194
    2    4    8    7        0.0043690556
    2    4    8    8        0.0514425509
    2    5    8    5       -0.0178687013
    2    6    8    1        0.0042782005
    2    6    8    2        0.0216356795
    2    6    8    3       -0.0047168988
    2    6    8    4        0.0096898957
    2    6    8    6       -0.0142981852
    2    6    8    7        0.0031447257
[...]
    7    7    8    3        0.0058272220
    7    7    8    4       -0.0124602314
    7    7    8    6        0.0389326710
    7    7    8    7       -0.0135540543
    7    7    8    8        0.2576666965
    7    8    8    1       -0.0004698463
    7    8    8    2       -0.0039718937
    7    8    8    3        0.0075096587
    7    8    8    4       -0.0086915568
    7    8    8    6       -0.0223604656
    7    8    8    7        0.0131959545
    7    8    8    8       -0.0436956827
    8    1    1    1        0.0503540363
    8    1    1    2       -0.0080697949
    8    1    1    3        0.0055750066
    8    1    1    4       -0.0065809245
    8    1    1    6        0.0074725178
    8    1    1    7       -0.0019675366
    8    1    1    8        0.0050073182
    8    2    1    1       -0.0509365272
    8    2    1    2        0.0011670462
    8    2    1    3        0.0024979650
    8    2    1    4       -0.0064049111
    8    2    1    6        0.0034515348
    8    2    1    7       -0.0023843671
    8    2    1    8        0.0028709890
    8    3    1    1        0.0594381213
    8    3    1    2       -0.0013309706
    8    3    1    3       -0.0010708345
    8    3    1    4       -0.0012301981
    8    3    1    6        0.0009602211
    8    3    1    7        0.0008178292
    8    3    1    8        0.0004624104
    8    4    1    1       -0.0939473934
    8    4    1    2        0.0009998109
    8    4    1    3       -0.0034744161
    8    4    1    4        0.0004944264
    8    4    1    6       -0.0016659071
    8    4    1    7        0.0018108233
    8    4    1    8       -0.0013655153
    8    5    1    5       -0.0040840886
    8    6    1    1        0.1646130375
    8    6    1    2       -0.0022907239
    8    6    1    3       -0.0001894304
    8    6    1    4        0.0034128775
    8    6    1    6       -0.0009823088
    8    6    1    7        0.0008636179
    8    6    1    8       -0.0008364576
    8    7    1    1       -0.0754460871
    8    7    1    2        0.0010422132
    8    7    1    3        0.0004779737
    8    7    1    4        0.0009985794
    8    7    1    6       -0.0007327655
    8    7    1    7       -0.0002945641
    8    7    1    8       -0.0004698463
    8    8    1    1        0.4205676774
    8    8    1    2       -0.0016660445
    8    8    1    3       -0.0020393676
    8    8    1    4        0.0044719853
    8    8    1    6       -0.0021654565
    8    8    1    7        0.0017655234
    8    8    1    8       -0.0016747756
    8    1    2    1       -0.0077434043
    8    1    2    2        0.0013005643
    8    1    2    3        0.0043876775
    8    1    2    4       -0.0085434561
    8    1    2    6        0.0042782005
    8    1    2    7       -0.0029566456
    8    1    2    8        0.0028709890
    8    2    2    1        0.0014364950
    8    2    2    2       -0.0203412061
    8    2    2    3        0.0066157837
    8    2    2    4       -0.0147606073
    8    2    2    6        0.0216356795
    8    2    2    7       -0.0053112699
    8    2    2    8        0.0194114490
    8    3    2    1       -0.0016075790
    8    3    2    2        0.0183360412
    8    3    2    3        0.0092998754
    8    3    2    4       -0.0290928551
    8    3    2    6       -0.0047168988
    8    3    2    7       -0.0008603112
    8    3    2    8       -0.0127652062
    8    4    2    1        0.0012932211
    8    4    2    2       -0.0414815321
    8    4    2    3       -0.0319378867
    8    4    2    4        0.0259225693
    8    4    2    6        0.0096898957
    8    4    2    7        0.0110193544
    8    4    2    8        0.0168047106
    8    5    2    5       -0.0178687013
    8    6    2    1       -0.0022926155
    8    6    2    2        0.1075374503
    8    6    2    3       -0.0091843417
    8    6    2    4        0.0107788194
    8    6    2    6       -0.0142981852
    8    6    2    7       -0.0083522313
    8    6    2    8        0.0081737462
    8    7    2    1        0.0010537335
    8    7    2    2       -0.0484047029
    8    7    2    3        0.0077521126
    8    7    2    4        0.0043690556
    8    7    2    6        0.0031447257
    8    7    2    7        0.0041429174
    8    7    2    8       -0.0039718937
    8    8    2    1       -0.0016660445
    8    8    2    2        0.3802496553
    8    8    2    3       -0.0529046415
    8    8    2    4        0.0514425509
    8    8    2    6       -0.0129087514
    8    8    2    7       -0.0113732451
    8    8    2    8        0.0304119070
    8    1    3    1        0.0051809613
    8    1    3    2        0.0043253707
    8    1    3    3       -0.0009130199
    8    1    3    4        0.0010607534
    8    1    3    6       -0.0009941928
    8    1    3    7       -0.0002619659
    8    1    3    8        0.0004624104
    8    2    3    1        0.0023960638
    8    2    3    2        0.0066799616
    8    2    3    3       -0.0115070007
    8    2    3    4       -0.0137129465
    8    2    3    6       -0.0087754269
    8    2    3    7        0.0074202906
    8    2    3    8       -0.0127652062
    8    3    3    1       -0.0011649724
    8    3    3    2        0.0087528074
    8    3    3    3        0.0066095112
    8    3    3    4        0.0225846770
    8    3    3    6        0.0246398781
    8    3    3    7       -0.0137352418
    8    3    3    8        0.0401276274
    8    4    3    1       -0.0037052671
    8    4    3    2       -0.0326896861
    8    4    3    3       -0.0071917347
    8    4    3    4       -0.0285857123
    8    4    3    6       -0.0241073037
    8    4    3    7        0.0136778634
    8    4    3    8       -0.0414875528
    8    5    3    5        0.0068204586
    8    6    3    1       -0.0001500395
    8    6    3    2       -0.0090008782
    8    6    3    3        0.0994954160
    8    6    3    4       -0.0127513148
    8    6    3    6        0.0025201069
    8    6    3    7       -0.0149645089
    8    6    3    8       -0.0235636378
    8    7    3    1        0.0004852245
    8    7    3    2        0.0077461825
    8    7    3    3       -0.0455846625
    8    7    3    4        0.0037295809
    8    7    3    6       -0.0017949087
    8    7    3    7        0.0109314002
    8    7    3    8        0.0075096587
    8    8    3    1       -0.0020393676
    8    8    3    2       -0.0529046415
    8    8    3    3        0.3978013957
    8    8    3    4       -0.0596713097
    8    8    3    6       -0.0380709115
    8    8    3    7       -0.0167196411
    8    8    3    8       -0.0854901145
    8    1    4    1       -0.0059297736
    8    1    4    2       -0.0084358825
    8    1    4    3        0.0010378775
    8    1    4    4        0.0037173313
    8    1    4    6        0.0000069105
    8    1    4    7        0.0019207398
    8    1    4    8       -0.0013655153
    8    2    4    1       -0.0064343595
    8    2    4    2       -0.0149816555
    8    2    4    3       -0.0136466570
    8    2    4    4        0.0000469452
    8    2    4    6        0.0133110556
    8    2    4    7        0.0020846816
    8    2    4    8        0.0168047106
    8    3    4    1       -0.0014067996
    8    3    4    2       -0.0296481078
    8    3    4    3        0.0232229771
    8    3    4    4       -0.0051752212
    8    3    4    6       -0.0271506377
    8    3    4    7        0.0100540596
    8    3    4    8       -0.0414875528
    8    4    4    1        0.0003967079
    8    4    4    2        0.0259039017
    8    4    4    3       -0.0283874985
    8    4    4    4       -0.0131774334
    8    4    4    6        0.0430947215
    8    4    4    7       -0.0173338517
    8    4    4    8        0.0604569777
    8    5    4    5       -0.0029957803
    8    6    4    1        0.0033935798
    8    6    4    2        0.0106109641
    8    6    4    3       -0.0126194768
    8    6    4    4        0.1050760316
    8    6    4    6       -0.0099411805
    8    6    4    7       -0.0001707463
    8    6    4    8        0.0260565426
    8    7    4    1        0.0010471459
    8    7    4    2        0.0044960086
    8    7    4    3        0.0035855636
    8    7    4    4       -0.0510170708
    8    7    4    6        0.0034657602
    8    7    4    7       -0.0025341081
    8    7    4    8       -0.0086915568
    8    8    4    1        0.0044719853
    8    8    4    2        0.0514425509
    8    8    4    3       -0.0596713097
    8    8    4    4        0.4149272344
    8    8    4    6        0.0415514892
    8    8    4    7       -0.0204007686
    8    8    4    8        0.1011637034
    8    1    5    5        0.0007079476
    8    2    5    5       -0.0259135317
    8    3    5    5        0.0242549034
    8    4    5    5       -0.0385590946
    8    5    5    1       -0.0044343324
    8    5    5    2       -0.0189530745
    8    5    5    3        0.0073558444
    8    5    5    4       -0.0034494297
    8    5    5    6        0.0081406265
    8    5    5    7       -0.0024772952
    8    5    5    8        0.0075232959
    8    6    5    5        0.0973110965
    8    7    5    5       -0.0466385101
    8    8    5    5        0.3617160153
    8    1    6    1        0.0077003226
    8    1    6    2        0.0046295585
    8    1    6    3       -0.0011467673
    8    1    6    4        0.0002204471
    8    1    6    6       -0.0025550031
    8    1    6    7        0.0002992684
    8    1    6    8       -0.0008364576
    8    2    6    1        0.0038508128
    8    2    6    2        0.0238382215
    8    2    6    3       -0.0087798070
    8    2    6    4        0.0129580763
    8    2    6    6       -0.0007577338
    8    2    6    7       -0.0048436703
    8    2    6    8        0.0081737462
    8    3    6    1        0.0008249183
    8    3    6    2       -0.0045665904
    8    3    6    3        0.0246577403
    8    3    6    4       -0.0259189624
    8    3    6    6       -0.0248754928
    8    3    6    7        0.0115016862
    8    3    6    8       -0.0235636378
    8    4    6    1       -0.0015095440
    8    4    6    2        0.0096249889
    8    4    6    3       -0.0232445775
    8    4    6    4        0.0431105925
    8    4    6    6        0.0232710736
    8    4    6    7       -0.0180877989
    8    4    6    8        0.0260565426
    8    5    6    5        0.0096460593
    8    6    6    1       -0.0009649523
    8    6    6    2       -0.0143023172
    8    6    6    3        0.0029026537
    8    6    6    4       -0.0102808070
    8    6    6    6        0.0593290149
    8    6    6    7       -0.0072177667
    8    6    6    8        0.0602755653
    8    7    6    1       -0.0007448792
    8    7    6    2        0.0032255282
    8    7    6    3       -0.0017511865
    8    7    6    4        0.0037606429
    8    7    6    6       -0.0247455768
    8    7    6    7        0.0052533088
    8    7    6    8       -0.0223604656
    8    8    6    1       -0.0021654565
    8    8    6    2       -0.0129087514
    8    8    6    3       -0.0380709115
    8    8    6    4        0.0415514892
    8    8    6    6        0.3970141448
    8    8    6    7       -0.0657902641
    8    8    6    8        0.1060032926
    8    1    7    1       -0.0020455894
    8    1    7    2       -0.0030268808
    8    1    7    3       -0.0001168161
    8    1    7    4        0.0020188375
    8    1    7    6        0.0002938139
    8    1    7    7        0.0012138271
    8    1    7    8       -0.0004698463
    8    2    7    1       -0.0024817727
    8    2    7    2       -0.0062084714
    8    2    7    3        0.0069214963
    8    2    7    4        0.0037565455
    8    2    7    6       -0.0050127386
    8    2    7    7        0.0001488223
    8    2    7    8       -0.0039718937
    8    3    7    1        0.0009088166
    8    3    7    2       -0.0001896109
    8    3    7    3       -0.0132554350
    8    3    7    4        0.0099302818
    8    3    7    6        0.0114017327
    8    3    7    7        0.0058272220
    8    3    7    8        0.0075096587
    8    4    7    1        0.0019627166
    8    4    7    2        0.0122062385
    8    4    7    3        0.0125757241
    8    4    7    4       -0.0178184281
    8    4    7    6       -0.0180648066
    8    4    7    7       -0.0124602314
    8    4    7    8       -0.0086915568
    8    5    7    5       -0.0026492491
    8    6    7    1        0.0008491969
    8    6    7    2       -0.0084593807
    8    6    7    3       -0.0149848710
    8    6    7    4        0.0001804677
    8    6    7    6       -0.0072348895
    8    6    7    7        0.0389326710
    8    6    7    8       -0.0223604656
    8    7    7    1       -0.0002930304
    8    7    7    2        0.0041011772
    8    7    7    3        0.0108769917
    8    7    7    4       -0.0025484098
    8    7    7    6        0.0052537837
    8    7    7    7       -0.0135540543
    8    7    7    8        0.0131959545
    8    8    7    1        0.0017655234
    8    8    7    2       -0.0113732451
    8    8    7    3       -0.0167196411
    8    8    7    4       -0.0204007686
    8    8    7    6       -0.0657902641
    8    8    7    7        0.2576666965
    8    8    7    8       -0.0436956827
    8    1    8    1        0.0051600123
    8    1    8    2        0.0030876467
    8    1    8    3        0.0003686702
    8    1    8    4       -0.0012895992
    8    1    8    6       -0.0008274378
    8    1    8    7       -0.0004759335
    8    1    8    8       -0.0016747756
    8    2    8    1        0.0030876467
    8    2    8    2        0.0212280579
    8    2    8    3       -0.0123845800
    8    2    8    4        0.0162894395
    8    2    8    6        0.0079886473
    8    2    8    7       -0.0038290467
    8    2    8    8        0.0304119070
    8    3    8    1        0.0003686702
    8    3    8    2       -0.0123845800
    8    3    8    3        0.0401669373
    8    3    8    4       -0.0406709817
    8    3    8    6       -0.0230351146
    8    3    8    7        0.0073542377
    8    3    8    8       -0.0854901145
    8    4    8    1       -0.0012895992
    8    4    8    2        0.0162894395
    8    4    8    3       -0.0406709817
    8    4    8    4        0.0606608526
    8    4    8    6        0.0255898714
    8    4    8    7       -0.0085662221
    8    4    8    8        0.1011637034
    8    5    8    5        0.0080428188
    8    6    8    1       -0.0008274378
    8    6    8    2        0.0079886473
    8    6    8    3       -0.0230351146
    8    6    8    4        0.0255898714
    8    6    8    6        0.0601875741
    8    6    8    7       -0.0222981640
    8    6    8    8        0.1060032926
    8    7    8    1       -0.0004759335
    8    7    8    2       -0.0038290467
    8    7    8    3        0.0073542377
    8    7    8    4       -0.0085662221
    8    7    8    6       -0.0222981640
    8    7    8    7        0.0131633392
    8    7    8    8       -0.0436956827
    8    8    8    1       -0.0016747756
    8    8    8    2        0.0304119070
    8    8    8    3       -0.0854901145
    8    8    8    4        0.1011637034
    8    8    8    6        0.1060032926
    8    8    8    7       -0.0436956827
    8    8    8    8        0.5583812148
 end_two_electron_integrals

 Parallel integral file used       1 records with       0 large values


 Task  times  cpu:        5.9s     wall:        6.0s


                                NWChem Input Module
                                -------------------


 Summary of allocated global arrays
-----------------------------------
  No active global arrays


MA_summarize_allocated_blocks: starting scan ...
MA_summarize_allocated_blocks: scan completed: 0 heap blocks, 0 stack blocks
MA usage statistics:

	allocation statistics:
					      heap	     stack
					      ----	     -----
	current number of blocks	         0	         0
	maximum number of blocks	        17	        42
	current total bytes		         0	         0
	maximum total bytes		   2110096	 141357496
	maximum total K-bytes		      2111	    141358
	maximum total M-bytes		         3	       142


                                     CITATION
                                     --------
                Please cite the following reference when publishing
                           results obtained with NWChem:

          E. Apra, E. J. Bylaska, W. A. de Jong, N. Govind, K. Kowalski,
       T. P. Straatsma, M. Valiev, H. J. J. van Dam, Y. Alexeev, J. Anchell,
       V. Anisimov, F. W. Aquino, R. Atta-Fynn, J. Autschbach, N. P. Bauman,
     J. C. Becca, D. E. Bernholdt, K. Bhaskaran-Nair, S. Bogatko, P. Borowski,
         J. Boschen, J. Brabec, A. Bruner, E. Cauet, Y. Chen, G. N. Chuev,
      C. J. Cramer, J. Daily, M. J. O. Deegan, T. H. Dunning Jr., M. Dupuis,
   K. G. Dyall, G. I. Fann, S. A. Fischer, A. Fonari, H. Fruchtl, L. Gagliardi,
      J. Garza, N. Gawande, S. Ghosh, K. Glaesemann, A. W. Gotz, J. Hammond,
       V. Helms, E. D. Hermes, K. Hirao, S. Hirata, M. Jacquelin, L. Jensen,
   B. G. Johnson, H. Jonsson, R. A. Kendall, M. Klemm, R. Kobayashi, V. Konkov,
      S. Krishnamoorthy, M. Krishnan, Z. Lin, R. D. Lins, R. J. Littlefield,
      A. J. Logsdail, K. Lopata, W. Ma, A. V. Marenich, J. Martin del Campo,
   D. Mejia-Rodriguez, J. E. Moore, J. M. Mullin, T. Nakajima, D. R. Nascimento,
    J. A. Nichols, P. J. Nichols, J. Nieplocha, A. Otero-de-la-Roza, B. Palmer,
    A. Panyala, T. Pirojsirikul, B. Peng, R. Peverati, J. Pittner, L. Pollack,
   R. M. Richard, P. Sadayappan, G. C. Schatz, W. A. Shelton, D. W. Silverstein,
   D. M. A. Smith, T. A. Soares, D. Song, M. Swart, H. L. Taylor, G. S. Thomas,
            V. Tipparaju, D. G. Truhlar, K. Tsemekhman, T. Van Voorhis,
      A. Vazquez-Mayagoitia, P. Verma, O. Villa, A. Vishnu, K. D. Vogiatzis,
        D. Wang, J. H. Weare, M. J. Williamson, T. L. Windus, K. Wolinski,
        A. T. Wong, Q. Wu, C. Yang, Q. Yu, M. Zacharias, Z. Zhang, Y. Zhao,
                                and R. J. Harrison
                        "NWChem: Past, present, and future
                         J. Chem. Phys. 152, 184102 (2020)
                               doi:10.1063/5.0004997

                                      AUTHORS
                                      -------
  E. Apra, E. J. Bylaska, N. Govind, K. Kowalski, M. Valiev, D. Mejia-Rodriguez,
       A. Kunitsa, N. P. Bauman, A. Panyala, W. A. de Jong, T. P. Straatsma,
        H. J. J. van Dam, D. Wang, T. L. Windus, J. Hammond, J. Autschbach,
    K. Bhaskaran-Nair, J. Brabec, K. Lopata, S. A. Fischer, S. Krishnamoorthy,
     M. Jacquelin, W. Ma, M. Klemm, O. Villa, Y. Chen, V. Anisimov, F. Aquino,
    S. Hirata, M. T. Hackler, Eric Hermes, L. Jensen, J. E. Moore, J. C. Becca,
      V. Konjkov, T. Risthaus, M. Malagoli, A. Marenich, A. Otero-de-la-Roza,
        J. Mullin, P. Nichols, R. Peverati, J. Pittner, Y. Zhao, P.-D. Fan,
        A. Fonari, M. J. Williamson, R. J. Harrison, J. R. Rehr, M. Dupuis,
     D. Silverstein, D. M. A. Smith, J. Nieplocha, V. Tipparaju, M. Krishnan,
     B. E. Van Kuiken, A. Vazquez-Mayagoitia, M. Swart, Q. Wu, T. Van Voorhis,
     A. A. Auer, M. Nooijen, L. D. Crosby, E. Brown, G. Cisneros, G. I. Fann,
   H. Fruchtl, J. Garza, K. Hirao, R. A. Kendall, J. A. Nichols, K. Tsemekhman,
    K. Wolinski, J. Anchell, D. E. Bernholdt, P. Borowski, T. Clark, D. Clerc,
   H. Dachsel, M. J. O. Deegan, K. Dyall, D. Elwood, E. Glendening, M. Gutowski,
   A. C. Hess, J. Jaffe, B. G. Johnson, J. Ju, R. Kobayashi, R. Kutteh, Z. Lin,
   R. Littlefield, X. Long, B. Meng, T. Nakajima, S. Niu, L. Pollack, M. Rosing,
   K. Glaesemann, G. Sandrone, M. Stave, H. Taylor, G. Thomas, J. H. van Lenthe,
                               A. T. Wong, Z. Zhang.

 Total times  cpu:        5.9s     wall:        6.0s
