 argument  1 = input.nw
  NWChem w/ OpenMP: maximum threads =    1



============================== echo of input deck ==============================
 echo
 start H2O
 title "H2O"

 memory total 24 gb

 geometry units bohr
 symmetry c1
        O  0.00000000  0.00000000  0.00000000
        H  0.00000000  2.433354  0.00000000
        H  1.72558000 -0.64860000  0.00000000
 end

 basis spherical
   * library cc-pVDZ
 end

 scf
   vectors input h2o.mos
   vectors output h2o.mos
 end

 tce
   2eorb
   2emet 13
   ccsd
   maxiter 300
 end

# set tce:print_integrals T
# set tce:qorb 8
# set tce:qela 5
# set tce:qelb 5

 set tce:qducc T
 set tce:nactv 3
 set tce:nonhf T
 set tce:ducc_model 6

 set tce:printtol 0.02

 task tce
================================================================================


                                         
                                         


             Northwest Computational Chemistry Package (NWChem) 7.0.1
             --------------------------------------------------------


                    Environmental Molecular Sciences Laboratory
                       Pacific Northwest National Laboratory
                                Richland, WA 99352

                              Copyright (c) 1994-2020
                       Pacific Northwest National Laboratory
                            Battelle Memorial Institute

             NWChem is an open-source computational chemistry package
                        distributed under the terms of the
                      Educational Community License (ECL) 2.0
             A copy of the license is included with this distribution
                              in the LICENSE.TXT file

                                  ACKNOWLEDGMENT
                                  --------------

            This software and its documentation were developed at the
            EMSL at Pacific Northwest National Laboratory, a multiprogram
            national laboratory, operated for the U.S. Department of Energy
            by Battelle under Contract Number DE-AC05-76RL01830. Support
            for this work was provided by the Department of Energy Office
            of Biological and Environmental Research, Office of Basic
            Energy Sciences, and the Office of Advanced Scientific Computing.


           Job information
           ---------------

    hostname        = WE46210
    program         = /home/baum612/code/nwchem/bin/LINUX64/nwchem
    date            = Fri Sep  6 10:02:00 2024

    compiled        = Wed_Sep_04_02:00:17_2024
    source          = /home/baum612/code/nwchem
    nwchem branch   = 7.0.0
    nwchem revision = nwchem_on_git-4191-g39d87d64de
    ga revision     = 5.8.1
    use scalapack   = F
    input           = input.nw
    prefix          = H2O.
    data base       = ./H2O.db
    status          = startup
    nproc           =        1
    time left       =     -1s



           Memory information
           ------------------

    heap     =  805306366 doubles =   6144.0 Mbytes
    stack    =  805306363 doubles =   6144.0 Mbytes
    global   = 1610612736 doubles =  12288.0 Mbytes (distinct from heap & stack)
    total    = 3221225465 doubles =  24576.0 Mbytes
    verify   = yes
    hardfail = no 


           Directory information
           ---------------------

  0 permanent = .
  0 scratch   = .




                                NWChem Input Module
                                -------------------


                                        H2O
                                        ---
 Turning off AUTOSYM since
 SYMMETRY directive was detected!


          ------
          auto-z
          ------
  autoz: The atoms group into disjoint clusters
 cluster   1:    1    3
 cluster   2:    2
 Connecting clusters   1   2 via atoms    1    2 r = 1.29
  autoz: regenerating connections with new bonds
  no constraints, skipping    0.0000000000000000     
  no constraints, skipping    0.0000000000000000     


                             Geometry "geometry" -> ""
                             -------------------------

 Output coordinates in a.u. (scale by  1.000000000 to convert to a.u.)

  No.       Tag          Charge          X              Y              Z
 ---- ---------------- ---------- -------------- -------------- --------------
    1 O                    8.0000    -0.17255800    -0.17847540     0.00000000
    2 H                    1.0000    -0.17255800     2.25487860     0.00000000
    3 H                    1.0000     1.55302200    -0.82707540     0.00000000

      Atomic Mass 
      ----------- 

      O                 15.994910
      H                  1.007825


 Effective nuclear repulsion energy (a.u.)       7.9104461039

            Nuclear Dipole moment (a.u.) 
            ----------------------------
        X                 Y               Z
 ---------------- ---------------- ----------------
    -0.0000000000     0.0000000000     0.0000000000



                                Z-matrix (autoz)
                                -------- 

 Units are Angstrom for bonds and degrees for angles

      Type          Name      I     J     K     L     M      Value
      ----------- --------  ----- ----- ----- ----- ----- ----------
    1 Stretch                  1     2                       1.28768
    2 Stretch                  1     3                       0.97551
    3 Bend                     2     1     3               110.59992


            XYZ format geometry
            -------------------
     3
 geometry
 O                    -0.09131377    -0.09444512     0.00000000
 H                    -0.09131377     1.19323045     0.00000000
 H                     0.82182391    -0.43766948     0.00000000

 ==============================================================================
                                internuclear distances
 ------------------------------------------------------------------------------
       center one      |      center two      | atomic units |       a.u.
 ------------------------------------------------------------------------------
    3 H                |   1 O                |     1.84345  |     1.84345
 ------------------------------------------------------------------------------
                         number of included internuclear distances:          1
 ==============================================================================





 Summary of "ao basis" -> "" (spherical)
 ------------------------------------------------------------------------------
       Tag                 Description            Shells   Functions and Types
 ---------------- ------------------------------  ------  ---------------------
 *                          cc-pVDZ                   on all atoms 


                      Basis "ao basis" -> "ao basis" (spherical)
                      -----
  O (Oxygen)
  ----------
            Exponent  Coefficients 
       -------------- ---------------------------------------------------------
  1 S  1.17200000E+04  0.000710
  1 S  1.75900000E+03  0.005470
  1 S  4.00800000E+02  0.027837
  1 S  1.13700000E+02  0.104800
  1 S  3.70300000E+01  0.283062
  1 S  1.32700000E+01  0.448719
  1 S  5.02500000E+00  0.270952
  1 S  1.01300000E+00  0.015458

  2 S  1.17200000E+04 -0.000160
  2 S  1.75900000E+03 -0.001263
  2 S  4.00800000E+02 -0.006267
  2 S  1.13700000E+02 -0.025716
  2 S  3.70300000E+01 -0.070924
  2 S  1.32700000E+01 -0.165411
  2 S  5.02500000E+00 -0.116955
  2 S  1.01300000E+00  0.557368

  3 S  3.02300000E-01  1.000000

  4 P  1.77000000E+01  0.043018
  4 P  3.85400000E+00  0.228913
  4 P  1.04600000E+00  0.508728

  5 P  2.75300000E-01  1.000000

  6 D  1.18500000E+00  1.000000

  H (Hydrogen)
  ------------
            Exponent  Coefficients 
       -------------- ---------------------------------------------------------
  1 S  1.30100000E+01  0.019685
  1 S  1.96200000E+00  0.137977
  1 S  4.44600000E-01  0.478148

  2 S  1.22000000E-01  1.000000

  3 P  7.27000000E-01  1.000000



 Summary of "ao basis" -> "ao basis" (spherical)
 ------------------------------------------------------------------------------
       Tag                 Description            Shells   Functions and Types
 ---------------- ------------------------------  ------  ---------------------
 O                          cc-pVDZ                  6       14   3s2p1d
 H                          cc-pVDZ                  3        5   2s1p


                                 NWChem SCF Module
                                 -----------------


                                        H2O



  ao basis        = "ao basis"
  functions       =    24
  atoms           =     3
  closed shells   =     5
  open shells     =     0
  charge          =   0.00
  wavefunction    = RHF 
  input vectors   = ./h2o.mos
  output vectors  = ./h2o.mos
  use symmetry    = F
  symmetry adapt  = F


 Summary of "ao basis" -> "ao basis" (spherical)
 ------------------------------------------------------------------------------
       Tag                 Description            Shells   Functions and Types
 ---------------- ------------------------------  ------  ---------------------
 O                          cc-pVDZ                  6       14   3s2p1d
 H                          cc-pVDZ                  3        5   2s1p



 Forming initial guess at       0.0s


 Loading old vectors from job with title :

H2O


 Starting SCF solution at       0.0s



 ----------------------------------------------
         Quadratically convergent ROHF

 Convergence threshold     :          1.000E-04
 Maximum no. of iterations :           30
 Final Fock-matrix accuracy:          1.000E-07
 ----------------------------------------------


 #quartets = 3.081D+03 #integrals = 2.131D+04 #direct =  0.0% #cached =100.0%


 Integral file          = ./H2O.aoints.0
 Record size in doubles =  65536        No. of integs per rec  =  43688
 Max. records in memory =      4        Max. records in file   = 232240
 No. of bits per label  =      8        No. of bits per value  =     64


              iter       energy          gnorm     gmax       time
             ----- ------------------- --------- --------- --------
                 1      -75.9581175718  1.35D-02  4.32D-03      0.1
                 2      -75.9581331604  1.03D-04  5.37D-05      0.1
                 3      -75.9581331622  3.79D-06  2.59D-06      0.1


       Final RHF  results 
       ------------------ 

         Total SCF energy =    -75.958133162184
      One-electron energy =   -120.755379919362
      Two-electron energy =     36.886800653262
 Nuclear repulsion energy =      7.910446103917

        Time for solution =      0.0s


             Final eigenvalues
             -----------------

              1      
    1  -20.5730
    2   -1.2791
    3   -0.6383
    4   -0.5152
    5   -0.4853
    6    0.1296
    7    0.2333
    8    0.6455
    9    0.8136
   10    1.1488
   11    1.1769
   12    1.2997
   13    1.4551
   14    1.5315
   15    1.6718

                       ROHF Final Molecular Orbital Analysis
                       -------------------------------------

 Vector    2  Occ=2.000000D+00  E=-1.279095D+00
              MO Center=  5.8D-02, -9.0D-02, -1.2D-17, r^2= 5.1D-01
   Bfn.  Coefficient  Atom+Function         Bfn.  Coefficient  Atom+Function  
  ----- ------------  ---------------      ----- ------------  ---------------
     2      0.453989  1 O  s                  3      0.454097  1 O  s          
    20      0.196598  3 H  s          

 Vector    3  Occ=2.000000D+00  E=-6.382551D-01
              MO Center=  4.3D-02,  3.6D-02,  6.1D-18, r^2= 8.8D-01
   Bfn.  Coefficient  Atom+Function         Bfn.  Coefficient  Atom+Function  
  ----- ------------  ---------------      ----- ------------  ---------------
     4      0.403593  1 O  px                20      0.362560  3 H  s          
     5     -0.270823  1 O  py                 7      0.214655  1 O  px         
    15     -0.206955  2 H  s                  3     -0.199011  1 O  s          

 Vector    4  Occ=2.000000D+00  E=-5.152324D-01
              MO Center= -1.0D-01,  1.0D-01, -3.4D-17, r^2= 9.1D-01
   Bfn.  Coefficient  Atom+Function         Bfn.  Coefficient  Atom+Function  
  ----- ------------  ---------------      ----- ------------  ---------------
     5      0.387253  1 O  py                 4      0.346384  1 O  px         
     8      0.290939  1 O  py                15      0.266822  2 H  s          
     7      0.263493  1 O  px                 3     -0.231617  1 O  s          
    16      0.155774  2 H  s          

 Vector    5  Occ=2.000000D+00  E=-4.852591D-01
              MO Center= -7.3D-02, -9.1D-02,  6.6D-17, r^2= 5.9D-01
   Bfn.  Coefficient  Atom+Function         Bfn.  Coefficient  Atom+Function  
  ----- ------------  ---------------      ----- ------------  ---------------
     6      0.638026  1 O  pz                 9      0.498124  1 O  pz         

 Vector    6  Occ=0.000000D+00  E= 1.295616D-01
              MO Center=  4.6D-02,  8.8D-01,  9.0D-18, r^2= 2.3D+00
   Bfn.  Coefficient  Atom+Function         Bfn.  Coefficient  Atom+Function  
  ----- ------------  ---------------      ----- ------------  ---------------
    16      0.920999  2 H  s                  3     -0.665437  1 O  s          
     8     -0.407326  1 O  py                21      0.332093  3 H  s          
     5     -0.284216  1 O  py                15      0.200627  2 H  s          

 Vector    7  Occ=0.000000D+00  E= 2.332638D-01
              MO Center=  9.2D-01, -3.3D-01,  9.0D-17, r^2= 2.8D+00
   Bfn.  Coefficient  Atom+Function         Bfn.  Coefficient  Atom+Function  
  ----- ------------  ---------------      ----- ------------  ---------------
    21      1.492071  3 H  s                 16     -0.671449  2 H  s          
     3     -0.551464  1 O  s                  7     -0.428234  1 O  px         
     8      0.411192  1 O  py                 4     -0.204984  1 O  px         
     5      0.202343  1 O  py         

 Vector    8  Occ=0.000000D+00  E= 6.455207D-01
              MO Center= -1.0D-01,  1.2D+00,  9.9D-18, r^2= 1.6D+00
   Bfn.  Coefficient  Atom+Function         Bfn.  Coefficient  Atom+Function  
  ----- ------------  ---------------      ----- ------------  ---------------
    15      1.276845  2 H  s                 16     -1.246762  2 H  s          
     3      0.278701  1 O  s                  5     -0.246172  1 O  py         
    21      0.177171  3 H  s          

 Vector    9  Occ=0.000000D+00  E= 8.136463D-01
              MO Center=  6.7D-01, -3.6D-01,  8.0D-17, r^2= 1.3D+00
   Bfn.  Coefficient  Atom+Function         Bfn.  Coefficient  Atom+Function  
  ----- ------------  ---------------      ----- ------------  ---------------
    20      1.293912  3 H  s                 21     -0.864117  3 H  s          
     4     -0.282256  1 O  px                 7     -0.277780  1 O  px         
    22      0.244140  3 H  px                 8      0.168451  1 O  py         
     2     -0.158905  1 O  s          

 Vector   10  Occ=0.000000D+00  E= 1.148838D+00
              MO Center= -2.1D-01,  1.6D-01, -2.4D-15, r^2= 1.3D+00
   Bfn.  Coefficient  Atom+Function         Bfn.  Coefficient  Atom+Function  
  ----- ------------  ---------------      ----- ------------  ---------------
     7      1.228548  1 O  px                 4     -0.732595  1 O  px         
     3      0.512840  1 O  s                 20     -0.462262  3 H  s          
    21     -0.435580  3 H  s                 22      0.348475  3 H  px         
    17      0.295794  2 H  px                 5     -0.164531  1 O  py         
    16      0.157847  2 H  s          

 Vector   11  Occ=0.000000D+00  E= 1.176889D+00
              MO Center= -9.9D-02,  9.4D-02,  2.4D-15, r^2= 1.2D+00
   Bfn.  Coefficient  Atom+Function         Bfn.  Coefficient  Atom+Function  
  ----- ------------  ---------------      ----- ------------  ---------------
     9     -0.931939  1 O  pz                 6      0.912072  1 O  pz         
    19     -0.267504  2 H  pz         

 Vector   12  Occ=0.000000D+00  E= 1.299730D+00
              MO Center=  5.7D-02, -3.5D-01, -4.0D-16, r^2= 1.3D+00
   Bfn.  Coefficient  Atom+Function         Bfn.  Coefficient  Atom+Function  
  ----- ------------  ---------------      ----- ------------  ---------------
     8      1.328860  1 O  py                 5     -0.838191  1 O  py         
    21      0.553916  3 H  s                  7     -0.476504  1 O  px         
    16     -0.447785  2 H  s                  3     -0.346452  1 O  s          
    23      0.307163  3 H  py                18      0.302914  2 H  py         
    15     -0.263363  2 H  s                 20      0.261457  3 H  s          

 Vector   13  Occ=0.000000D+00  E= 1.455105D+00
              MO Center=  3.3D-01,  3.2D-01,  3.4D-16, r^2= 1.3D+00
   Bfn.  Coefficient  Atom+Function         Bfn.  Coefficient  Atom+Function  
  ----- ------------  ---------------      ----- ------------  ---------------
    19      0.685449  2 H  pz                24     -0.649118  3 H  pz         
     6      0.262721  1 O  pz                 9     -0.155649  1 O  pz         

 Vector   14  Occ=0.000000D+00  E= 1.531534D+00
              MO Center= -3.1D-02,  1.1D-01,  5.0D-16, r^2= 1.6D+00
   Bfn.  Coefficient  Atom+Function         Bfn.  Coefficient  Atom+Function  
  ----- ------------  ---------------      ----- ------------  ---------------
     3      0.747325  1 O  s                  2     -0.670173  1 O  s          
    17      0.620006  2 H  px                23      0.544567  3 H  py         
     7     -0.533361  1 O  px                 8     -0.341906  1 O  py         
     1     -0.272071  1 O  s                 22      0.260552  3 H  px         
     4      0.239404  1 O  px                21     -0.238031  3 H  s          

 Vector   15  Occ=0.000000D+00  E= 1.671820D+00
              MO Center=  2.4D-01,  2.0D-01, -7.6D-16, r^2= 1.5D+00
   Bfn.  Coefficient  Atom+Function         Bfn.  Coefficient  Atom+Function  
  ----- ------------  ---------------      ----- ------------  ---------------
    24      0.790950  3 H  pz                19      0.688531  2 H  pz         
     9     -0.664291  1 O  pz                 6      0.179425  1 O  pz         


 center of mass
 --------------
 x =  -0.07599894 y =  -0.07860512 z =   0.00000000

 moments of inertia (a.u.)
 ------------------
           6.211880324051           1.301651690979           0.000000000000
           1.301651690979           2.833002082974           0.000000000000
           0.000000000000           0.000000000000           9.044882407025

  Mulliken analysis of the total density
  --------------------------------------

    Atom       Charge   Shell Charges
 -----------   ------   -------------------------------------------------------
    1 O    8     8.44   2.00  0.85  0.94  2.71  1.94  0.01
    2 H    1     0.74   0.50  0.21  0.04
    3 H    1     0.81   0.67  0.07  0.08

       Multipole analysis of the density wrt the origin
       ------------------------------------------------

     L   x y z        total         open         nuclear
     -   - - -        -----         ----         -------
     0   0 0 0     -0.000000      0.000000     10.000000

     1   1 0 0      0.630196      0.000000     -0.000000
     1   0 1 0      0.517277      0.000000      0.000000
     1   0 0 1     -0.000000      0.000000      0.000000

     2   2 0 0     -4.180301      0.000000      2.679864
     2   1 1 0     -0.835791      0.000000     -1.427185
     2   1 0 1      0.000000      0.000000      0.000000
     2   0 2 0     -2.865479      0.000000      6.023359
     2   0 1 1     -0.000000      0.000000      0.000000
     2   0 0 2     -5.507619      0.000000      0.000000


 Parallel integral file used       1 records with       0 large values

                   NWChem Extensible Many-Electron Theory Module
                   ---------------------------------------------

              ======================================================
                   This portion of the program was automatically
                  generated by a Tensor Contraction Engine (TCE).
                  The development of this portion of the program
                 and TCE was supported by US Department of Energy,
                Office of Science, Office of Basic Energy Science.
                      TCE is a product of Battelle and PNNL.
              Please cite: S.Hirata, J.Phys.Chem.A 107, 9887 (2003).
              ======================================================

                                        H2O


            General Information
            -------------------
      Number of processors :     1
         Wavefunction type : Restricted Hartree-Fock
          No. of electrons :    10
           Alpha electrons :     5
            Beta electrons :     5
           No. of orbitals :    48
            Alpha orbitals :    24
             Beta orbitals :    24
        Alpha frozen cores :     0
         Beta frozen cores :     0
     Alpha frozen virtuals :     0
      Beta frozen virtuals :     0
         Spin multiplicity : singlet 
    Number of AO functions :    24
       Number of AO shells :    12
        Use of symmetry is : off
      Symmetry adaption is : off
         Schwarz screening : 0.10D-09

          Correlation Information
          -----------------------
          Calculation type : Coupled-cluster singles & doubles                           
   Perturbative correction : none                                                        
            Max iterations :      300
        Residual threshold : 0.10D-06
     T(0) DIIS level shift : 0.00D+00
     L(0) DIIS level shift : 0.00D+00
     T(1) DIIS level shift : 0.00D+00
     L(1) DIIS level shift : 0.00D+00
     T(R) DIIS level shift : 0.00D+00
     T(I) DIIS level shift : 0.00D+00
   CC-T/L Amplitude update :  5-th order DIIS
                I/O scheme : Global Array Library
        L-threshold :  0.10D-06
        EOM-threshold :  0.10D-06
 no EOMCCSD initial starts read in
 TCE RESTART OPTIONS
 READ_INT:   F
 WRITE_INT:  F
 READ_TA:    F
 WRITE_TA:   F
 READ_XA:    F
 WRITE_XA:   F
 READ_IN3:   F
 WRITE_IN3:  F
 SLICE:      F
 D4D5:       F
 quantumc:   F
 qrotation:  F
 pwtce:      F
 qducc:      T
 nacto:                         0
 nrotv:                         0
 nrot:                          0

            Memory Information
            ------------------
          Available GA space size is    1610612160 doubles
          Available MA space size is    1610610956 doubles

 Maximum block size        32 doubles

 tile_dim =     19

 Block   Spin    Irrep     Size     Offset   Alpha
 -------------------------------------------------
   1    alpha     a      5 doubles       0       1
   2    beta      a      5 doubles       5       1
   3    alpha     a     19 doubles      10       3
   4    beta      a     19 doubles      29       3

 Global array virtual files algorithm will be used

 Parallel file system coherency ......... OK

 #quartets = 3.081D+03 #integrals = 2.131D+04 #direct =  0.0% #cached =100.0%


 Integral file          = ./H2O.aoints.0
 Record size in doubles =  65536        No. of integs per rec  =  43688
 Max. records in memory =      4        Max. records in file   = 232240
 No. of bits per label  =      8        No. of bits per value  =     64


 Fock matrix recomputed
 1-e file size   =              576
 1-e file name   = ./H2O.f1
 Cpu & wall time / sec            0.0            0.0
 4-electron integrals stored in orbital form

 v2    file size   =           185666
 4-index algorithm nr.  13 is used
 imaxsize =       30
 imaxsize ichop =        0
 Cpu & wall time / sec            0.1            0.1
 T1-number-of-tasks                    1

 t1 file size   =               95
 t1 file name   = ./H2O.t1
 t1 file handle =       -998
 T2-number-of-boxes                    2

 t2 file size   =            18050
 t2 file name   = ./H2O.t2
 t2 file handle =       -996
CCSD iterations
 ---------------------------------------------------------
 Iter          Residuum       Correlation     Cpu    Wall 
 ---------------------------------------------------------
NEW TASK SCHEDULING
CCSD_T1_NTS --- OK
CCSD_T2_NTS --- OK
    1   0.1179712301647  -0.2154522454172     0.0     0.0
    2   0.0368111551192  -0.2198429054321     0.0     0.0
    3   0.0153386911178  -0.2240027584231     0.0     0.0
    4   0.0071925977903  -0.2251364907138     0.0     0.0
    5   0.0035500041633  -0.2256801423562     0.0     0.0
 MICROCYCLE DIIS UPDATE:                    5                    5
    6   0.0006232951347  -0.2261220553438     0.0     0.0
    7   0.0004012791150  -0.2261371911000     0.0     0.0
    8   0.0002243311715  -0.2261412648397     0.0     0.0
    9   0.0001505491693  -0.2261423805873     0.0     0.0
   10   0.0000957021185  -0.2261440440948     0.0     0.0
 MICROCYCLE DIIS UPDATE:                   10                    5
   11   0.0000076416768  -0.2261471707561     0.0     0.0
   12   0.0000026519038  -0.2261472534427     0.0     0.0
   13   0.0000012183281  -0.2261474046182     0.0     0.0
   14   0.0000006057436  -0.2261474412615     0.0     0.0
   15   0.0000003145598  -0.2261474580091     0.0     0.0
 MICROCYCLE DIIS UPDATE:                   15                    5
   16   0.0000000687556  -0.2261474678485     0.0     0.0
 -----------------------------------------------------------------
 Iterations converged
 CCSD correlation energy / hartree =        -0.226147467848492
 CCSD total energy / hartree       =       -76.184280630032603

 Singles contributions

 Doubles contributions
     6a   (alpha)     6a   (beta ) ---     2a   (alpha)     4a   (beta )       -0.0206558929
     6a   (alpha)     6a   (beta ) ---     3a   (alpha)     3a   (beta )       -0.0304885579
     6a   (alpha)     6a   (beta ) ---     3a   (alpha)     4a   (beta )        0.0345215204
     6a   (alpha)     6a   (beta ) ---     4a   (alpha)     2a   (beta )       -0.0206558929
     6a   (alpha)     6a   (beta ) ---     4a   (alpha)     3a   (beta )        0.0345215204
     6a   (alpha)     6a   (beta ) ---     4a   (alpha)     4a   (beta )       -0.0767671765
     6a   (alpha)     7a   (beta ) ---     4a   (alpha)     3a   (beta )       -0.0254852130
     6a   (alpha)     8a   (beta ) ---     3a   (alpha)     4a   (beta )        0.0207078340
     6a   (alpha)     8a   (beta ) ---     4a   (alpha)     3a   (beta )        0.0221072705
     6a   (alpha)     8a   (beta ) ---     4a   (alpha)     4a   (beta )       -0.0385386121
     6a   (alpha)    11a   (beta ) ---     4a   (alpha)     5a   (beta )        0.0200853653
     7a   (alpha)     6a   (beta ) ---     3a   (alpha)     4a   (beta )       -0.0254852130
     7a   (alpha)     7a   (beta ) ---     3a   (alpha)     3a   (beta )       -0.0334208161
     7a   (alpha)     9a   (beta ) ---     3a   (alpha)     3a   (beta )       -0.0235571231
     8a   (alpha)     6a   (beta ) ---     3a   (alpha)     4a   (beta )        0.0221072705
     8a   (alpha)     6a   (beta ) ---     4a   (alpha)     3a   (beta )        0.0207078340
     8a   (alpha)     6a   (beta ) ---     4a   (alpha)     4a   (beta )       -0.0385386121
     8a   (alpha)     8a   (beta ) ---     3a   (alpha)     4a   (beta )        0.0213094783
     8a   (alpha)     8a   (beta ) ---     4a   (alpha)     3a   (beta )        0.0213094783
     8a   (alpha)     8a   (beta ) ---     4a   (alpha)     4a   (beta )       -0.0327633446
     9a   (alpha)     7a   (beta ) ---     3a   (alpha)     3a   (beta )       -0.0235571231
     9a   (alpha)     9a   (beta ) ---     3a   (alpha)     3a   (beta )       -0.0412751628
    10a   (alpha)    10a   (beta ) ---     4a   (alpha)     4a   (beta )       -0.0236889070
    10a   (alpha)    11a   (beta ) ---     4a   (alpha)     5a   (beta )        0.0208929831
    11a   (alpha)     6a   (beta ) ---     5a   (alpha)     4a   (beta )        0.0200853653
    11a   (alpha)    10a   (beta ) ---     5a   (alpha)     4a   (beta )        0.0208929831
    11a   (alpha)    11a   (beta ) ---     5a   (alpha)     5a   (beta )       -0.0480642644
 Ground state specification:
 exp(T)|Ref>~(1+T)|Ref>
 ------- a(p)+/a(q) strings ----------

 singles norm

 doubles norm

 Reference string
   1.0000000000000000      :(1a)+ (2a)+ (3a)+ (4a)+ (5a)+ (1b)+ (2b)+ (3b)+ (4b)+ (5b)+ |0>

 Singles strings

 Doubles strings
 -------------------------------------
 enrep_tce =    7.9104461039166063     
  EHF(total)         =       -75.95813316
  Shift (HFtot-HFA)  =         0.00000000
 ALL OCCUPIED ORBITALS ARE ACTIVE IN DUCC --> NO SHIFT
 Number of active orbitals                    8
 Number of active alpha electrons                    5
 Number of active beta electrons                    5
  nos                    10
  nvs                    38
 noas                     5
 nobs                     5
 nvas                    19
 nvbs                    19
 nactv                     3
 DUCC MODEL =                     6
 NONHF =  T
 F-T1 correlation    =   -1.5460539825882833E-008
 V-T1-T1 correlation =    4.6027681986774282E-005
 V-T2 correlation    =  -0.22619348006989837     
 Total correlation   =  -0.22614746784845141     
 F-T1(Ext) correlation         =    6.7410638239930903E-009
 V-T1(Ext)-T1(Ext) correlation =    2.1969303231689120E-005
 V-T2(Ext) correlation         =  -0.19370732151603226     
 Total Ext correlation         =  -0.19368534547173674     
1-BODY TIME =    1.899 SECONDS.
  HHHH TIME =    2.179 SECONDS.
  PPPP TIME =    0.030 SECONDS.
  HHHP TIME =    0.611 SECONDS.
  PPPH TIME =    0.087 SECONDS.
  HPHP TIME =    0.355 SECONDS.
  HHPP TIME =    0.358 SECONDS.
 ONE-BODY UNITARY CHECK
 TWO-BODY UNITARY CHECK
                    2                    7                    3                    9   1.3839623891342967E-012
                    2                    7                    4                    7   1.6319862128355567E-012
                    2                    7                    4                    9  -2.2288837442374643E-012
                    2                    7                    8                    4  -1.6710677980258382E-012
                    2                    7                    9                    2  -1.3228793060982014E-012
                    2                    7                    9                    4   2.2288837442374643E-012
                    2                    8                    4                    8   1.5462769953344946E-012
                    2                    9                    4                    7  -1.2892048539825396E-012
                    2                    9                    4                    9   3.0199592826463117E-012
                    2                    9                    8                    2  -1.4768117284624793E-012
                    2                    9                    9                    2   1.9352297542241104E-012
                    2                    9                    9                    4  -2.9358945830004757E-012
                    2                   10                    4                   10   1.8798018697196994E-012
                    2                   10                   10                    4  -1.4715312302016059E-012
                    3                    3                    3                    4   1.2386581895836196E-012
                    3                    3                    4                    3  -1.2386655434177885E-012
                    3                    4                    3                    3  -1.2386581895836196E-012
                    3                    4                    4                    3   1.0966783037247296E-012
                    3                    5                    5                    3  -1.2609913113692528E-012
                    3                    5                    5                    4   1.6680580527950184E-012
                    3                    7                    4                    9   1.2064377274967342E-012
                    3                    7                    7                    4   1.4768603007198067E-012
                    3                    7                    9                    4  -1.2832582219068911E-012
                    3                    8                    4                    7   1.6288255466623269E-012
                    3                    8                    4                    9  -1.5514672879746172E-012
                    3                    8                    9                    2  -1.7235657345793243E-012
                    3                    8                    9                    3  -1.1381347253536234E-012
                    3                    8                    9                    4   1.5514672879746172E-012
                    3                    9                    2                    7  -1.3839623891342967E-012
                    3                    9                    4                    9  -3.2091621027241501E-012
                    3                    9                    5                   10  -1.2266221025014623E-012
                    3                    9                    7                    2   1.6710747369197421E-012
                    3                    9                    9                    3   1.1292078383462467E-012
                    3                    9                    9                    4   3.7865197088926550E-012
                    3                    9                   10                    5   1.3067767354324467E-012
                    3                   10                    4                   10  -1.1557421686347880E-012
                    3                   10                    5                    9  -1.0230254143817064E-012
                    3                   10                   10                    3  -1.9040324872321435E-012
                    3                   10                   10                    4   2.6909863226620701E-012
                    4                    3                    3                    3   1.2386655434177885E-012
                    4                    3                    3                    4  -1.0966783037247296E-012
                    4                    5                    5                    4  -2.4417134980581068E-012
                    4                    7                    2                    7  -1.6319862128355567E-012
                    4                    7                    2                    9   1.2892048539825396E-012
                    4                    7                    3                    8  -1.6288255466623269E-012
                    4                    7                    7                    2   1.3228636935869176E-012
                    4                    7                    7                    4  -1.9352297542241104E-012
                    4                    7                    8                    3   1.7235917554314639E-012
                    4                    8                    2                    8  -1.5462769953344946E-012
                    4                    8                    8                    3   1.1381381948005753E-012
                    4                    8                    8                    4  -1.1292078383462467E-012
                    4                    9                    2                    7   2.2288837442374643E-012
                    4                    9                    2                    9  -3.0199592826463117E-012
                    4                    9                    3                    7  -1.2064377274967342E-012
                    4                    9                    3                    8   1.5514672879746172E-012
                    4                    9                    3                    9   3.2091621027241501E-012
                    4                    9                    5                   10   1.9967048847657765E-012
                    4                    9                    7                    2  -2.2288837442374643E-012
                    4                    9                    7                    4   2.9359362163638991E-012
                    4                    9                    8                    2   1.2833067941642184E-012
                    4                    9                    8                    3  -1.5514672879746172E-012
                    4                    9                    8                    4  -3.7865127699987511E-012
                    4                    9                   10                    5  -1.9967118236596804E-012
                    4                   10                    2                   10  -1.8798018697196994E-012
                    4                   10                    3                   10   1.1557421686347880E-012
                    4                   10                    5                    9   1.3735193538089163E-012
                    4                   10                   10                    3   1.1100564911714628E-012
                    4                   10                   10                    4  -3.8148373349145004E-012
                    5                    3                    3                    5   1.2609913113692528E-012
                    5                    4                    3                    5  -1.6680580527950184E-012
                    5                    4                    4                    5   2.4417134980581068E-012
                    5                    8                    8                    5   1.9040324872321435E-012
                    5                    8                    9                    5  -1.1100495522775589E-012
                    5                    9                    3                   10   1.0230254143817064E-012
                    5                    9                    4                   10  -1.3735193538089163E-012
                    5                    9                    7                    5   1.4715242913077020E-012
                    5                    9                    8                    5  -2.6909932615559740E-012
                    5                    9                    9                    5   3.8148373349145004E-012
                    5                   10                    3                    9   1.2266221025014623E-012
                    5                   10                    4                    9  -1.9967048847657765E-012
                    5                   10                    8                    4  -1.3067715312620187E-012
                    5                   10                    9                    4   1.9967083542127284E-012
                    7                    2                    3                    9  -1.6710747369197421E-012
                    7                    2                    4                    7  -1.3228636935869176E-012
                    7                    2                    4                    9   2.2288837442374643E-012
                    7                    2                    8                    4   1.3839294293882531E-012
                    7                    2                    9                    2   1.6319758044947008E-012
                    7                    2                    9                    4  -2.2288837442374643E-012
                    7                    3                    9                    3   1.5462743932492806E-012
                    7                    4                    3                    7  -1.4768603007198067E-012
                    7                    4                    4                    7   1.9352297542241104E-012
                    7                    4                    4                    9  -2.9359362163638991E-012
                    7                    4                    9                    2  -1.2892048539825396E-012
                    7                    4                    9                    4   3.0200009160097352E-012
                    7                    5                    5                    9  -1.4715242913077020E-012
                    7                    5                    9                    5   1.8798018697196994E-012
                    8                    2                    2                    9   1.4768117284624793E-012
                    8                    2                    4                    9  -1.2833067941642184E-012
                    8                    2                    9                    4   1.2064862997540615E-012
                    8                    3                    4                    7  -1.7235917554314639E-012
                    8                    3                    4                    8  -1.1381381948005753E-012
                    8                    3                    4                    9   1.5514672879746172E-012
                    8                    3                    9                    2   1.6287977910867113E-012
                    8                    3                    9                    4  -1.5514672879746172E-012
                    8                    4                    2                    7   1.6710677980258382E-012
                    8                    4                    4                    8   1.1292078383462467E-012
                    8                    4                    4                    9   3.7865127699987511E-012
                    8                    4                    5                   10   1.3067715312620187E-012
                    8                    4                    7                    2  -1.3839294293882531E-012
                    8                    4                    9                    4  -3.2091586332771982E-012
                    8                    4                   10                    5  -1.2266160309692964E-012
                    8                    5                    5                    8  -1.9040324872321435E-012
                    8                    5                    5                    9   2.6909932615559740E-012
                    8                    5                    9                    5  -1.1557491075286919E-012
                    8                    5                   10                    4  -1.0230254143817064E-012
                    8                    8                    8                    9   1.2386626614969597E-012
                    8                    8                    9                    8  -1.2386630899897519E-012
                    8                    9                    8                    8  -1.2386626614969597E-012
                    8                    9                    9                    8   1.0970113706321172E-012
                    8                   10                   10                    8  -1.2609913113692528E-012
                    8                   10                   10                    9   1.6680580527950184E-012
                    9                    2                    2                    7   1.3228793060982014E-012
                    9                    2                    2                    9  -1.9352297542241104E-012
                    9                    2                    3                    8   1.7235657345793243E-012
                    9                    2                    7                    2  -1.6319758044947008E-012
                    9                    2                    7                    4   1.2892048539825396E-012
                    9                    2                    8                    3  -1.6287977910867113E-012
                    9                    3                    3                    8   1.1381347253536234E-012
                    9                    3                    3                    9  -1.1292078383462467E-012
                    9                    3                    7                    3  -1.5462743932492806E-012
                    9                    4                    2                    7  -2.2288837442374643E-012
                    9                    4                    2                    9   2.9358945830004757E-012
                    9                    4                    3                    7   1.2832582219068911E-012
                    9                    4                    3                    8  -1.5514672879746172E-012
                    9                    4                    3                    9  -3.7865197088926550E-012
                    9                    4                    5                   10  -1.9967083542127284E-012
                    9                    4                    7                    2   2.2288837442374643E-012
                    9                    4                    7                    4  -3.0200009160097352E-012
                    9                    4                    8                    2  -1.2064862997540615E-012
                    9                    4                    8                    3   1.5514672879746172E-012
                    9                    4                    8                    4   3.2091586332771982E-012
                    9                    4                   10                    5   1.9967083542127284E-012
                    9                    5                    5                    8   1.1100495522775589E-012
                    9                    5                    5                    9  -3.8148373349145004E-012
                    9                    5                    7                    5  -1.8798018697196994E-012
                    9                    5                    8                    5   1.1557491075286919E-012
                    9                    5                   10                    4   1.3735679260662437E-012
                    9                    8                    8                    8   1.2386630899897519E-012
                    9                    8                    8                    9  -1.0970113706321172E-012
                    9                   10                   10                    9  -2.4417134980581068E-012
                   10                    3                    3                   10   1.9040324872321435E-012
                   10                    3                    4                   10  -1.1100564911714628E-012
                   10                    4                    2                   10   1.4715312302016059E-012
                   10                    4                    3                   10  -2.6909863226620701E-012
                   10                    4                    4                   10   3.8148373349145004E-012
                   10                    4                    8                    5   1.0230254143817064E-012
                   10                    4                    9                    5  -1.3735679260662437E-012
                   10                    5                    3                    9  -1.3067767354324467E-012
                   10                    5                    4                    9   1.9967118236596804E-012
                   10                    5                    8                    4   1.2266160309692964E-012
                   10                    5                    9                    4  -1.9967083542127284E-012
                   10                    8                    8                   10   1.2609913113692528E-012
                   10                    9                    8                   10  -1.6680580527950184E-012
                   10                    9                    9                   10   2.4417134980581068E-012
 TWO-BODY ANTISYMMETRY CHECK
 TRANSFORMED ~FOCK~ MATRIX
    1    1       -20.5564724271
    1    2        -0.0034021030
    1    3         0.0010992546
    1    4         0.0019732902
    1    6         0.0010679761
    1    7         0.0006851831
    1    8         0.0002140443
    2    1        -0.0034021030
    2    2        -1.3069563298
    2    3        -0.0039244080
    2    4        -0.0019609518
    2    6         0.0009570756
    2    7         0.0000385180
    2    8         0.0014414904
    3    1         0.0010992546
    3    2        -0.0039244080
    3    3        -0.6876933423
    3    4        -0.0033964117
    3    6        -0.0045795896
    3    7         0.0028566217
    3    8        -0.0034238184
    4    1         0.0019732902
    4    2        -0.0019609518
    4    3        -0.0033964117
    4    4        -0.5608406028
    4    6         0.0042718971
    4    7        -0.0035467895
    4    8         0.0039712233
    5    5        -0.5316491666
    6    1         0.0010679761
    6    2         0.0009570756
    6    3        -0.0045795896
    6    4         0.0042718971
    6    6         0.1407761230
    6    7        -0.0014600539
    6    8         0.0054895142
    7    1         0.0006851831
    7    2         0.0000385180
    7    3         0.0028566217
    7    4        -0.0035467895
    7    6        -0.0014600539
    7    7         0.2434589270
    7    8        -0.0018955560
    8    1         0.0002140443
    8    2         0.0014414904
    8    3        -0.0034238184
    8    4         0.0039712233
    8    6         0.0054895142
    8    7        -0.0018955560
    8    8         0.6490160726
 begin_one_electron_integrals
    1    1       -32.8735596054
    1    2         0.5850386756
    1    3        -0.0972164880
    1    4        -0.1321992015
    1    6        -0.1606036655
    1    7        -0.0780936486
    1    8        -0.0621148394
    2    1         0.5850386756
    2    2        -7.7173123508
    2    3         0.0659490561
    2    4         0.3101387418
    2    6         0.7350821943
    2    7         0.4358613933
    2    8         0.2006988897
    3    1        -0.0972164880
    3    2         0.0659490561
    3    3        -6.4417893330
    3    4        -0.3267661016
    3    6        -0.5012055064
    3    7         0.9841482859
    3    8        -0.2033803390
    4    1        -0.1321992015
    4    2         0.3101387418
    4    3        -0.3267661016
    4    4        -6.4062948201
    4    6         0.9830629399
    4    7        -0.2237317521
    4    8         0.3735140352
    5    5        -6.9991436279
    6    1        -0.1606036655
    6    2         0.7350821943
    6    3        -0.5012055064
    6    4         0.9830629399
    6    6        -3.8887804518
    6    7         0.1828834975
    6    8        -1.0366824758
    7    1        -0.0780936486
    7    2         0.4358613933
    7    3         0.9841482859
    7    4        -0.2237317521
    7    6         0.1828834975
    7    7        -3.3129805411
    7    8         0.4788169565
    8    1        -0.0621148394
    8    2         0.2006988897
    8    3        -0.2033803390
    8    4         0.3735140352
    8    6        -1.0366824758
    8    7         0.4788169565
    8    8        -3.1380255819
 end_one_electron_integrals
 begin_two_electron_integrals
    1    1    1    1        4.7398658067
    1    1    1    2       -0.4375926463
    1    1    1    3        0.0723784867
    1    1    1    4        0.1032555972
    1    1    1    6        0.1285435650
    1    1    1    7        0.0646145951
    1    1    1    8        0.0492118030
    1    2    1    1       -0.4375926463
    1    2    1    2        0.0635142501
    1    2    1    3       -0.0085947203
    1    2    1    4       -0.0136040726
    1    2    1    6       -0.0201247034
    1    2    1    7       -0.0111610889
    1    2    1    8       -0.0075582458
    1    3    1    1        0.0723784867
    1    3    1    2       -0.0085947203
    1    3    1    3        0.0183550092
    1    3    1    4        0.0045253389
    1    3    1    6        0.0062360013
    1    3    1    7       -0.0090997072
    1    3    1    8        0.0050316909
    1    4    1    1        0.1032555972
    1    4    1    2       -0.0136040726
    1    4    1    3        0.0045253389
    1    4    1    4        0.0227524937
    1    4    1    6       -0.0064568229
    1    4    1    7        0.0031039668
    1    4    1    8       -0.0059357951
    1    5    1    5        0.0275382446
    1    6    1    1        0.1285435650
    1    6    1    2       -0.0201247034
    1    6    1    3        0.0062360013
    1    6    1    4       -0.0064568229
    1    6    1    6        0.0131768381
    1    6    1    7        0.0000447073
    1    6    1    8        0.0076383388
    1    7    1    1        0.0646145951
    1    7    1    2       -0.0111610889
    1    7    1    3       -0.0090997072
    1    7    1    4        0.0031039668
    1    7    1    6        0.0000447073
    1    7    1    7        0.0081267889
    1    7    1    8       -0.0019585948
    1    8    1    1        0.0492118030
    1    8    1    2       -0.0075582458
    1    8    1    3        0.0050316909
    1    8    1    4       -0.0059357951
    1    8    1    6        0.0076383388
    1    8    1    7       -0.0019585948
    1    8    1    8        0.0050180384
    1    1    2    1       -0.4375926463
    1    1    2    2        1.0556457488
    1    1    2    3       -0.0340976411
    1    1    2    4       -0.0914752036
    1    1    2    6       -0.1521193814
    1    1    2    7       -0.0914631156
    1    1    2    8       -0.0496589382
    1    2    2    1        0.0658145974
    1    2    2    2       -0.0160179822
    1    2    2    3        0.0046069217
    1    2    2    4        0.0052825355
    1    2    2    6        0.0031760755
    1    2    2    7        0.0009385691
    1    2    2    8        0.0014101035
    1    3    2    1       -0.0083877259
    1    3    2    2        0.0090152202
    1    3    2    3        0.0206365327
    1    3    2    4        0.0012002637
    1    3    2    6        0.0019066436
    1    3    2    7       -0.0102642072
    1    3    2    8        0.0022824472
    1    4    2    1       -0.0135103018
    1    4    2    2        0.0087242829
    1    4    2    3        0.0017199531
    1    4    2    4        0.0206004876
    1    4    2    6       -0.0118085259
    1    4    2    7        0.0001443893
    1    4    2    8       -0.0063691960
    1    5    2    5        0.0294498379
    1    6    2    1       -0.0213103554
    1    6    2    2        0.0028798966
    1    6    2    3        0.0033035068
    1    6    2    4       -0.0129694679
    1    6    2    6        0.0062249929
    1    6    2    7       -0.0033084007
    1    6    2    8        0.0038674396
    1    7    2    1       -0.0118595542
    1    7    2    2       -0.0011469183
    1    7    2    3       -0.0126133374
    1    7    2    4        0.0007373787
    1    7    2    6       -0.0031099577
    1    7    2    7        0.0058977590
    1    7    2    8       -0.0024157760
    1    8    2    1       -0.0078766013
    1    8    2    2        0.0012983359
    1    8    2    3        0.0041482684
    1    8    2    4       -0.0083657826
    1    8    2    6        0.0046499654
    1    8    2    7       -0.0029501470
    1    8    2    8        0.0030143350
    1    1    3    1        0.0723784867
    1    1    3    2       -0.0340976411
    1    1    3    3        0.8647223552
    1    1    3    4        0.0755311992
    1    1    3    6        0.0935599703
    1    1    3    7       -0.1850333391
    1    1    3    8        0.0572887431
    1    2    3    1       -0.0083877259
    1    2    3    2        0.0048028713
    1    2    3    3       -0.0083466061
    1    2    3    4       -0.0023453050
    1    2    3    6       -0.0017152336
    1    2    3    7        0.0014001388
    1    2    3    8       -0.0015667538
    1    3    3    1        0.0211044389
    1    3    3    2        0.0216094408
    1    3    3    3       -0.0018444787
    1    3    3    4       -0.0024137609
    1    3    3    6       -0.0038889287
    1    3    3    7       -0.0004096882
    1    3    3    8       -0.0011799780
    1    4    3    1        0.0048193949
    1    4    3    2        0.0017892492
    1    4    3    3        0.0040292342
    1    4    3    4       -0.0045361958
    1    4    3    6        0.0009962593
    1    4    3    7       -0.0004510743
    1    4    3    8       -0.0013452009
    1    5    3    5       -0.0048253018
    1    6    3    1        0.0067486637
    1    6    3    2        0.0033009331
    1    6    3    3       -0.0001293616
    1    6    3    4        0.0025648850
    1    6    3    6       -0.0012179976
    1    6    3    7       -0.0000444695
    1    6    3    8        0.0007825115
    1    7    3    1       -0.0102542362
    1    7    3    2       -0.0129082310
    1    7    3    3        0.0033357540
    1    7    3    4        0.0014931017
    1    7    3    6        0.0029096252
    1    7    3    7        0.0002164692
    1    7    3    8        0.0009142577
    1    8    3    1        0.0054129842
    1    8    3    2        0.0042097669
    1    8    3    3       -0.0008875596
    1    8    3    4        0.0010933355
    1    8    3    6       -0.0011345456
    1    8    3    7       -0.0001012661
    1    8    3    8        0.0003413528
    1    1    4    1        0.1032555972
    1    1    4    2       -0.0914752036
    1    1    4    3        0.0755311992
    1    1    4    4        0.8997206938
    1    1    4    6       -0.1815181703
    1    1    4    7        0.0408119725
    1    1    4    8       -0.0934089106
    1    2    4    1       -0.0135103018
    1    2    4    2        0.0054637743
    1    2    4    3       -0.0023266116
    1    2    4    4       -0.0104546530
    1    2    4    6        0.0007037170
    1    2    4    7       -0.0006205542
    1    2    4    8        0.0012983522
    1    3    4    1        0.0048193949
    1    3    4    2        0.0012974818
    1    3    4    3       -0.0021172213
    1    3    4    4       -0.0000613944
    1    3    4    6       -0.0022418168
    1    3    4    7        0.0027711666
    1    3    4    8       -0.0036199273
    1    4    4    1        0.0252493344
    1    4    4    2        0.0214261318
    1    4    4    3       -0.0046990181
    1    4    4    4       -0.0051267726
    1    4    4    6       -0.0021959604
    1    4    4    7       -0.0025355636
    1    4    4    8        0.0004490994
    1    5    4    5       -0.0065242650
    1    6    4    1       -0.0076061612
    1    6    4    2       -0.0131935370
    1    6    4    3        0.0025989149
    1    6    4    4        0.0062787457
    1    6    4    6        0.0008036729
    1    6    4    7        0.0025215887
    1    6    4    8       -0.0015287311
    1    7    4    1        0.0033459499
    1    7    4    2        0.0007058628
    1    7    4    3        0.0014579426
    1    7    4    4        0.0012131526
    1    7    4    6        0.0011026319
    1    7    4    7       -0.0018187635
    1    7    4    8        0.0019018315
    1    8    4    1       -0.0065877495
    1    8    4    2       -0.0084757701
    1    8    4    3        0.0011169613
    1    8    4    4        0.0036216848
    1    8    4    6        0.0001969338
    1    8    4    7        0.0019957769
    1    8    4    8       -0.0012534651
    1    1    5    5        1.0397515762
    1    2    5    5       -0.0121017064
    1    3    5    5        0.0024019860
    1    4    5    5        0.0032816940
    1    5    5    1        0.0302910057
    1    5    5    2        0.0299886466
    1    5    5    3       -0.0049780147
    1    5    5    4       -0.0068420196
    1    5    5    6       -0.0074069318
    1    5    5    7       -0.0031573671
    1    5    5    8       -0.0043439210
    1    6    5    5        0.0023768850
    1    7    5    5        0.0010981051
    1    8    5    5        0.0006937312
    1    1    6    1        0.1285435650
    1    1    6    2       -0.1521193814
    1    1    6    3        0.0935599703
    1    1    6    4       -0.1815181703
    1    1    6    6        0.5010213177
    1    1    6    7       -0.0363399584
    1    1    6    8        0.1643008927
    1    2    6    1       -0.0213103554
    1    2    6    2        0.0021250434
    1    2    6    3       -0.0013064086
    1    2    6    4       -0.0000049159
    1    2    6    6       -0.0036338047
    1    2    6    7        0.0008658561
    1    2    6    8       -0.0022870046
    1    3    6    1        0.0067486637
    1    3    6    2        0.0020061358
    1    3    6    3       -0.0037746413
    1    3    6    4       -0.0020506144
    1    3    6    6       -0.0013485623
    1    3    6    7        0.0033339203
    1    3    6    8       -0.0001026550
    1    4    6    1       -0.0076061612
    1    4    6    2       -0.0118786877
    1    4    6    3        0.0010689074
    1    4    6    4       -0.0018261905
    1    4    6    6        0.0079828550
    1    4    6    7        0.0010335061
    1    4    6    8        0.0033391513
    1    5    6    5       -0.0069217948
    1    6    6    1        0.0128499989
    1    6    6    2        0.0054515649
    1    6    6    3       -0.0009530972
    1    6    6    4        0.0002353186
    1    6    6    6       -0.0031963887
    1    6    6    7        0.0000619961
    1    6    6    8       -0.0009657279
    1    7    6    1        0.0000645156
    1    7    6    2       -0.0031319236
    1    7    6    3        0.0026359431
    1    7    6    4        0.0008278598
    1    7    6    6        0.0022379545
    1    7    6    7       -0.0017249232
    1    7    6    8        0.0008335706
    1    8    6    1        0.0074113947
    1    8    6    2        0.0043029650
    1    8    6    3       -0.0009855747
    1    8    6    4       -0.0000140100
    1    8    6    6       -0.0025369596
    1    8    6    7        0.0002408454
    1    8    6    8       -0.0008029636
    1    1    7    1        0.0646145951
    1    1    7    2       -0.0914631156
    1    1    7    3       -0.1850333391
    1    1    7    4        0.0408119725
    1    1    7    6       -0.0363399584
    1    1    7    7        0.4247769104
    1    1    7    8       -0.0733314984
    1    2    7    1       -0.0118595542
    1    2    7    2        0.0003368034
    1    2    7    3        0.0004688796
    1    2    7    4       -0.0005019463
    1    2    7    6        0.0008677042
    1    2    7    7       -0.0020842028
    1    2    7    8        0.0010200707
    1    3    7    1       -0.0102542362
    1    3    7    2       -0.0106665557
    1    3    7    3       -0.0002998669
    1    3    7    4        0.0027695006
    1    3    7    6        0.0033435590
    1    3    7    7        0.0047357397
    1    3    7    8        0.0004803161
    1    4    7    1        0.0033459499
    1    4    7    2        0.0001477416
    1    4    7    3       -0.0003734238
    1    4    7    4       -0.0022701522
    1    4    7    6        0.0010296623
    1    4    7    7        0.0008960745
    1    4    7    8        0.0010503246
    1    5    7    5       -0.0029226149
    1    6    7    1        0.0000645156
    1    6    7    2       -0.0033098288
    1    6    7    3       -0.0004920011
    1    6    7    4        0.0023510298
    1    6    7    6        0.0000682283
    1    6    7    7        0.0014880566
    1    6    7    8       -0.0007427193
    1    7    7    1        0.0077957426
    1    7    7    2        0.0053996962
    1    7    7    3       -0.0001318247
    1    7    7    4       -0.0017197142
    1    7    7    6       -0.0017351458
    1    7    7    7       -0.0019889478
    1    7    7    8       -0.0002847464
    1    8    7    1       -0.0018834646
    1    8    7    2       -0.0028844633
    1    8    7    3       -0.0002428436
    1    8    7    4        0.0018985248
    1    8    7    6        0.0002463259
    1    8    7    7        0.0012045507
    1    8    7    8       -0.0004706284
    1    1    8    1        0.0492118030
    1    1    8    2       -0.0496589382
    1    1    8    3        0.0572887431
    1    1    8    4       -0.0934089106
    1    1    8    6        0.1643008927
    1    1    8    7       -0.0733314984
    1    1    8    8        0.4160766372
    1    2    8    1       -0.0078766013
    1    2    8    2        0.0011482549
    1    2    8    3       -0.0013003448
    1    2    8    4        0.0010056618
    1    2    8    6       -0.0022849946
    1    2    8    7        0.0010088273
    1    2    8    8       -0.0016301530
    1    3    8    1        0.0054129842
    1    3    8    2        0.0023827727
    1    3    8    3       -0.0010840292
    1    3    8    4       -0.0033932141
    1    3    8    6       -0.0001412403
    1    3    8    7        0.0004726009
    1    3    8    8       -0.0019753976
    1    4    8    1       -0.0065877495
    1    4    8    2       -0.0063449500
    1    4    8    3       -0.0011724149
    1    4    8    4        0.0005420409
    1    4    8    6        0.0033591717
    1    4    8    7        0.0010029499
    1    4    8    8        0.0044255423
    1    5    8    5       -0.0039999591
    1    6    8    1        0.0074113947
    1    6    8    2        0.0034718778
    1    6    8    3        0.0009144777
    1    6    8    4       -0.0016819555
    1    6    8    6       -0.0009831924
    1    6    8    7       -0.0007308483
    1    6    8    8       -0.0021880726
    1    7    8    1       -0.0018834646
    1    7    8    2       -0.0023232732
    1    7    8    3        0.0008246826
    1    7    8    4        0.0017516616
    1    7    8    6        0.0008477177
    1    7    8    7       -0.0002861102
    1    7    8    8        0.0017321290
    1    8    8    1        0.0048681818
    1    8    8    2        0.0028039270
    1    8    8    3        0.0004309801
    1    8    8    4       -0.0013281402
    1    8    8    6       -0.0008119332
    1    8    8    7       -0.0004648538
    1    8    8    8       -0.0016413920
    2    1    1    1       -0.4375926463
    2    1    1    2        0.0658145974
    2    1    1    3       -0.0083877259
    2    1    1    4       -0.0135103018
    2    1    1    6       -0.0213103554
    2    1    1    7       -0.0118595542
    2    1    1    8       -0.0078766013
    2    2    1    1        1.0556457488
    2    2    1    2       -0.0160179822
    2    2    1    3        0.0090152202
    2    2    1    4        0.0087242829
    2    2    1    6        0.0028798966
    2    2    1    7       -0.0011469183
    2    2    1    8        0.0012983359
    2    3    1    1       -0.0340976411
    2    3    1    2        0.0046069217
    2    3    1    3        0.0206365327
    2    3    1    4        0.0017199531
    2    3    1    6        0.0033035068
    2    3    1    7       -0.0126133374
    2    3    1    8        0.0041482684
    2    4    1    1       -0.0914752036
    2    4    1    2        0.0052825355
    2    4    1    3        0.0012002637
    2    4    1    4        0.0206004876
    2    4    1    6       -0.0129694679
    2    4    1    7        0.0007373787
    2    4    1    8       -0.0083657826
    2    5    1    5        0.0294498379
    2    6    1    1       -0.1521193814
    2    6    1    2        0.0031760755
    2    6    1    3        0.0019066436
    2    6    1    4       -0.0118085259
    2    6    1    6        0.0062249929
    2    6    1    7       -0.0031099577
    2    6    1    8        0.0046499654
    2    7    1    1       -0.0914631156
    2    7    1    2        0.0009385691
    2    7    1    3       -0.0102642072
    2    7    1    4        0.0001443893
    2    7    1    6       -0.0033084007
    2    7    1    7        0.0058977590
    2    7    1    8       -0.0029501470
    2    8    1    1       -0.0496589382
    2    8    1    2        0.0014101035
    2    8    1    3        0.0022824472
    2    8    1    4       -0.0063691960
    2    8    1    6        0.0038674396
    2    8    1    7       -0.0024157760
    2    8    1    8        0.0030143350
    2    1    2    1        0.0635142501
    2    1    2    2       -0.0160179822
    2    1    2    3        0.0048028713
    2    1    2    4        0.0054637743
    2    1    2    6        0.0021250434
    2    1    2    7        0.0003368034
    2    1    2    8        0.0011482549
    2    2    2    1       -0.0160179822
    2    2    2    2        0.7432590129
    2    2    2    3        0.0281981029
    2    2    2    4       -0.0148519699
    2    2    2    6       -0.0808625410
    2    2    2    7       -0.0563843208
    2    2    2    8       -0.0197970381
    2    3    2    1        0.0048028713
    2    3    2    2        0.0281981029
    2    3    2    3        0.1301425898
    2    3    2    4        0.0079763915
    2    3    2    6        0.0172357600
    2    3    2    7       -0.0375536278
    2    3    2    8        0.0064872215
    2    4    2    1        0.0054637743
    2    4    2    2       -0.0148519699
    2    4    2    3        0.0079763915
    2    4    2    4        0.1100507116
    2    4    2    6       -0.0346697864
    2    4    2    7        0.0104858615
    2    4    2    8       -0.0149876894
    2    5    2    5        0.1246571687
    2    6    2    1        0.0021250434
    2    6    2    2       -0.0808625410
    2    6    2    3        0.0172357600
    2    6    2    4       -0.0346697864
    2    6    2    6        0.0482299241
    2    6    2    7        0.0016805219
    2    6    2    8        0.0236588781
    2    7    2    1        0.0003368034
    2    7    2    2       -0.0563843208
    2    7    2    3       -0.0375536278
    2    7    2    4        0.0104858615
    2    7    2    6        0.0016805219
    2    7    2    7        0.0332815502
    2    7    2    8       -0.0059602433
    2    8    2    1        0.0011482549
    2    8    2    2       -0.0197970381
    2    8    2    3        0.0064872215
    2    8    2    4       -0.0149876894
    2    8    2    6        0.0236588781
    2    8    2    7       -0.0059602433
    2    8    2    8        0.0205832416
    2    1    3    1       -0.0085947203
    2    1    3    2        0.0046069217
    2    1    3    3       -0.0083466061
    2    1    3    4       -0.0023266116
    2    1    3    6       -0.0013064086
    2    1    3    7        0.0004688796
    2    1    3    8       -0.0013003448
    2    2    3    1        0.0090152202
    2    2    3    2        0.0281981029
    2    2    3    3        0.6491812880
    2    2    3    4        0.0343855635
    2    2    3    6        0.0540369185
    2    2    3    7       -0.1058125555
    2    2    3    8        0.0176013025
    2    3    3    1        0.0216094408
    2    3    3    2        0.1352277798
    2    3    3    3       -0.0031090169
    2    3    3    4        0.0086392977
    2    3    3    6       -0.0017274655
    2    3    3    7        0.0118105258
    2    3    3    8        0.0080656826
    2    4    3    1        0.0012974818
    2    4    3    2        0.0089001689
    2    4    3    3       -0.0070331032
    2    4    3    4       -0.0324718095
    2    4    3    6       -0.0107787758
    2    4    3    7        0.0180778855
    2    4    3    8       -0.0288627281
    2    5    3    5       -0.0165126653
    2    6    3    1        0.0020061358
    2    6    3    2        0.0164403497
    2    6    3    3       -0.0611480749
    2    6    3    4       -0.0030708827
    2    6    3    6       -0.0149111525
    2    6    3    7        0.0244415270
    2    6    3    8       -0.0043065005
    2    7    3    1       -0.0106665557
    2    7    3    2       -0.0369376258
    2    7    3    3       -0.0258800862
    2    7    3    4        0.0019440929
    2    7    3    6        0.0073532225
    2    7    3    7        0.0194155548
    2    7    3    8       -0.0001215015
    2    8    3    1        0.0023827727
    2    8    3    2        0.0064286097
    2    8    3    3       -0.0114375765
    2    8    3    4       -0.0132171882
    2    8    3    6       -0.0085952164
    2    8    3    7        0.0067558969
    2    8    3    8       -0.0119334377
    2    1    4    1       -0.0136040726
    2    1    4    2        0.0052825355
    2    1    4    3       -0.0023453050
    2    1    4    4       -0.0104546530
    2    1    4    6       -0.0000049159
    2    1    4    7       -0.0005019463
    2    1    4    8        0.0010056618
    2    2    4    1        0.0087242829
    2    2    4    2       -0.0148519699
    2    2    4    3        0.0343855635
    2    2    4    4        0.6388986391
    2    2    4    6       -0.1114351132
    2    2    4    7        0.0269776150
    2    2    4    8       -0.0412278148
    2    3    4    1        0.0017892492
    2    3    4    2        0.0089001689
    2    3    4    3        0.0096403441
    2    3    4    4       -0.0292602523
    2    3    4    6       -0.0134952895
    2    3    4    7        0.0175000424
    2    3    4    8       -0.0318794383
    2    4    4    1        0.0214261318
    2    4    4    2        0.1142344393
    2    4    4    3       -0.0324286527
    2    4    4    4       -0.0450708731
    2    4    4    6        0.0192474384
    2    4    4    7       -0.0140539098
    2    4    4    8        0.0261907692
    2    5    4    5       -0.0219684250
    2    6    4    1       -0.0118786877
    2    6    4    2       -0.0338050245
    2    6    4    3       -0.0032095071
    2    6    4    4       -0.0477708062
    2    6    4    6        0.0270509594
    2    6    4    7        0.0049907076
    2    6    4    8        0.0093711486
    2    7    4    1        0.0001477416
    2    7    4    2        0.0104550101
    2    7    4    3        0.0017033406
    2    7    4    4       -0.0378302704
    2    7    4    6        0.0158946711
    2    7    4    7       -0.0071441975
    2    7    4    8        0.0121261228
    2    8    4    1       -0.0063449500
    2    8    4    2       -0.0147713308
    2    8    4    3       -0.0132828493
    2    8    4    4        0.0005473703
    2    8    4    6        0.0128741702
    2    8    4    7        0.0037136173
    2    8    4    8        0.0161387219
    2    1    5    5       -0.0121017064
    2    2    5    5        0.7119242385
    2    3    5    5       -0.0126172549
    2    4    5    5       -0.0413899299
    2    5    5    1        0.0299886466
    2    5    5    2        0.1289260042
    2    5    5    3       -0.0161713680
    2    5    5    4       -0.0227486189
    2    5    5    6       -0.0245903705
    2    5    5    7       -0.0093209162
    2    5    5    8       -0.0185884897
    2    6    5    5       -0.0797834029
    2    7    5    5       -0.0462577323
    2    8    5    5       -0.0252853557
    2    1    6    1       -0.0201247034
    2    1    6    2        0.0031760755
    2    1    6    3       -0.0017152336
    2    1    6    4        0.0007037170
    2    1    6    6       -0.0036338047
    2    1    6    7        0.0008677042
    2    1    6    8       -0.0022849946
    2    2    6    1        0.0028798966
    2    2    6    2       -0.0808625410
    2    2    6    3        0.0540369185
    2    2    6    4       -0.1114351132
    2    2    6    6        0.4080994809
    2    2    6    7       -0.0100369827
    2    2    6    8        0.1073836059
    2    3    6    1        0.0033009331
    2    3    6    2        0.0164403497
    2    3    6    3       -0.0009812314
    2    3    6    4       -0.0136333921
    2    3    6    6       -0.0263317458
    2    3    6    7        0.0345599705
    2    3    6    8       -0.0088852661
    2    4    6    1       -0.0131935370
    2    4    6    2       -0.0338050245
    2    4    6    3       -0.0108804815
    2    4    6    4        0.0199669108
    2    4    6    6        0.0328159448
    2    4    6    7        0.0012439836
    2    4    6    8        0.0105797743
    2    5    6    5       -0.0229981558
    2    6    6    1        0.0054515649
    2    6    6    2        0.0431708107
    2    6    6    3       -0.0139152870
    2    6    6    4        0.0253108286
    2    6    6    6       -0.0316966655
    2    6    6    7        0.0021249484
    2    6    6    8       -0.0140499900
    2    7    6    1       -0.0033098288
    2    7    6    2        0.0007336114
    2    7    6    3        0.0044082826
    2    7    6    4        0.0143837771
    2    7    6    6       -0.0125923297
    2    7    6    7        0.0032160378
    2    7    6    8       -0.0086580319
    2    8    6    1        0.0034718778
    2    8    6    2        0.0214514555
    2    8    6    3       -0.0086004018
    2    8    6    4        0.0132426397
    2    8    6    6       -0.0005908631
    2    8    6    7       -0.0049881941
    2    8    6    8        0.0080787384
    2    1    7    1       -0.0111610889
    2    1    7    2        0.0009385691
    2    1    7    3        0.0014001388
    2    1    7    4       -0.0006205542
    2    1    7    6        0.0008658561
    2    1    7    7       -0.0020842028
    2    1    7    8        0.0010088273
    2    2    7    1       -0.0011469183
    2    2    7    2       -0.0563843208
    2    2    7    3       -0.1058125555
    2    2    7    4        0.0269776150
    2    2    7    6       -0.0100369827
    2    2    7    7        0.3695508788
    2    2    7    8       -0.0471297294
    2    3    7    1       -0.0129082310
    2    3    7    2       -0.0369376258
    2    3    7    3        0.0109889631
    2    3    7    4        0.0171192876
    2    3    7    6        0.0345394280
    2    3    7    7        0.0406852755
    2    3    7    8        0.0076898137
    2    4    7    1        0.0007058628
    2    4    7    2        0.0104550101
    2    4    7    3        0.0173529519
    2    4    7    4       -0.0137174275
    2    4    7    6        0.0012449789
    2    4    7    7       -0.0008966785
    2    4    7    8        0.0043485806
    2    5    7    5       -0.0086531382
    2    6    7    1       -0.0031319236
    2    6    7    2        0.0007336114
    2    6    7    3        0.0229148862
    2    6    7    4        0.0026310659
    2    6    7    6        0.0023142185
    2    6    7    7       -0.0107216890
    2    6    7    8        0.0029896310
    2    7    7    1        0.0053996962
    2    7    7    2        0.0276040776
    2    7    7    3        0.0163063641
    2    7    7    4       -0.0063017055
    2    7    7    6        0.0029564862
    2    7    7    7       -0.0099845758
    2    7    7    8        0.0040719684
    2    8    7    1       -0.0023232732
    2    8    7    2       -0.0050873600
    2    8    7    3        0.0072283003
    2    8    7    4        0.0020560578
    2    8    7    6       -0.0048189210
    2    8    7    7        0.0001623766
    2    8    7    8       -0.0037735043
    2    1    8    1       -0.0075582458
    2    1    8    2        0.0014101035
    2    1    8    3       -0.0015667538
    2    1    8    4        0.0012983522
    2    1    8    6       -0.0022870046
    2    1    8    7        0.0010200707
    2    1    8    8       -0.0016301530
    2    2    8    1        0.0012983359
    2    2    8    2       -0.0197970381
    2    2    8    3        0.0176013025
    2    2    8    4       -0.0412278148
    2    2    8    6        0.1073836059
    2    2    8    7       -0.0471297294
    2    2    8    8        0.3765944898
    2    3    8    1        0.0042097669
    2    3    8    2        0.0064286097
    2    3    8    3        0.0086058471
    2    3    8    4       -0.0311463311
    2    3    8    6       -0.0090655057
[...]
    7    7    8    3        0.0057188656
    7    7    8    4       -0.0125169021
    7    7    8    6        0.0389802327
    7    7    8    7       -0.0131003315
    7    7    8    8        0.2556423829
    7    8    8    1       -0.0004648538
    7    8    8    2       -0.0039118075
    7    8    8    3        0.0074739055
    7    8    8    4       -0.0088540443
    7    8    8    6       -0.0221181388
    7    8    8    7        0.0128307331
    7    8    8    8       -0.0427903424
    8    1    1    1        0.0492118030
    8    1    1    2       -0.0078766013
    8    1    1    3        0.0054129842
    8    1    1    4       -0.0065877495
    8    1    1    6        0.0074113947
    8    1    1    7       -0.0018834646
    8    1    1    8        0.0048681818
    8    2    1    1       -0.0496589382
    8    2    1    2        0.0011482549
    8    2    1    3        0.0023827727
    8    2    1    4       -0.0063449500
    8    2    1    6        0.0034718778
    8    2    1    7       -0.0023232732
    8    2    1    8        0.0028039270
    8    3    1    1        0.0572887431
    8    3    1    2       -0.0013003448
    8    3    1    3       -0.0010840292
    8    3    1    4       -0.0011724149
    8    3    1    6        0.0009144777
    8    3    1    7        0.0008246826
    8    3    1    8        0.0004309801
    8    4    1    1       -0.0934089106
    8    4    1    2        0.0010056618
    8    4    1    3       -0.0033932141
    8    4    1    4        0.0005420409
    8    4    1    6       -0.0016819555
    8    4    1    7        0.0017516616
    8    4    1    8       -0.0013281402
    8    5    1    5       -0.0039999591
    8    6    1    1        0.1643008927
    8    6    1    2       -0.0022849946
    8    6    1    3       -0.0001412403
    8    6    1    4        0.0033591717
    8    6    1    6       -0.0009831924
    8    6    1    7        0.0008477177
    8    6    1    8       -0.0008119332
    8    7    1    1       -0.0733314984
    8    7    1    2        0.0010088273
    8    7    1    3        0.0004726009
    8    7    1    4        0.0010029499
    8    7    1    6       -0.0007308483
    8    7    1    7       -0.0002861102
    8    7    1    8       -0.0004648538
    8    8    1    1        0.4160766372
    8    8    1    2       -0.0016301530
    8    8    1    3       -0.0019753976
    8    8    1    4        0.0044255423
    8    8    1    6       -0.0021880726
    8    8    1    7        0.0017321290
    8    8    1    8       -0.0016413920
    8    1    2    1       -0.0075582458
    8    1    2    2        0.0012983359
    8    1    2    3        0.0042097669
    8    1    2    4       -0.0084757701
    8    1    2    6        0.0043029650
    8    1    2    7       -0.0028844633
    8    1    2    8        0.0028039270
    8    2    2    1        0.0014101035
    8    2    2    2       -0.0197970381
    8    2    2    3        0.0064286097
    8    2    2    4       -0.0147713308
    8    2    2    6        0.0214514555
    8    2    2    7       -0.0050873600
    8    2    2    8        0.0188022240
    8    3    2    1       -0.0015667538
    8    3    2    2        0.0176013025
    8    3    2    3        0.0086058471
    8    3    2    4       -0.0283292697
    8    3    2    6       -0.0044516556
    8    3    2    7       -0.0007987765
    8    3    2    8       -0.0123014369
    8    4    2    1        0.0012983522
    8    4    2    2       -0.0412278148
    8    4    2    3       -0.0311463311
    8    4    2    4        0.0261849685
    8    4    2    6        0.0094459640
    8    4    2    7        0.0109607613
    8    4    2    8        0.0166341519
    8    5    2    5       -0.0175279228
    8    6    2    1       -0.0022870046
    8    6    2    2        0.1073836059
    8    6    2    3       -0.0090655057
    8    6    2    4        0.0107498855
    8    6    2    6       -0.0140436218
    8    6    2    7       -0.0085491516
    8    6    2    8        0.0082603851
    8    7    2    1        0.0010200707
    8    7    2    2       -0.0471297294
    8    7    2    3        0.0076937696
    8    7    2    4        0.0042243769
    8    7    2    6        0.0029089693
    8    7    2    7        0.0041144666
    8    7    2    8       -0.0039118075
    8    8    2    1       -0.0016301530
    8    8    2    2        0.3765944898
    8    8    2    3       -0.0518450824
    8    8    2    4        0.0515441073
    8    8    2    6       -0.0125323438
    8    8    2    7       -0.0113427492
    8    8    2    8        0.0299066905
    8    1    3    1        0.0050316909
    8    1    3    2        0.0041482684
    8    1    3    3       -0.0008875596
    8    1    3    4        0.0011169613
    8    1    3    6       -0.0009855747
    8    1    3    7       -0.0002428436
    8    1    3    8        0.0004309801
    8    2    3    1        0.0022824472
    8    2    3    2        0.0064872215
    8    2    3    3       -0.0114375765
    8    2    3    4       -0.0132828493
    8    2    3    6       -0.0086004018
    8    2    3    7        0.0072283003
    8    2    3    8       -0.0123014369
    8    3    3    1       -0.0011799780
    8    3    3    2        0.0080656826
    8    3    3    3        0.0066077127
    8    3    3    4        0.0221050858
    8    3    3    6        0.0242099681
    8    3    3    7       -0.0131282216
    8    3    3    8        0.0387195140
    8    4    3    1       -0.0036199273
    8    4    3    2       -0.0318794383
    8    4    3    3       -0.0074154990
    8    4    3    4       -0.0289907323
    8    4    3    6       -0.0241374093
    8    4    3    7        0.0134075785
    8    4    3    8       -0.0409813932
    8    5    3    5        0.0066926071
    8    6    3    1       -0.0001026550
    8    6    3    2       -0.0088852661
    8    6    3    3        0.0992657102
    8    6    3    4       -0.0127648597
    8    6    3    6        0.0023901762
    8    6    3    7       -0.0148147231
    8    6    3    8       -0.0236997689
    8    7    3    1        0.0004803161
    8    7    3    2        0.0076898137
    8    7    3    3       -0.0443812025
    8    7    3    4        0.0036443532
    8    7    3    6       -0.0016965786
    8    7    3    7        0.0106177162
    8    7    3    8        0.0074739055
    8    8    3    1       -0.0019753976
    8    8    3    2       -0.0518450824
    8    8    3    3        0.3937333036
    8    8    3    4       -0.0596268688
    8    8    3    6       -0.0382045421
    8    8    3    7       -0.0164387088
    8    8    3    8       -0.0841845594
    8    1    4    1       -0.0059357951
    8    1    4    2       -0.0083657826
    8    1    4    3        0.0010933355
    8    1    4    4        0.0036216848
    8    1    4    6       -0.0000140100
    8    1    4    7        0.0018985248
    8    1    4    8       -0.0013281402
    8    2    4    1       -0.0063691960
    8    2    4    2       -0.0149876894
    8    2    4    3       -0.0132171882
    8    2    4    4        0.0005473703
    8    2    4    6        0.0132426397
    8    2    4    7        0.0020560578
    8    2    4    8        0.0166341519
    8    3    4    1       -0.0013452009
    8    3    4    2       -0.0288627281
    8    3    4    3        0.0227335167
    8    3    4    4       -0.0064103713
    8    3    4    6       -0.0271391339
    8    3    4    7        0.0098273330
    8    3    4    8       -0.0409813932
    8    4    4    1        0.0004490994
    8    4    4    2        0.0261907692
    8    4    4    3       -0.0288055940
    8    4    4    4       -0.0116469587
    8    4    4    6        0.0439845909
    8    4    4    7       -0.0172111279
    8    4    4    8        0.0608460144
    8    5    4    5       -0.0030806357
    8    6    4    1        0.0033391513
    8    6    4    2        0.0105797743
    8    6    4    3       -0.0126303760
    8    6    4    4        0.1054521370
    8    6    4    6       -0.0097426418
    8    6    4    7       -0.0001878711
    8    6    4    8        0.0269764096
    8    7    4    1        0.0010503246
    8    7    4    2        0.0043485806
    8    7    4    3        0.0035035827
    8    7    4    4       -0.0498860736
    8    7    4    6        0.0033090905
    8    7    4    7       -0.0025335791
    8    7    4    8       -0.0088540443
    8    8    4    1        0.0044255423
    8    8    4    2        0.0515441073
    8    8    4    3       -0.0596268688
    8    8    4    4        0.4136869554
    8    8    4    6        0.0434663116
    8    8    4    7       -0.0203834430
    8    8    4    8        0.1021321732
    8    1    5    5        0.0006937312
    8    2    5    5       -0.0252853557
    8    3    5    5        0.0233220147
    8    4    5    5       -0.0382923459
    8    5    5    1       -0.0043439210
    8    5    5    2       -0.0185884897
    8    5    5    3        0.0072185702
    8    5    5    4       -0.0035392930
    8    5    5    6        0.0080788358
    8    5    5    7       -0.0023927578
    8    5    5    8        0.0072967279
    8    6    5    5        0.0972517717
    8    7    5    5       -0.0454792184
    8    8    5    5        0.3586957723
    8    1    6    1        0.0076383388
    8    1    6    2        0.0046499654
    8    1    6    3       -0.0011345456
    8    1    6    4        0.0001969338
    8    1    6    6       -0.0025369596
    8    1    6    7        0.0002463259
    8    1    6    8       -0.0008119332
    8    2    6    1        0.0038674396
    8    2    6    2        0.0236588781
    8    2    6    3       -0.0085952164
    8    2    6    4        0.0128741702
    8    2    6    6       -0.0005908631
    8    2    6    7       -0.0048189210
    8    2    6    8        0.0082603851
    8    3    6    1        0.0007825115
    8    3    6    2       -0.0043065005
    8    3    6    3        0.0242544586
    8    3    6    4       -0.0259223683
    8    3    6    6       -0.0249620623
    8    3    6    7        0.0110901377
    8    3    6    8       -0.0236997689
    8    4    6    1       -0.0015287311
    8    4    6    2        0.0093711486
    8    4    6    3       -0.0232764289
    8    4    6    4        0.0440063211
    8    4    6    6        0.0240924513
    8    4    6    7       -0.0178207001
    8    4    6    8        0.0269764096
    8    5    6    5        0.0095767295
    8    6    6    1       -0.0009657279
    8    6    6    2       -0.0140499900
    8    6    6    3        0.0027691332
    8    6    6    4       -0.0100964957
    8    6    6    6        0.0603884818
    8    6    6    7       -0.0074080517
    8    6    6    8        0.0609891895
    8    7    6    1       -0.0007427193
    8    7    6    2        0.0029896310
    8    7    6    3       -0.0016479131
    8    7    6    4        0.0035965362
    8    7    6    6       -0.0246136768
    8    7    6    7        0.0052546201
    8    7    6    8       -0.0221181388
    8    8    6    1       -0.0021880726
    8    8    6    2       -0.0125323438
    8    8    6    3       -0.0382045421
    8    8    6    4        0.0434663116
    8    8    6    6        0.3981851479
    8    8    6    7       -0.0650845490
    8    8    6    8        0.1061431644
    8    1    7    1       -0.0019585948
    8    1    7    2       -0.0029501470
    8    1    7    3       -0.0001012661
    8    1    7    4        0.0019957769
    8    1    7    6        0.0002408454
    8    1    7    7        0.0012045507
    8    1    7    8       -0.0004648538
    8    2    7    1       -0.0024157760
    8    2    7    2       -0.0059602433
    8    2    7    3        0.0067558969
    8    2    7    4        0.0037136173
    8    2    7    6       -0.0049881941
    8    2    7    7        0.0001623766
    8    2    7    8       -0.0039118075
    8    3    7    1        0.0009142577
    8    3    7    2       -0.0001215015
    8    3    7    3       -0.0126628384
    8    3    7    4        0.0097111714
    8    3    7    6        0.0109910364
    8    3    7    7        0.0057188656
    8    3    7    8        0.0074739055
    8    4    7    1        0.0019018315
    8    4    7    2        0.0121261228
    8    4    7    3        0.0123217569
    8    4    7    4       -0.0176742031
    8    4    7    6       -0.0177934386
    8    4    7    7       -0.0125169021
    8    4    7    8       -0.0088540443
    8    5    7    5       -0.0025502118
    8    6    7    1        0.0008335706
    8    6    7    2       -0.0086580319
    8    6    7    3       -0.0148306753
    8    6    7    4        0.0001592381
    8    6    7    6       -0.0074250241
    8    6    7    7        0.0389802327
    8    6    7    8       -0.0221181388
    8    7    7    1       -0.0002847464
    8    7    7    2        0.0040719684
    8    7    7    3        0.0105641217
    8    7    7    4       -0.0025433229
    8    7    7    6        0.0052547147
    8    7    7    7       -0.0131003315
    8    7    7    8        0.0128307331
    8    8    7    1        0.0017321290
    8    8    7    2       -0.0113427492
    8    8    7    3       -0.0164387088
    8    8    7    4       -0.0203834430
    8    8    7    6       -0.0650845490
    8    8    7    7        0.2556423829
    8    8    7    8       -0.0427903424
    8    1    8    1        0.0050180384
    8    1    8    2        0.0030143350
    8    1    8    3        0.0003413528
    8    1    8    4       -0.0012534651
    8    1    8    6       -0.0008029636
    8    1    8    7       -0.0004706284
    8    1    8    8       -0.0016413920
    8    2    8    1        0.0030143350
    8    2    8    2        0.0205832416
    8    2    8    3       -0.0119334377
    8    2    8    4        0.0161387219
    8    2    8    6        0.0080787384
    8    2    8    7       -0.0037735043
    8    2    8    8        0.0299066905
    8    3    8    1        0.0003413528
    8    3    8    2       -0.0119334377
    8    3    8    3        0.0387838777
    8    3    8    4       -0.0401900636
    8    3    8    6       -0.0231830414
    8    3    8    7        0.0073267925
    8    3    8    8       -0.0841845594
    8    4    8    1       -0.0012534651
    8    4    8    2        0.0161387219
    8    4    8    3       -0.0401900636
    8    4    8    4        0.0610373432
    8    4    8    6        0.0265120953
    8    4    8    7       -0.0087362898
    8    4    8    8        0.1021321732
    8    5    8    5        0.0078060984
    8    6    8    1       -0.0008029636
    8    6    8    2        0.0080787384
    8    6    8    3       -0.0231830414
    8    6    8    4        0.0265120953
    8    6    8    6        0.0608994493
    8    6    8    7       -0.0220564855
    8    6    8    8        0.1061431644
    8    7    8    1       -0.0004706284
    8    7    8    2       -0.0037735043
    8    7    8    3        0.0073267925
    8    7    8    4       -0.0087362898
    8    7    8    6       -0.0220564855
    8    7    8    7        0.0127995514
    8    7    8    8       -0.0427903424
    8    8    8    1       -0.0016413920
    8    8    8    2        0.0299066905
    8    8    8    3       -0.0841845594
    8    8    8    4        0.1021321732
    8    8    8    6        0.1061431644
    8    8    8    7       -0.0427903424
    8    8    8    8        0.5562991464
 end_two_electron_integrals

 Parallel integral file used       1 records with       0 large values


 Task  times  cpu:        6.0s     wall:        6.0s


                                NWChem Input Module
                                -------------------


 Summary of allocated global arrays
-----------------------------------
  No active global arrays


MA_summarize_allocated_blocks: starting scan ...
MA_summarize_allocated_blocks: scan completed: 0 heap blocks, 0 stack blocks
MA usage statistics:

	allocation statistics:
					      heap	     stack
					      ----	     -----
	current number of blocks	         0	         0
	maximum number of blocks	        17	        42
	current total bytes		         0	         0
	maximum total bytes		   2110096	 141357496
	maximum total K-bytes		      2111	    141358
	maximum total M-bytes		         3	       142


                                     CITATION
                                     --------
                Please cite the following reference when publishing
                           results obtained with NWChem:

          E. Apra, E. J. Bylaska, W. A. de Jong, N. Govind, K. Kowalski,
       T. P. Straatsma, M. Valiev, H. J. J. van Dam, Y. Alexeev, J. Anchell,
       V. Anisimov, F. W. Aquino, R. Atta-Fynn, J. Autschbach, N. P. Bauman,
     J. C. Becca, D. E. Bernholdt, K. Bhaskaran-Nair, S. Bogatko, P. Borowski,
         J. Boschen, J. Brabec, A. Bruner, E. Cauet, Y. Chen, G. N. Chuev,
      C. J. Cramer, J. Daily, M. J. O. Deegan, T. H. Dunning Jr., M. Dupuis,
   K. G. Dyall, G. I. Fann, S. A. Fischer, A. Fonari, H. Fruchtl, L. Gagliardi,
      J. Garza, N. Gawande, S. Ghosh, K. Glaesemann, A. W. Gotz, J. Hammond,
       V. Helms, E. D. Hermes, K. Hirao, S. Hirata, M. Jacquelin, L. Jensen,
   B. G. Johnson, H. Jonsson, R. A. Kendall, M. Klemm, R. Kobayashi, V. Konkov,
      S. Krishnamoorthy, M. Krishnan, Z. Lin, R. D. Lins, R. J. Littlefield,
      A. J. Logsdail, K. Lopata, W. Ma, A. V. Marenich, J. Martin del Campo,
   D. Mejia-Rodriguez, J. E. Moore, J. M. Mullin, T. Nakajima, D. R. Nascimento,
    J. A. Nichols, P. J. Nichols, J. Nieplocha, A. Otero-de-la-Roza, B. Palmer,
    A. Panyala, T. Pirojsirikul, B. Peng, R. Peverati, J. Pittner, L. Pollack,
   R. M. Richard, P. Sadayappan, G. C. Schatz, W. A. Shelton, D. W. Silverstein,
   D. M. A. Smith, T. A. Soares, D. Song, M. Swart, H. L. Taylor, G. S. Thomas,
            V. Tipparaju, D. G. Truhlar, K. Tsemekhman, T. Van Voorhis,
      A. Vazquez-Mayagoitia, P. Verma, O. Villa, A. Vishnu, K. D. Vogiatzis,
        D. Wang, J. H. Weare, M. J. Williamson, T. L. Windus, K. Wolinski,
        A. T. Wong, Q. Wu, C. Yang, Q. Yu, M. Zacharias, Z. Zhang, Y. Zhao,
                                and R. J. Harrison
                        "NWChem: Past, present, and future
                         J. Chem. Phys. 152, 184102 (2020)
                               doi:10.1063/5.0004997

                                      AUTHORS
                                      -------
  E. Apra, E. J. Bylaska, N. Govind, K. Kowalski, M. Valiev, D. Mejia-Rodriguez,
       A. Kunitsa, N. P. Bauman, A. Panyala, W. A. de Jong, T. P. Straatsma,
        H. J. J. van Dam, D. Wang, T. L. Windus, J. Hammond, J. Autschbach,
    K. Bhaskaran-Nair, J. Brabec, K. Lopata, S. A. Fischer, S. Krishnamoorthy,
     M. Jacquelin, W. Ma, M. Klemm, O. Villa, Y. Chen, V. Anisimov, F. Aquino,
    S. Hirata, M. T. Hackler, Eric Hermes, L. Jensen, J. E. Moore, J. C. Becca,
      V. Konjkov, T. Risthaus, M. Malagoli, A. Marenich, A. Otero-de-la-Roza,
        J. Mullin, P. Nichols, R. Peverati, J. Pittner, Y. Zhao, P.-D. Fan,
        A. Fonari, M. J. Williamson, R. J. Harrison, J. R. Rehr, M. Dupuis,
     D. Silverstein, D. M. A. Smith, J. Nieplocha, V. Tipparaju, M. Krishnan,
     B. E. Van Kuiken, A. Vazquez-Mayagoitia, M. Swart, Q. Wu, T. Van Voorhis,
     A. A. Auer, M. Nooijen, L. D. Crosby, E. Brown, G. Cisneros, G. I. Fann,
   H. Fruchtl, J. Garza, K. Hirao, R. A. Kendall, J. A. Nichols, K. Tsemekhman,
    K. Wolinski, J. Anchell, D. E. Bernholdt, P. Borowski, T. Clark, D. Clerc,
   H. Dachsel, M. J. O. Deegan, K. Dyall, D. Elwood, E. Glendening, M. Gutowski,
   A. C. Hess, J. Jaffe, B. G. Johnson, J. Ju, R. Kobayashi, R. Kutteh, Z. Lin,
   R. Littlefield, X. Long, B. Meng, T. Nakajima, S. Niu, L. Pollack, M. Rosing,
   K. Glaesemann, G. Sandrone, M. Stave, H. Taylor, G. Thomas, J. H. van Lenthe,
                               A. T. Wong, Z. Zhang.

 Total times  cpu:        6.0s     wall:        6.1s
