 argument  1 = input.nw
  NWChem w/ OpenMP: maximum threads =    1



============================== echo of input deck ==============================
 echo
 start H2O
 title "H2O"

 memory total 24 gb

 geometry units bohr
 symmetry c1
        O  0.00000000  0.00000000  0.00000000
        H  0.00000000  2.5255265  0.00000000
        H  1.72558000 -0.64860000  0.00000000
 end

 basis spherical
   * library cc-pVDZ
 end

 scf
   vectors input h2o.mos
   vectors output h2o.mos
 end

 tce
   2eorb
   2emet 13
   ccsd
   maxiter 300
 end

# set tce:print_integrals T
# set tce:qorb 8
# set tce:qela 5
# set tce:qelb 5

 set tce:qducc T
 set tce:nactv 3
 set tce:nonhf T
 set tce:ducc_model 6

 set tce:printtol 0.02

 task tce
================================================================================


                                         
                                         


             Northwest Computational Chemistry Package (NWChem) 7.0.1
             --------------------------------------------------------


                    Environmental Molecular Sciences Laboratory
                       Pacific Northwest National Laboratory
                                Richland, WA 99352

                              Copyright (c) 1994-2020
                       Pacific Northwest National Laboratory
                            Battelle Memorial Institute

             NWChem is an open-source computational chemistry package
                        distributed under the terms of the
                      Educational Community License (ECL) 2.0
             A copy of the license is included with this distribution
                              in the LICENSE.TXT file

                                  ACKNOWLEDGMENT
                                  --------------

            This software and its documentation were developed at the
            EMSL at Pacific Northwest National Laboratory, a multiprogram
            national laboratory, operated for the U.S. Department of Energy
            by Battelle under Contract Number DE-AC05-76RL01830. Support
            for this work was provided by the Department of Energy Office
            of Biological and Environmental Research, Office of Basic
            Energy Sciences, and the Office of Advanced Scientific Computing.


           Job information
           ---------------

    hostname        = WE46210
    program         = /home/baum612/code/nwchem/bin/LINUX64/nwchem
    date            = Fri Sep  6 10:02:35 2024

    compiled        = Wed_Sep_04_02:00:17_2024
    source          = /home/baum612/code/nwchem
    nwchem branch   = 7.0.0
    nwchem revision = nwchem_on_git-4191-g39d87d64de
    ga revision     = 5.8.1
    use scalapack   = F
    input           = input.nw
    prefix          = H2O.
    data base       = ./H2O.db
    status          = startup
    nproc           =        1
    time left       =     -1s



           Memory information
           ------------------

    heap     =  805306366 doubles =   6144.0 Mbytes
    stack    =  805306363 doubles =   6144.0 Mbytes
    global   = 1610612736 doubles =  12288.0 Mbytes (distinct from heap & stack)
    total    = 3221225465 doubles =  24576.0 Mbytes
    verify   = yes
    hardfail = no 


           Directory information
           ---------------------

  0 permanent = .
  0 scratch   = .




                                NWChem Input Module
                                -------------------


                                        H2O
                                        ---
 Turning off AUTOSYM since
 SYMMETRY directive was detected!


          ------
          auto-z
          ------
  autoz: The atoms group into disjoint clusters
 cluster   1:    1    3
 cluster   2:    2
 Connecting clusters   1   2 via atoms    1    2 r = 1.34
  autoz: regenerating connections with new bonds
  no constraints, skipping    0.0000000000000000     
  no constraints, skipping    0.0000000000000000     


                             Geometry "geometry" -> ""
                             -------------------------

 Output coordinates in a.u. (scale by  1.000000000 to convert to a.u.)

  No.       Tag          Charge          X              Y              Z
 ---- ---------------- ---------- -------------- -------------- --------------
    1 O                    8.0000    -0.17255800    -0.18769265     0.00000000
    2 H                    1.0000    -0.17255800     2.33783385     0.00000000
    3 H                    1.0000     1.55302200    -0.83629265     0.00000000

      Atomic Mass 
      ----------- 

      O                 15.994910
      H                  1.007825


 Effective nuclear repulsion energy (a.u.)       7.7841348238

            Nuclear Dipole moment (a.u.) 
            ----------------------------
        X                 Y               Z
 ---------------- ---------------- ----------------
    -0.0000000000    -0.0000000000     0.0000000000



                                Z-matrix (autoz)
                                -------- 

 Units are Angstrom for bonds and degrees for angles

      Type          Name      I     J     K     L     M      Value
      ----------- --------  ----- ----- ----- ----- ----- ----------
    1 Stretch                  1     2                       1.33645
    2 Stretch                  1     3                       0.97551
    3 Bend                     2     1     3               110.59992


            XYZ format geometry
            -------------------
     3
 geometry
 O                    -0.09131377    -0.09932268     0.00000000
 H                    -0.09131377     1.23712849     0.00000000
 H                     0.82182391    -0.44254704     0.00000000

 ==============================================================================
                                internuclear distances
 ------------------------------------------------------------------------------
       center one      |      center two      | atomic units |       a.u.
 ------------------------------------------------------------------------------
    3 H                |   1 O                |     1.84345  |     1.84345
 ------------------------------------------------------------------------------
                         number of included internuclear distances:          1
 ==============================================================================





 Summary of "ao basis" -> "" (spherical)
 ------------------------------------------------------------------------------
       Tag                 Description            Shells   Functions and Types
 ---------------- ------------------------------  ------  ---------------------
 *                          cc-pVDZ                   on all atoms 


                      Basis "ao basis" -> "ao basis" (spherical)
                      -----
  O (Oxygen)
  ----------
            Exponent  Coefficients 
       -------------- ---------------------------------------------------------
  1 S  1.17200000E+04  0.000710
  1 S  1.75900000E+03  0.005470
  1 S  4.00800000E+02  0.027837
  1 S  1.13700000E+02  0.104800
  1 S  3.70300000E+01  0.283062
  1 S  1.32700000E+01  0.448719
  1 S  5.02500000E+00  0.270952
  1 S  1.01300000E+00  0.015458

  2 S  1.17200000E+04 -0.000160
  2 S  1.75900000E+03 -0.001263
  2 S  4.00800000E+02 -0.006267
  2 S  1.13700000E+02 -0.025716
  2 S  3.70300000E+01 -0.070924
  2 S  1.32700000E+01 -0.165411
  2 S  5.02500000E+00 -0.116955
  2 S  1.01300000E+00  0.557368

  3 S  3.02300000E-01  1.000000

  4 P  1.77000000E+01  0.043018
  4 P  3.85400000E+00  0.228913
  4 P  1.04600000E+00  0.508728

  5 P  2.75300000E-01  1.000000

  6 D  1.18500000E+00  1.000000

  H (Hydrogen)
  ------------
            Exponent  Coefficients 
       -------------- ---------------------------------------------------------
  1 S  1.30100000E+01  0.019685
  1 S  1.96200000E+00  0.137977
  1 S  4.44600000E-01  0.478148

  2 S  1.22000000E-01  1.000000

  3 P  7.27000000E-01  1.000000



 Summary of "ao basis" -> "ao basis" (spherical)
 ------------------------------------------------------------------------------
       Tag                 Description            Shells   Functions and Types
 ---------------- ------------------------------  ------  ---------------------
 O                          cc-pVDZ                  6       14   3s2p1d
 H                          cc-pVDZ                  3        5   2s1p


                                 NWChem SCF Module
                                 -----------------


                                        H2O



  ao basis        = "ao basis"
  functions       =    24
  atoms           =     3
  closed shells   =     5
  open shells     =     0
  charge          =   0.00
  wavefunction    = RHF 
  input vectors   = ./h2o.mos
  output vectors  = ./h2o.mos
  use symmetry    = F
  symmetry adapt  = F


 Summary of "ao basis" -> "ao basis" (spherical)
 ------------------------------------------------------------------------------
       Tag                 Description            Shells   Functions and Types
 ---------------- ------------------------------  ------  ---------------------
 O                          cc-pVDZ                  6       14   3s2p1d
 H                          cc-pVDZ                  3        5   2s1p



 Forming initial guess at       0.0s


 Loading old vectors from job with title :

H2O


 Starting SCF solution at       0.0s



 ----------------------------------------------
         Quadratically convergent ROHF

 Convergence threshold     :          1.000E-04
 Maximum no. of iterations :           30
 Final Fock-matrix accuracy:          1.000E-07
 ----------------------------------------------


 #quartets = 3.081D+03 #integrals = 2.131D+04 #direct =  0.0% #cached =100.0%


 Integral file          = ./H2O.aoints.0
 Record size in doubles =  65536        No. of integs per rec  =  43688
 Max. records in memory =      4        Max. records in file   = 232238
 No. of bits per label  =      8        No. of bits per value  =     64


              iter       energy          gnorm     gmax       time
             ----- ------------------- --------- --------- --------
                 1      -75.9447883551  1.25D-02  4.46D-03      0.1
                 2      -75.9448020831  1.04D-04  5.89D-05      0.1
                 3      -75.9448020851  4.09D-06  2.90D-06      0.1


       Final RHF  results 
       ------------------ 

         Total SCF energy =    -75.944802085095
      One-electron energy =   -120.498744090508
      Two-electron energy =     36.769807181597
 Nuclear repulsion energy =      7.784134823816

        Time for solution =      0.0s


             Final eigenvalues
             -----------------

              1      
    1  -20.5764
    2   -1.2762
    3   -0.6332
    4   -0.5081
    5   -0.4857
    6    0.1178
    7    0.2311
    8    0.6349
    9    0.8148
   10    1.1462
   11    1.1733
   12    1.3099
   13    1.4578
   14    1.5356
   15    1.6657

                       ROHF Final Molecular Orbital Analysis
                       -------------------------------------

 Vector    2  Occ=2.000000D+00  E=-1.276230D+00
              MO Center=  6.0D-02, -1.0D-01, -1.3D-17, r^2= 5.1D-01
   Bfn.  Coefficient  Atom+Function         Bfn.  Coefficient  Atom+Function  
  ----- ------------  ---------------      ----- ------------  ---------------
     3      0.457769  1 O  s                  2      0.454806  1 O  s          
    20      0.197921  3 H  s          

 Vector    3  Occ=2.000000D+00  E=-6.331820D-01
              MO Center=  3.6D-02,  1.5D-02,  7.8D-18, r^2= 8.8D-01
   Bfn.  Coefficient  Atom+Function         Bfn.  Coefficient  Atom+Function  
  ----- ------------  ---------------      ----- ------------  ---------------
     4      0.420981  1 O  px                20      0.366225  3 H  s          
     5     -0.250295  1 O  py                 7      0.227248  1 O  px         
     3     -0.220256  1 O  s                 15     -0.187324  2 H  s          

 Vector    4  Occ=2.000000D+00  E=-5.080690D-01
              MO Center= -9.8D-02,  1.5D-01, -4.1D-17, r^2= 9.6D-01
   Bfn.  Coefficient  Atom+Function         Bfn.  Coefficient  Atom+Function  
  ----- ------------  ---------------      ----- ------------  ---------------
     5      0.394793  1 O  py                 4      0.325588  1 O  px         
     8      0.300982  1 O  py                15      0.274520  2 H  s          
     7      0.251708  1 O  px                 3     -0.212171  1 O  s          
    16      0.174251  2 H  s          

 Vector    5  Occ=2.000000D+00  E=-4.856785D-01
              MO Center= -7.3D-02, -9.7D-02,  7.7D-17, r^2= 5.9D-01
   Bfn.  Coefficient  Atom+Function         Bfn.  Coefficient  Atom+Function  
  ----- ------------  ---------------      ----- ------------  ---------------
     6      0.639288  1 O  pz                 9      0.497384  1 O  pz         

 Vector    6  Occ=0.000000D+00  E= 1.177567D-01
              MO Center=  1.6D-02,  9.2D-01,  7.8D-18, r^2= 2.2D+00
   Bfn.  Coefficient  Atom+Function         Bfn.  Coefficient  Atom+Function  
  ----- ------------  ---------------      ----- ------------  ---------------
    16      0.894354  2 H  s                  3     -0.607307  1 O  s          
     8     -0.419986  1 O  py                 5     -0.303266  1 O  py         
    21      0.283049  3 H  s                 15      0.221647  2 H  s          

 Vector    7  Occ=0.000000D+00  E= 2.311071D-01
              MO Center=  9.5D-01, -3.8D-01,  2.8D-17, r^2= 2.7D+00
   Bfn.  Coefficient  Atom+Function         Bfn.  Coefficient  Atom+Function  
  ----- ------------  ---------------      ----- ------------  ---------------
    21      1.492141  3 H  s                  3     -0.598344  1 O  s          
    16     -0.595042  2 H  s                  7     -0.429341  1 O  px         
     8      0.385969  1 O  py                 4     -0.208128  1 O  px         
     5      0.192874  1 O  py         

 Vector    8  Occ=0.000000D+00  E= 6.349149D-01
              MO Center= -1.0D-01,  1.3D+00,  4.1D-17, r^2= 1.7D+00
   Bfn.  Coefficient  Atom+Function         Bfn.  Coefficient  Atom+Function  
  ----- ------------  ---------------      ----- ------------  ---------------
    15      1.275570  2 H  s                 16     -1.277378  2 H  s          
     3      0.282717  1 O  s                  5     -0.231319  1 O  py         
    21      0.179402  3 H  s          

 Vector    9  Occ=0.000000D+00  E= 8.148364D-01
              MO Center=  6.8D-01, -3.7D-01, -1.8D-17, r^2= 1.3D+00
   Bfn.  Coefficient  Atom+Function         Bfn.  Coefficient  Atom+Function  
  ----- ------------  ---------------      ----- ------------  ---------------
    20      1.297818  3 H  s                 21     -0.865043  3 H  s          
     4     -0.284743  1 O  px                 7     -0.282017  1 O  px         
    22      0.244918  3 H  px                 8      0.161008  1 O  py         
     2     -0.156327  1 O  s          

 Vector   10  Occ=0.000000D+00  E= 1.146167D+00
              MO Center= -2.3D-01,  1.7D-01,  5.4D-16, r^2= 1.4D+00
   Bfn.  Coefficient  Atom+Function         Bfn.  Coefficient  Atom+Function  
  ----- ------------  ---------------      ----- ------------  ---------------
     7      1.238899  1 O  px                 4     -0.729259  1 O  px         
     3      0.505641  1 O  s                 20     -0.468694  3 H  s          
    21     -0.440815  3 H  s                 22      0.347566  3 H  px         
    17      0.307439  2 H  px                16      0.163385  2 H  s          

 Vector   11  Occ=0.000000D+00  E= 1.173319D+00
              MO Center= -9.9D-02,  1.1D-01, -5.7D-16, r^2= 1.2D+00
   Bfn.  Coefficient  Atom+Function         Bfn.  Coefficient  Atom+Function  
  ----- ------------  ---------------      ----- ------------  ---------------
     9     -0.929750  1 O  pz                 6      0.905371  1 O  pz         
    19     -0.282742  2 H  pz         

 Vector   12  Occ=0.000000D+00  E= 1.309856D+00
              MO Center=  6.8D-02, -3.7D-01, -7.0D-17, r^2= 1.3D+00
   Bfn.  Coefficient  Atom+Function         Bfn.  Coefficient  Atom+Function  
  ----- ------------  ---------------      ----- ------------  ---------------
     8      1.284380  1 O  py                 5     -0.855565  1 O  py         
    21      0.529626  3 H  s                  7     -0.445892  1 O  px         
     3     -0.410938  1 O  s                 16     -0.402813  2 H  s          
    23      0.320454  3 H  py                18      0.270677  2 H  py         
    20      0.264466  3 H  s                 15     -0.237179  2 H  s          

 Vector   13  Occ=0.000000D+00  E= 1.457827D+00
              MO Center=  3.3D-01,  3.4D-01,  2.0D-16, r^2= 1.4D+00
   Bfn.  Coefficient  Atom+Function         Bfn.  Coefficient  Atom+Function  
  ----- ------------  ---------------      ----- ------------  ---------------
    19      0.687256  2 H  pz                24     -0.647576  3 H  pz         
     6      0.276366  1 O  pz                 9     -0.155750  1 O  pz         

 Vector   14  Occ=0.000000D+00  E= 1.535636D+00
              MO Center= -3.2D-02,  1.4D-01,  5.9D-16, r^2= 1.6D+00
   Bfn.  Coefficient  Atom+Function         Bfn.  Coefficient  Atom+Function  
  ----- ------------  ---------------      ----- ------------  ---------------
     3      0.726681  1 O  s                  2     -0.653734  1 O  s          
    17      0.629808  2 H  px                23      0.543240  3 H  py         
     7     -0.527594  1 O  px                 8     -0.334207  1 O  py         
     1     -0.265828  1 O  s                 22      0.253225  3 H  px         
     4      0.244418  1 O  px                21     -0.231529  3 H  s          

 Vector   15  Occ=0.000000D+00  E= 1.665680D+00
              MO Center=  2.5D-01,  2.2D-01, -1.4D-15, r^2= 1.5D+00
   Bfn.  Coefficient  Atom+Function         Bfn.  Coefficient  Atom+Function  
  ----- ------------  ---------------      ----- ------------  ---------------
    24      0.791168  3 H  pz                19      0.680123  2 H  pz         
     9     -0.658103  1 O  pz                 6      0.188929  1 O  pz         


 center of mass
 --------------
 x =  -0.07599894 y =  -0.08266463 z =   0.00000000

 moments of inertia (a.u.)
 ------------------
           6.653495557028           1.310621423728           0.000000000000
           1.310621423728           2.833002082974           0.000000000000
           0.000000000000           0.000000000000           9.486497640002

  Mulliken analysis of the total density
  --------------------------------------

    Atom       Charge   Shell Charges
 -----------   ------   -------------------------------------------------------
    1 O    8     8.45   2.00  0.85  0.94  2.70  1.94  0.01
    2 H    1     0.74   0.48  0.23  0.03
    3 H    1     0.81   0.67  0.06  0.08

       Multipole analysis of the density wrt the origin
       ------------------------------------------------

     L   x y z        total         open         nuclear
     -   - - -        -----         ----         -------
     0   0 0 0     -0.000000      0.000000     10.000000

     1   1 0 0      0.630057      0.000000     -0.000000
     1   0 1 0      0.519738      0.000000     -0.000000
     1   0 0 1     -0.000000      0.000000      0.000000

     2   2 0 0     -4.210522      0.000000      2.679864
     2   1 1 0     -0.841113      0.000000     -1.443090
     2   1 0 1      0.000000      0.000000      0.000000
     2   0 2 0     -2.791237      0.000000      6.446681
     2   0 1 1     -0.000000      0.000000      0.000000
     2   0 0 2     -5.541051      0.000000      0.000000


 Parallel integral file used       1 records with       0 large values

                   NWChem Extensible Many-Electron Theory Module
                   ---------------------------------------------

              ======================================================
                   This portion of the program was automatically
                  generated by a Tensor Contraction Engine (TCE).
                  The development of this portion of the program
                 and TCE was supported by US Department of Energy,
                Office of Science, Office of Basic Energy Science.
                      TCE is a product of Battelle and PNNL.
              Please cite: S.Hirata, J.Phys.Chem.A 107, 9887 (2003).
              ======================================================

                                        H2O


            General Information
            -------------------
      Number of processors :     1
         Wavefunction type : Restricted Hartree-Fock
          No. of electrons :    10
           Alpha electrons :     5
            Beta electrons :     5
           No. of orbitals :    48
            Alpha orbitals :    24
             Beta orbitals :    24
        Alpha frozen cores :     0
         Beta frozen cores :     0
     Alpha frozen virtuals :     0
      Beta frozen virtuals :     0
         Spin multiplicity : singlet 
    Number of AO functions :    24
       Number of AO shells :    12
        Use of symmetry is : off
      Symmetry adaption is : off
         Schwarz screening : 0.10D-09

          Correlation Information
          -----------------------
          Calculation type : Coupled-cluster singles & doubles                           
   Perturbative correction : none                                                        
            Max iterations :      300
        Residual threshold : 0.10D-06
     T(0) DIIS level shift : 0.00D+00
     L(0) DIIS level shift : 0.00D+00
     T(1) DIIS level shift : 0.00D+00
     L(1) DIIS level shift : 0.00D+00
     T(R) DIIS level shift : 0.00D+00
     T(I) DIIS level shift : 0.00D+00
   CC-T/L Amplitude update :  5-th order DIIS
                I/O scheme : Global Array Library
        L-threshold :  0.10D-06
        EOM-threshold :  0.10D-06
 no EOMCCSD initial starts read in
 TCE RESTART OPTIONS
 READ_INT:   F
 WRITE_INT:  F
 READ_TA:    F
 WRITE_TA:   F
 READ_XA:    F
 WRITE_XA:   F
 READ_IN3:   F
 WRITE_IN3:  F
 SLICE:      F
 D4D5:       F
 quantumc:   F
 qrotation:  F
 pwtce:      F
 qducc:      T
 nacto:                         0
 nrotv:                         0
 nrot:                          0

            Memory Information
            ------------------
          Available GA space size is    1610612160 doubles
          Available MA space size is    1610610956 doubles

 Maximum block size        32 doubles

 tile_dim =     19

 Block   Spin    Irrep     Size     Offset   Alpha
 -------------------------------------------------
   1    alpha     a      5 doubles       0       1
   2    beta      a      5 doubles       5       1
   3    alpha     a     19 doubles      10       3
   4    beta      a     19 doubles      29       3

 Global array virtual files algorithm will be used

 Parallel file system coherency ......... OK

 #quartets = 3.081D+03 #integrals = 2.131D+04 #direct =  0.0% #cached =100.0%


 Integral file          = ./H2O.aoints.0
 Record size in doubles =  65536        No. of integs per rec  =  43688
 Max. records in memory =      4        Max. records in file   = 232238
 No. of bits per label  =      8        No. of bits per value  =     64


 Fock matrix recomputed
 1-e file size   =              576
 1-e file name   = ./H2O.f1
 Cpu & wall time / sec            0.0            0.0
 4-electron integrals stored in orbital form

 v2    file size   =           185666
 4-index algorithm nr.  13 is used
 imaxsize =       30
 imaxsize ichop =        0
 Cpu & wall time / sec            0.1            0.1
 T1-number-of-tasks                    1

 t1 file size   =               95
 t1 file name   = ./H2O.t1
 t1 file handle =       -998
 T2-number-of-boxes                    2

 t2 file size   =            18050
 t2 file name   = ./H2O.t2
 t2 file handle =       -996
CCSD iterations
 ---------------------------------------------------------
 Iter          Residuum       Correlation     Cpu    Wall 
 ---------------------------------------------------------
NEW TASK SCHEDULING
CCSD_T1_NTS --- OK
CCSD_T2_NTS --- OK
    1   0.1199477644661  -0.2172039320406     0.0     0.0
    2   0.0381892220649  -0.2215242593439     0.0     0.0
    3   0.0163331026722  -0.2259856973118     0.0     0.0
    4   0.0078656273880  -0.2272295183061     0.0     0.0
    5   0.0039886209273  -0.2278478067165     0.0     0.0
 MICROCYCLE DIIS UPDATE:                    5                    5
    6   0.0007353590984  -0.2283798436861     0.0     0.0
    7   0.0004811437587  -0.2283961370733     0.0     0.0
    8   0.0002763518230  -0.2284012938734     0.0     0.0
    9   0.0001886595068  -0.2284027561227     0.0     0.0
   10   0.0001221861147  -0.2284049558318     0.0     0.0
 MICROCYCLE DIIS UPDATE:                   10                    5
   11   0.0000099949677  -0.2284092069406     0.0     0.0
   12   0.0000034901385  -0.2284094671491     0.0     0.0
   13   0.0000015995078  -0.2284096938355     0.0     0.0
   14   0.0000007883252  -0.2284097624110     0.0     0.0
   15   0.0000004081505  -0.2284097942393     0.0     0.0
 MICROCYCLE DIIS UPDATE:                   15                    5
   16   0.0000000956999  -0.2284098183236     0.0     0.0
 -----------------------------------------------------------------
 Iterations converged
 CCSD correlation energy / hartree =        -0.228409818323580
 CCSD total energy / hartree       =       -76.173211903418405

 Singles contributions

 Doubles contributions
     6a   (alpha)     6a   (beta ) ---     2a   (alpha)     4a   (beta )       -0.0213991964
     6a   (alpha)     6a   (beta ) ---     3a   (alpha)     3a   (beta )       -0.0305538757
     6a   (alpha)     6a   (beta ) ---     3a   (alpha)     4a   (beta )        0.0392712270
     6a   (alpha)     6a   (beta ) ---     4a   (alpha)     2a   (beta )       -0.0213991964
     6a   (alpha)     6a   (beta ) ---     4a   (alpha)     3a   (beta )        0.0392712270
     6a   (alpha)     6a   (beta ) ---     4a   (alpha)     4a   (beta )       -0.0952475169
     6a   (alpha)     7a   (beta ) ---     4a   (alpha)     3a   (beta )       -0.0257603567
     6a   (alpha)     7a   (beta ) ---     4a   (alpha)     4a   (beta )        0.0215879532
     6a   (alpha)     8a   (beta ) ---     3a   (alpha)     4a   (beta )        0.0208797413
     6a   (alpha)     8a   (beta ) ---     4a   (alpha)     3a   (beta )        0.0222195291
     6a   (alpha)     8a   (beta ) ---     4a   (alpha)     4a   (beta )       -0.0435397106
     6a   (alpha)    11a   (beta ) ---     4a   (alpha)     5a   (beta )        0.0215421024
     7a   (alpha)     6a   (beta ) ---     3a   (alpha)     4a   (beta )       -0.0257603567
     7a   (alpha)     6a   (beta ) ---     4a   (alpha)     4a   (beta )        0.0215879532
     7a   (alpha)     7a   (beta ) ---     3a   (alpha)     3a   (beta )       -0.0328518498
     7a   (alpha)     9a   (beta ) ---     3a   (alpha)     3a   (beta )       -0.0244870238
     8a   (alpha)     6a   (beta ) ---     3a   (alpha)     4a   (beta )        0.0222195291
     8a   (alpha)     6a   (beta ) ---     4a   (alpha)     3a   (beta )        0.0208797413
     8a   (alpha)     6a   (beta ) ---     4a   (alpha)     4a   (beta )       -0.0435397106
     8a   (alpha)     8a   (beta ) ---     4a   (alpha)     4a   (beta )       -0.0336390157
     9a   (alpha)     7a   (beta ) ---     3a   (alpha)     3a   (beta )       -0.0244870238
     9a   (alpha)     9a   (beta ) ---     3a   (alpha)     3a   (beta )       -0.0423937802
    10a   (alpha)    10a   (beta ) ---     4a   (alpha)     4a   (beta )       -0.0214900053
    11a   (alpha)     6a   (beta ) ---     5a   (alpha)     4a   (beta )        0.0215421024
    11a   (alpha)    11a   (beta ) ---     5a   (alpha)     5a   (beta )       -0.0475502949
 Ground state specification:
 exp(T)|Ref>~(1+T)|Ref>
 ------- a(p)+/a(q) strings ----------

 singles norm

 doubles norm

 Reference string
   1.0000000000000000      :(1a)+ (2a)+ (3a)+ (4a)+ (5a)+ (1b)+ (2b)+ (3b)+ (4b)+ (5b)+ |0>

 Singles strings

 Doubles strings
 -------------------------------------
 enrep_tce =    7.7841348238155312     
  EHF(total)         =       -75.94480209
  Shift (HFtot-HFA)  =         0.00000000
 ALL OCCUPIED ORBITALS ARE ACTIVE IN DUCC --> NO SHIFT
 Number of active orbitals                    8
 Number of active alpha electrons                    5
 Number of active beta electrons                    5
  nos                    10
  nvs                    38
 noas                     5
 nobs                     5
 nvas                    19
 nvbs                    19
 nactv                     3
 DUCC MODEL =                     6
 NONHF =  T
 F-T1 correlation    =   -1.8769845901643079E-008
 V-T1-T1 correlation =    5.5262726163036895E-005
 V-T2 correlation    =  -0.22846506227987928     
 Total correlation   =  -0.22840981832356214     
 F-T1(Ext) correlation         =    8.9468276962160709E-009
 V-T1(Ext)-T1(Ext) correlation =    2.6729536902084059E-005
 V-T2(Ext) correlation         =  -0.19304973544385720     
 Total Ext correlation         =  -0.19302299696012742     
1-BODY TIME =    1.819 SECONDS.
  HHHH TIME =    2.175 SECONDS.
  PPPP TIME =    0.029 SECONDS.
  HHHP TIME =    0.647 SECONDS.
  PPPH TIME =    0.085 SECONDS.
  HPHP TIME =    0.356 SECONDS.
  HHPP TIME =    0.361 SECONDS.
 ONE-BODY UNITARY CHECK
 TWO-BODY UNITARY CHECK
                    2                    7                    3                    9   1.4640302858914822E-012
                    2                    7                    4                    7   1.9889298541464484E-012
                    2                    7                    4                    8   1.0349273521503832E-012
                    2                    7                    4                    9  -2.7650937095557993E-012
                    2                    7                    8                    4  -1.7589627671066310E-012
                    2                    7                    9                    2  -1.6850063011553118E-012
                    2                    7                    9                    4   2.7650937095557993E-012
                    2                    8                    4                    8   1.7869126317515693E-012
                    2                    8                    9                    2  -1.0883377532522331E-012
                    2                    9                    3                    7   1.0660413524155032E-012
                    2                    9                    4                    7  -1.6863871410421893E-012
                    2                    9                    4                    9   3.2284036555196849E-012
                    2                    9                    8                    2  -1.6379467226990130E-012
                    2                    9                    9                    2   2.5243140910902184E-012
                    2                    9                    9                    4  -3.0700997299959454E-012
                    2                   10                    4                   10   2.1603135946790530E-012
                    2                   10                    9                    5  -1.1991102555342081E-012
                    2                   10                   10                    4  -1.4329717967775935E-012
                    3                    3                    3                    4   1.3577245297136820E-012
                    3                    3                    4                    3  -1.3577252828318513E-012
                    3                    4                    3                    3  -1.3577245297136820E-012
                    3                    4                    4                    3   1.5270007480694403E-012
                    3                    5                    5                    3  -1.1572964808692632E-012
                    3                    5                    5                    4   1.8220217001818639E-012
                    3                    7                    2                    9  -1.0660413524155032E-012
                    3                    7                    4                    9   1.5519877050174102E-012
                    3                    7                    7                    4   1.6379328449112052E-012
                    3                    7                    9                    4  -1.6255954915500581E-012
                    3                    8                    4                    7   2.2223039380930842E-012
                    3                    8                    4                    9  -2.0280999102340047E-012
                    3                    8                    9                    2  -2.3099083409916510E-012
                    3                    8                    9                    3  -1.3432414902592171E-012
                    3                    8                    9                    4   2.0280999102340047E-012
                    3                    9                    2                    7  -1.4640302858914822E-012
                    3                    9                    4                    9  -3.6149104543081734E-012
                    3                    9                    5                   10  -1.3625732486755027E-012
                    3                    9                    7                    2   1.7589662365535830E-012
                    3                    9                    9                    3   1.6707746297583981E-012
                    3                    9                    9                    4   4.2286556201087677E-012
                    3                    9                   10                    5   1.4477351609198941E-012
                    3                   10                    4                   10  -1.3079051730535696E-012
                    3                   10                    5                    9  -1.1486003120841914E-012
                    3                   10                   10                    3  -1.7453816170132086E-012
                    3                   10                   10                    4   2.9707000748224743E-012
                    4                    3                    3                    3   1.3577252828318513E-012
                    4                    3                    3                    4  -1.5270007480694403E-012
                    4                    5                    5                    4  -2.8550495301260526E-012
                    4                    7                    2                    7  -1.9889298541464484E-012
                    4                    7                    2                    9   1.6863871410421893E-012
                    4                    7                    3                    8  -2.2223039380930842E-012
                    4                    7                    5                   10  -1.2830916884531973E-012
                    4                    7                    7                    2   1.6850409956248313E-012
                    4                    7                    7                    3   1.0883516310400410E-012
                    4                    7                    7                    4  -2.5243140910902184E-012
                    4                    7                    8                    3   2.3099152798855549E-012
                    4                    7                   10                    5   1.2958800699180983E-012
                    4                    8                    2                    7  -1.0349273521503832E-012
                    4                    8                    2                    8  -1.7869126317515693E-012
                    4                    8                    8                    3   1.3431859791079859E-012
                    4                    8                    8                    4  -1.6707746297583981E-012
                    4                    8                    9                    4  -1.0186747279039565E-012
                    4                    9                    2                    7   2.7650937095557993E-012
                    4                    9                    2                    9  -3.2284036555196849E-012
                    4                    9                    3                    7  -1.5519877050174102E-012
                    4                    9                    3                    8   2.0280999102340047E-012
                    4                    9                    3                    9   3.6149104543081734E-012
                    4                    9                    5                   10   2.3364782331114498E-012
                    4                    9                    7                    2  -2.7650937095557993E-012
                    4                    9                    7                    4   3.0700927911020415E-012
                    4                    9                    8                    2   1.6255746748683464E-012
                    4                    9                    8                    3  -2.0280999102340047E-012
                    4                    9                    8                    4  -4.2286417423209599E-012
                    4                    9                    9                    3   1.0186747279039565E-012
                    4                    9                   10                    5  -2.3364782331114498E-012
                    4                   10                    2                   10  -2.1603135946790530E-012
                    4                   10                    3                   10   1.3079051730535696E-012
                    4                   10                    5                    9   1.6565082638919648E-012
                    4                   10                    7                    5   1.1990963777464003E-012
                    4                   10                   10                    3   1.2044809594158323E-012
                    4                   10                   10                    4  -4.5118353497741737E-012
                    5                    3                    3                    5   1.1572964808692632E-012
                    5                    4                    3                    5  -1.8220217001818639E-012
                    5                    4                    4                    5   2.8550495301260526E-012
                    5                    8                    8                    5   1.7453816170132086E-012
                    5                    8                    9                    5  -1.2045156538853519E-012
                    5                    9                    3                   10   1.1486003120841914E-012
                    5                    9                    4                   10  -1.6565082638919648E-012
                    5                    9                    7                    5   1.4329440412019778E-012
                    5                    9                    8                    5  -2.9706653803529548E-012
                    5                    9                    9                    5   4.5118353497741737E-012
                    5                   10                    3                    9   1.3625732486755027E-012
                    5                   10                    4                    7   1.2830916884531973E-012
                    5                   10                    4                    9  -2.3364782331114498E-012
                    5                   10                    8                    4  -1.4477403650903220E-012
                    5                   10                    9                    2  -1.2958800699180983E-012
                    5                   10                    9                    4   2.3364782331114498E-012
                    7                    2                    3                    9  -1.7589662365535830E-012
                    7                    2                    4                    7  -1.6850409956248313E-012
                    7                    2                    4                    9   2.7650937095557993E-012
                    7                    2                    8                    4   1.4640250817210543E-012
                    7                    2                    9                    2   1.9888986291238808E-012
                    7                    2                    9                    3   1.0349342910442871E-012
                    7                    2                    9                    4  -2.7650937095557993E-012
                    7                    3                    4                    7  -1.0883516310400410E-012
                    7                    3                    9                    3   1.7869351831567570E-012
                    7                    4                    3                    7  -1.6379328449112052E-012
                    7                    4                    4                    7   2.5243140910902184E-012
                    7                    4                    4                    9  -3.0700927911020415E-012
                    7                    4                    8                    2   1.0660482913094071E-012
                    7                    4                    9                    2  -1.6863871410421893E-012
                    7                    4                    9                    4   3.2283897777318771E-012
                    7                    5                    4                   10  -1.1990963777464003E-012
                    7                    5                    5                    9  -1.4329440412019778E-012
                    7                    5                    9                    5   2.1602858391034374E-012
                    8                    2                    2                    9   1.6379467226990130E-012
                    8                    2                    4                    9  -1.6255746748683464E-012
                    8                    2                    7                    4  -1.0660482913094071E-012
                    8                    2                    9                    4   1.5519668883356985E-012
                    8                    3                    4                    7  -2.3099152798855549E-012
                    8                    3                    4                    8  -1.3431859791079859E-012
                    8                    3                    4                    9   2.0280999102340047E-012
                    8                    3                    9                    2   2.2222969991991803E-012
                    8                    3                    9                    4  -2.0280999102340047E-012
                    8                    4                    2                    7   1.7589627671066310E-012
                    8                    4                    4                    8   1.6707746297583981E-012
                    8                    4                    4                    9   4.2286417423209599E-012
                    8                    4                    5                   10   1.4477403650903220E-012
                    8                    4                    7                    2  -1.4640250817210543E-012
                    8                    4                    9                    4  -3.6149069848612214E-012
                    8                    4                   10                    5  -1.3625784528459306E-012
                    8                    5                    5                    8  -1.7453816170132086E-012
                    8                    5                    5                    9   2.9706653803529548E-012
                    8                    5                    9                    5  -1.3078704785840500E-012
                    8                    5                   10                    4  -1.1486159245954752E-012
                    8                    8                    8                    9   1.3577241095348822E-012
                    8                    8                    9                    8  -1.3577253370973810E-012
                    8                    9                    8                    8  -1.3577241095348822E-012
                    8                    9                    9                    8   1.5281109710940655E-012
                    8                   10                   10                    8  -1.1572964808692632E-012
                    8                   10                   10                    9   1.8220980280148069E-012
                    9                    2                    2                    7   1.6850063011553118E-012
                    9                    2                    2                    8   1.0883377532522331E-012
                    9                    2                    2                    9  -2.5243140910902184E-012
                    9                    2                    3                    8   2.3099083409916510E-012
                    9                    2                    5                   10   1.2958800699180983E-012
                    9                    2                    7                    2  -1.9888986291238808E-012
                    9                    2                    7                    4   1.6863871410421893E-012
                    9                    2                    8                    3  -2.2222969991991803E-012
                    9                    2                   10                    5  -1.2830916884531973E-012
                    9                    3                    3                    8   1.3432414902592171E-012
                    9                    3                    3                    9  -1.6707746297583981E-012
                    9                    3                    4                    9  -1.0186747279039565E-012
                    9                    3                    7                    2  -1.0349342910442871E-012
                    9                    3                    7                    3  -1.7869351831567570E-012
                    9                    4                    2                    7  -2.7650937095557993E-012
                    9                    4                    2                    9   3.0700997299959454E-012
                    9                    4                    3                    7   1.6255954915500581E-012
                    9                    4                    3                    8  -2.0280999102340047E-012
                    9                    4                    3                    9  -4.2286556201087677E-012
                    9                    4                    4                    8   1.0186747279039565E-012
                    9                    4                    5                   10  -2.3364782331114498E-012
                    9                    4                    7                    2   2.7650937095557993E-012
                    9                    4                    7                    4  -3.2283897777318771E-012
                    9                    4                    8                    2  -1.5519668883356985E-012
                    9                    4                    8                    3   2.0280999102340047E-012
                    9                    4                    8                    4   3.6149069848612214E-012
                    9                    4                   10                    5   2.3364782331114498E-012
                    9                    5                    2                   10   1.1991102555342081E-012
                    9                    5                    5                    8   1.2045156538853519E-012
                    9                    5                    5                    9  -4.5118353497741737E-012
                    9                    5                    7                    5  -2.1602858391034374E-012
                    9                    5                    8                    5   1.3078704785840500E-012
                    9                    5                   10                    4   1.6565915306188117E-012
                    9                    8                    8                    8   1.3577253370973810E-012
                    9                    8                    8                    9  -1.5281109710940655E-012
                    9                   10                   10                    9  -2.8550495301260526E-012
                   10                    3                    3                   10   1.7453816170132086E-012
                   10                    3                    4                   10  -1.2044809594158323E-012
                   10                    4                    2                   10   1.4329717967775935E-012
                   10                    4                    3                   10  -2.9707000748224743E-012
                   10                    4                    4                   10   4.5118353497741737E-012
                   10                    4                    8                    5   1.1486159245954752E-012
                   10                    4                    9                    5  -1.6565915306188117E-012
                   10                    5                    3                    9  -1.4477351609198941E-012
                   10                    5                    4                    7  -1.2958800699180983E-012
                   10                    5                    4                    9   2.3364782331114498E-012
                   10                    5                    8                    4   1.3625784528459306E-012
                   10                    5                    9                    2   1.2830916884531973E-012
                   10                    5                    9                    4  -2.3364782331114498E-012
                   10                    8                    8                   10   1.1572964808692632E-012
                   10                    9                    8                   10  -1.8220980280148069E-012
                   10                    9                    9                   10   2.8550495301260526E-012
 TWO-BODY ANTISYMMETRY CHECK
 TRANSFORMED ~FOCK~ MATRIX
    1    1       -20.5576257741
    1    2        -0.0035707655
    1    3         0.0012808945
    1    4         0.0019255958
    1    6         0.0010327549
    1    7         0.0007682715
    1    8         0.0001812701
    2    1        -0.0035707655
    2    2        -1.3035679886
    2    3        -0.0040520301
    2    4        -0.0017549866
    2    6         0.0012278102
    2    7         0.0000099360
    2    8         0.0014768668
    3    1         0.0012808945
    3    2        -0.0040520301
    3    3        -0.6822740815
    3    4        -0.0032391138
    3    6        -0.0049601129
    3    7         0.0024619841
    3    8        -0.0031094271
    4    1         0.0019255958
    4    2        -0.0017549866
    4    3        -0.0032391138
    4    4        -0.5526339631
    4    6         0.0051496388
    4    7        -0.0037880606
    4    8         0.0039671800
    5    5        -0.5312251306
    6    1         0.0010327549
    6    2         0.0012278102
    6    3        -0.0049601129
    6    4         0.0051496388
    6    6         0.1297549734
    6    7        -0.0015738207
    6    8         0.0052916418
    7    1         0.0007682715
    7    2         0.0000099360
    7    3         0.0024619841
    7    4        -0.0037880606
    7    6        -0.0015738207
    7    7         0.2413726368
    7    8        -0.0014509026
    8    1         0.0001812701
    8    2         0.0014768668
    8    3        -0.0031094271
    8    4         0.0039671800
    8    6         0.0052916418
    8    7        -0.0014509026
    8    8         0.6378038424
 begin_one_electron_integrals
    1    1       -32.8586495200
    1    2         0.5853497739
    1    3        -0.1085027467
    1    4        -0.1231502305
    1    6        -0.1539941160
    1    7        -0.0864449510
    1    8        -0.0552315944
    2    1         0.5853497739
    2    2        -7.7095472568
    2    3         0.0856204067
    2    4         0.3086859966
    2    6         0.6983071366
    2    7         0.4790984998
    2    8         0.1754244766
    3    1        -0.1085027467
    3    2         0.0856204067
    3    3        -6.4524341454
    3    4        -0.3560953583
    3    6        -0.5140490354
    3    7         0.9481279547
    3    8        -0.1591351463
    4    1        -0.1231502305
    4    2         0.3086859966
    4    3        -0.3560953583
    4    4        -6.3015039869
    4    6         1.0738744950
    4    7        -0.2397382128
    4    8         0.3516633399
    5    5        -6.9923486233
    6    1        -0.1539941160
    6    2         0.6983071366
    6    3        -0.5140490354
    6    4         1.0738744950
    6    6        -3.9754559755
    6    7         0.1889997645
    6    8        -1.0228684463
    7    1        -0.0864449510
    7    2         0.4790984998
    7    3         0.9481279547
    7    4        -0.2397382128
    7    6         0.1889997645
    7    7        -3.3101095674
    7    8         0.4189182452
    8    1        -0.0552315944
    8    2         0.1754244766
    8    3        -0.1591351463
    8    4         0.3516633399
    8    6        -1.0228684463
    8    7         0.4189182452
    8    8        -3.0009298552
 end_one_electron_integrals
 begin_two_electron_integrals
    1    1    1    1        4.7399339064
    1    1    1    2       -0.4382717077
    1    1    1    3        0.0811249245
    1    1    1    4        0.0967230774
    1    1    1    6        0.1230110920
    1    1    1    7        0.0714413778
    1    1    1    8        0.0436527618
    1    2    1    1       -0.4382717077
    1    2    1    2        0.0637275693
    1    2    1    3       -0.0097123673
    1    2    1    4       -0.0128779324
    1    2    1    6       -0.0191728867
    1    2    1    7       -0.0123173013
    1    2    1    8       -0.0066654049
    1    3    1    1        0.0811249245
    1    3    1    2       -0.0097123673
    1    3    1    3        0.0190099615
    1    3    1    4        0.0048665596
    1    3    1    6        0.0064368607
    1    3    1    7       -0.0085535755
    1    3    1    8        0.0042974130
    1    4    1    1        0.0967230774
    1    4    1    2       -0.0128779324
    1    4    1    3        0.0048665596
    1    4    1    4        0.0218467057
    1    4    1    6       -0.0074341256
    1    4    1    7        0.0032833644
    1    4    1    8       -0.0059079338
    1    5    1    5        0.0276219172
    1    6    1    1        0.1230110920
    1    6    1    2       -0.0191728867
    1    6    1    3        0.0064368607
    1    6    1    4       -0.0074341256
    1    6    1    6        0.0134829368
    1    6    1    7        0.0000803171
    1    6    1    8        0.0072826500
    1    7    1    1        0.0714413778
    1    7    1    2       -0.0123173013
    1    7    1    3       -0.0085535755
    1    7    1    4        0.0032833644
    1    7    1    6        0.0000803171
    1    7    1    7        0.0082577568
    1    7    1    8       -0.0015615498
    1    8    1    1        0.0436527618
    1    8    1    2       -0.0066654049
    1    8    1    3        0.0042974130
    1    8    1    4       -0.0059079338
    1    8    1    6        0.0072826500
    1    8    1    7       -0.0015615498
    1    8    1    8        0.0043384378
    1    1    2    1       -0.4382717077
    1    1    2    2        1.0574568272
    1    1    2    3       -0.0406113160
    1    1    2    4       -0.0892412094
    1    1    2    6       -0.1444581481
    1    1    2    7       -0.1007060754
    1    1    2    8       -0.0435754225
    1    2    2    1        0.0660404498
    1    2    2    2       -0.0160713607
    1    2    2    3        0.0051107679
    1    2    2    4        0.0048766908
    1    2    2    6        0.0031268009
    1    2    2    7        0.0010675862
    1    2    2    8        0.0012753802
    1    3    2    1       -0.0095054020
    1    3    2    2        0.0099027832
    1    3    2    3        0.0206684864
    1    3    2    4        0.0013521063
    1    3    2    6        0.0018240726
    1    3    2    7       -0.0102503169
    1    3    2    8        0.0017511939
    1    4    2    1       -0.0127936182
    1    4    2    2        0.0078976062
    1    4    2    3        0.0019051718
    1    4    2    4        0.0201810911
    1    4    2    6       -0.0121913575
    1    4    2    7        0.0002115446
    1    4    2    8       -0.0060172414
    1    5    2    5        0.0295587198
    1    6    2    1       -0.0203049636
    1    6    2    2        0.0030499067
    1    6    2    3        0.0032108535
    1    6    2    4       -0.0134730456
    1    6    2    6        0.0071076940
    1    6    2    7       -0.0034733062
    1    6    2    8        0.0038970384
    1    7    2    1       -0.0130827427
    1    7    2    2       -0.0011587387
    1    7    2    3       -0.0124323878
    1    7    2    4        0.0008196702
    1    7    2    6       -0.0032672628
    1    7    2    7        0.0056760983
    1    7    2    8       -0.0020922028
    1    8    2    1       -0.0069456167
    1    8    2    2        0.0012600681
    1    8    2    3        0.0033149954
    1    8    2    4       -0.0079707319
    1    8    2    6        0.0046921489
    1    8    2    7       -0.0025728637
    1    8    2    8        0.0026555746
    1    1    3    1        0.0811249245
    1    1    3    2       -0.0406113160
    1    1    3    3        0.8720571528
    1    1    3    4        0.0818791430
    1    1    3    6        0.0958032025
    1    1    3    7       -0.1785650785
    1    1    3    8        0.0469426368
    1    2    3    1       -0.0095054020
    1    2    3    2        0.0053202220
    1    2    3    3       -0.0087354648
    1    2    3    4       -0.0024749902
    1    2    3    6       -0.0017870556
    1    2    3    7        0.0012777675
    1    2    3    8       -0.0013657217
    1    3    3    1        0.0217916552
    1    3    3    2        0.0216572478
    1    3    3    3       -0.0021107830
    1    3    3    4       -0.0024497542
    1    3    3    6       -0.0038458379
    1    3    3    7       -0.0004494999
    1    3    3    8       -0.0012141354
    1    4    3    1        0.0051535267
    1    4    3    2        0.0019625257
    1    4    3    3        0.0034396147
    1    4    3    4       -0.0048932753
    1    4    3    6        0.0012402809
    1    4    3    7       -0.0005200987
    1    4    3    8       -0.0010554414
    1    5    3    5       -0.0054027880
    1    6    3    1        0.0069724244
    1    6    3    2        0.0032207886
    1    6    3    3       -0.0000846511
    1    6    3    4        0.0029779802
    1    6    3    6       -0.0014462301
    1    6    3    7        0.0000464816
    1    6    3    8        0.0005827971
    1    7    3    1       -0.0096724955
    1    7    3    2       -0.0127350226
    1    7    3    3        0.0036919631
    1    7    3    4        0.0014310709
    1    7    3    6        0.0028989654
    1    7    3    7        0.0002378464
    1    7    3    8        0.0009147666
    1    8    3    1        0.0046168985
    1    8    3    2        0.0033717320
    1    8    3    3       -0.0007385248
    1    8    3    4        0.0013173730
    1    8    3    6       -0.0010792591
    1    8    3    7       -0.0000295570
    1    8    3    8        0.0002255610
    1    1    4    1        0.0967230774
    1    1    4    2       -0.0892412094
    1    1    4    3        0.0818791430
    1    1    4    4        0.8812465243
    1    1    4    6       -0.1981964600
    1    1    4    7        0.0436447604
    1    1    4    8       -0.0900062591
    1    2    4    1       -0.0127936182
    1    2    4    2        0.0050446621
    1    2    4    3       -0.0024551459
    1    2    4    4       -0.0100152760
    1    2    4    6        0.0009171791
    1    2    4    7       -0.0006403890
    1    2    4    8        0.0013114181
    1    3    4    1        0.0051535267
    1    3    4    2        0.0014383596
    1    3    4    3       -0.0021691468
    1    3    4    4        0.0000161453
    1    3    4    6       -0.0023355747
    1    3    4    7        0.0025099765
    1    3    4    8       -0.0032062109
    1    4    4    1        0.0243087117
    1    4    4    2        0.0210159621
    1    4    4    3       -0.0050825293
    1    4    4    4       -0.0044234689
    1    4    4    6       -0.0018663900
    1    4    4    7       -0.0027485338
    1    4    4    8        0.0006653011
    1    5    4    5       -0.0060995657
    1    6    4    1       -0.0087165197
    1    6    4    2       -0.0137236544
    1    6    4    3        0.0030215451
    1    6    4    4        0.0058700524
    1    6    4    6        0.0006101630
    1    6    4    7        0.0027369111
    1    6    4    8       -0.0015859341
    1    7    4    1        0.0035403005
    1    7    4    2        0.0008021014
    1    7    4    3        0.0013944011
    1    7    4    4        0.0013010069
    1    7    4    6        0.0010939188
    1    7    4    7       -0.0016632453
    1    7    4    8        0.0016125210
    1    8    4    1       -0.0065593724
    1    8    4    2       -0.0080916035
    1    8    4    3        0.0013444106
    1    8    4    4        0.0031471585
    1    8    4    6        0.0001002901
    1    8    4    7        0.0018701964
    1    8    4    8       -0.0010786197
    1    1    5    5        1.0410442917
    1    2    5    5       -0.0121511854
    1    3    5    5        0.0026908789
    1    4    5    5        0.0030621002
    1    5    5    1        0.0303789357
    1    5    5    2        0.0301004084
    1    5    5    3       -0.0055781234
    1    5    5    4       -0.0064045123
    1    5    5    6       -0.0071686592
    1    5    5    7       -0.0035318153
    1    5    5    8       -0.0039041423
    1    6    5    5        0.0022955382
    1    7    5    5        0.0012205596
    1    8    5    5        0.0006225513
    1    1    6    1        0.1230110920
    1    1    6    2       -0.1444581481
    1    1    6    3        0.0958032025
    1    1    6    4       -0.1981964600
    1    1    6    6        0.5156064329
    1    1    6    7       -0.0375530033
    1    1    6    8        0.1612117680
    1    2    6    1       -0.0203049636
    1    2    6    2        0.0021321167
    1    2    6    3       -0.0013696589
    1    2    6    4        0.0001448363
    1    2    6    6       -0.0039028127
    1    2    6    7        0.0008683183
    1    2    6    8       -0.0022349046
    1    3    6    1        0.0069724244
    1    3    6    2        0.0019498920
    1    3    6    3       -0.0037286525
    1    3    6    4       -0.0021224732
    1    3    6    6       -0.0011172832
    1    3    6    7        0.0030179325
    1    3    6    8        0.0001116265
    1    4    6    1       -0.0087165197
    1    4    6    2       -0.0123123752
    1    4    6    3        0.0013292893
    1    4    6    4       -0.0015270773
    1    4    6    6        0.0079639484
    1    4    6    7        0.0012480888
    1    4    6    8        0.0030613209
    1    5    6    5       -0.0066932235
    1    6    6    1        0.0131423562
    1    6    6    2        0.0063189939
    1    6    6    3       -0.0011705276
    1    6    6    4        0.0000433062
    1    6    6    6       -0.0034734761
    1    6    6    7       -0.0001534863
    1    6    6    8       -0.0009585125
    1    7    6    1        0.0001061194
    1    7    6    2       -0.0032918062
    1    7    6    3        0.0026439011
    1    7    6    4        0.0007893901
    1    7    6    6        0.0022891327
    1    7    6    7       -0.0014893983
    1    7    6    8        0.0007525157
    1    8    6    1        0.0070612664
    1    8    6    2        0.0043679988
    1    8    6    3       -0.0009486624
    1    8    6    4       -0.0000967548
    1    8    6    6       -0.0024143515
    1    8    6    7        0.0000058864
    1    8    6    8       -0.0006871775
    1    1    7    1        0.0714413778
    1    1    7    2       -0.1007060754
    1    1    7    3       -0.1785650785
    1    1    7    4        0.0436447604
    1    1    7    6       -0.0375530033
    1    1    7    7        0.4239404117
    1    1    7    8       -0.0632683658
    1    2    7    1       -0.0130827427
    1    2    7    2        0.0004088320
    1    2    7    3        0.0003821112
    1    2    7    4       -0.0005077099
    1    2    7    6        0.0008703549
    1    2    7    7       -0.0020134252
    1    2    7    8        0.0008613901
    1    3    7    1       -0.0096724955
    1    3    7    2       -0.0106464805
    1    3    7    3       -0.0003150267
    1    3    7    4        0.0025210129
    1    3    7    6        0.0030277360
    1    3    7    7        0.0051381834
    1    3    7    8        0.0004648746
    1    4    7    1        0.0035403005
    1    4    7    2        0.0002364734
    1    4    7    3       -0.0004392013
    1    4    7    4       -0.0024780116
    1    4    7    6        0.0012425875
    1    4    7    7        0.0007248248
    1    4    7    8        0.0010496621
    1    5    7    5       -0.0032712158
    1    6    7    1        0.0001061194
    1    6    7    2       -0.0034771310
    1    6    7    3       -0.0003726793
    1    6    7    4        0.0025482806
    1    6    7    6       -0.0001461402
    1    6    7    7        0.0016355733
    1    6    7    8       -0.0007279314
    1    7    7    1        0.0079266412
    1    7    7    2        0.0051689389
    1    7    7    3       -0.0001395676
    1    7    7    4       -0.0015670671
    1    7    7    6       -0.0014995948
    1    7    7    7       -0.0020955231
    1    7    7    8       -0.0002483153
    1    8    7    1       -0.0014999401
    1    8    7    2       -0.0025272728
    1    8    7    3       -0.0001544394
    1    8    7    4        0.0017771999
    1    8    7    6        0.0000115051
    1    8    7    7        0.0011345082
    1    8    7    8       -0.0004379107
    1    1    8    1        0.0436527618
    1    1    8    2       -0.0435754225
    1    1    8    3        0.0469426368
    1    1    8    4       -0.0900062591
    1    1    8    6        0.1612117680
    1    1    8    7       -0.0632683658
    1    1    8    8        0.3945532562
    1    2    8    1       -0.0069456167
    1    2    8    2        0.0010489188
    1    2    8    3       -0.0011478781
    1    2    8    4        0.0010251900
    1    2    8    6       -0.0022322987
    1    2    8    7        0.0008515053
    1    2    8    8       -0.0014530671
    1    3    8    1        0.0046168985
    1    3    8    2        0.0018429066
    1    3    8    3       -0.0011117494
    1    3    8    4       -0.0029999727
    1    3    8    6        0.0000769612
    1    3    8    7        0.0004553689
    1    3    8    8       -0.0016877318
    1    4    8    1       -0.0065593724
    1    4    8    2       -0.0060175755
    1    4    8    3       -0.0009009795
    1    4    8    4        0.0007364685
    1    4    8    6        0.0030842803
    1    4    8    7        0.0010081136
    1    4    8    8        0.0041911430
    1    5    8    5       -0.0035908464
    1    6    8    1        0.0070612664
    1    6    8    2        0.0035218817
    1    6    8    3        0.0006981884
    1    6    8    4       -0.0017232142
    1    6    8    6       -0.0009762245
    1    6    8    7       -0.0007172807
    1    6    8    8       -0.0022745158
    1    7    8    1       -0.0014999401
    1    7    8    2       -0.0020216888
    1    7    8    3        0.0008316405
    1    7    8    4        0.0014715152
    1    7    8    6        0.0007653195
    1    7    8    7       -0.0002489767
    1    7    8    8        0.0015696063
    1    8    8    1        0.0042024860
    1    8    8    2        0.0024740178
    1    8    8    3        0.0002965144
    1    8    8    4       -0.0011462388
    1    8    8    6       -0.0006957525
    1    8    8    7       -0.0004335941
    1    8    8    8       -0.0014770078
    2    1    1    1       -0.4382717077
    2    1    1    2        0.0660404498
    2    1    1    3       -0.0095054020
    2    1    1    4       -0.0127936182
    2    1    1    6       -0.0203049636
    2    1    1    7       -0.0130827427
    2    1    1    8       -0.0069456167
    2    2    1    1        1.0574568272
    2    2    1    2       -0.0160713607
    2    2    1    3        0.0099027832
    2    2    1    4        0.0078976062
    2    2    1    6        0.0030499067
    2    2    1    7       -0.0011587387
    2    2    1    8        0.0012600681
    2    3    1    1       -0.0406113160
    2    3    1    2        0.0051107679
    2    3    1    3        0.0206684864
    2    3    1    4        0.0019051718
    2    3    1    6        0.0032108535
    2    3    1    7       -0.0124323878
    2    3    1    8        0.0033149954
    2    4    1    1       -0.0892412094
    2    4    1    2        0.0048766908
    2    4    1    3        0.0013521063
    2    4    1    4        0.0201810911
    2    4    1    6       -0.0134730456
    2    4    1    7        0.0008196702
    2    4    1    8       -0.0079707319
    2    5    1    5        0.0295587198
    2    6    1    1       -0.1444581481
    2    6    1    2        0.0031268009
    2    6    1    3        0.0018240726
    2    6    1    4       -0.0121913575
    2    6    1    6        0.0071076940
    2    6    1    7       -0.0032672628
    2    6    1    8        0.0046921489
    2    7    1    1       -0.1007060754
    2    7    1    2        0.0010675862
    2    7    1    3       -0.0102503169
    2    7    1    4        0.0002115446
    2    7    1    6       -0.0034733062
    2    7    1    7        0.0056760983
    2    7    1    8       -0.0025728637
    2    8    1    1       -0.0435754225
    2    8    1    2        0.0012753802
    2    8    1    3        0.0017511939
    2    8    1    4       -0.0060172414
    2    8    1    6        0.0038970384
    2    8    1    7       -0.0020922028
    2    8    1    8        0.0026555746
    2    1    2    1        0.0637275693
    2    1    2    2       -0.0160713607
    2    1    2    3        0.0053202220
    2    1    2    4        0.0050446621
    2    1    2    6        0.0021321167
    2    1    2    7        0.0004088320
    2    1    2    8        0.0010489188
    2    2    2    1       -0.0160713607
    2    2    2    2        0.7451820697
    2    2    2    3        0.0288046495
    2    2    2    4       -0.0179017656
    2    2    2    6       -0.0760752585
    2    2    2    7       -0.0619115149
    2    2    2    8       -0.0172268072
    2    3    2    1        0.0053202220
    2    3    2    2        0.0288046495
    2    3    2    3        0.1297903967
    2    3    2    4        0.0090530964
    2    3    2    6        0.0178277492
    2    3    2    7       -0.0361616461
    2    3    2    8        0.0054816444
    2    4    2    1        0.0050446621
    2    4    2    2       -0.0179017656
    2    4    2    3        0.0090530964
    2    4    2    4        0.1071590063
    2    4    2    6       -0.0380912148
    2    4    2    7        0.0113141242
    2    4    2    8       -0.0148654191
    2    5    2    5        0.1251316913
    2    6    2    1        0.0021321167
    2    6    2    2       -0.0760752585
    2    6    2    3        0.0178277492
    2    6    2    4       -0.0380912148
    2    6    2    6        0.0497859599
    2    6    2    7        0.0014551456
    2    6    2    8        0.0226217369
    2    7    2    1        0.0004088320
    2    7    2    2       -0.0619115149
    2    7    2    3       -0.0361616461
    2    7    2    4        0.0113141242
    2    7    2    6        0.0014551456
    2    7    2    7        0.0343087300
    2    7    2    8       -0.0048074426
    2    8    2    1        0.0010489188
    2    8    2    2       -0.0172268072
    2    8    2    3        0.0054816444
    2    8    2    4       -0.0148654191
    2    8    2    6        0.0226217369
    2    8    2    7       -0.0048074426
    2    8    2    8        0.0175739530
    2    1    3    1       -0.0097123673
    2    1    3    2        0.0051107679
    2    1    3    3       -0.0087354648
    2    1    3    4       -0.0024551459
    2    1    3    6       -0.0013696589
    2    1    3    7        0.0003821112
    2    1    3    8       -0.0011478781
    2    2    3    1        0.0099027832
    2    2    3    2        0.0288046495
    2    2    3    3        0.6512549905
    2    2    3    4        0.0380030421
    2    2    3    6        0.0556513575
    2    2    3    7       -0.1021711228
    2    2    3    8        0.0139782629
    2    3    3    1        0.0216572478
    2    3    3    2        0.1349912222
    2    3    3    3       -0.0044508440
    2    3    3    4        0.0054007374
    2    3    3    6       -0.0034046978
    2    3    3    7        0.0136003079
    2    3    3    8        0.0051447487
    2    4    3    1        0.0014383596
    2    4    3    2        0.0099235817
    2    4    3    3       -0.0111502709
    2    4    3    4       -0.0343640141
    2    4    3    6       -0.0100558799
    2    4    3    7        0.0162459833
    2    4    3    8       -0.0249886927
    2    5    3    5       -0.0184708679
    2    6    3    1        0.0019498920
    2    6    3    2        0.0170531575
    2    6    3    3       -0.0591215305
    2    6    3    4       -0.0019813979
    2    6    3    6       -0.0151739835
    2    6    3    7        0.0227009315
    2    6    3    8       -0.0030981977
    2    7    3    1       -0.0106464805
    2    7    3    2       -0.0355880939
    2    7    3    3       -0.0288614769
    2    7    3    4        0.0005933896
    2    7    3    6        0.0062187122
    2    7    3    7        0.0206664768
    2    7    3    8        0.0002433389
    2    8    3    1        0.0018429066
    2    8    3    2        0.0054501136
    2    8    3    3       -0.0109199749
    2    8    3    4       -0.0111195556
    2    8    3    6       -0.0076322046
    2    8    3    7        0.0059874622
    2    8    3    8       -0.0098402198
    2    1    4    1       -0.0128779324
    2    1    4    2        0.0048766908
    2    1    4    3       -0.0024749902
    2    1    4    4       -0.0100152760
    2    1    4    6        0.0001448363
    2    1    4    7       -0.0005077099
    2    1    4    8        0.0010251900
    2    2    4    1        0.0078976062
    2    2    4    2       -0.0179017656
    2    2    4    3        0.0380030421
    2    2    4    4        0.6293145535
    2    2    4    6       -0.1225165487
    2    2    4    7        0.0289463245
    2    2    4    8       -0.0395863963
    2    3    4    1        0.0019625257
    2    3    4    2        0.0099235817
    2    3    4    3        0.0063943809
    2    3    4    4       -0.0320363254
    2    3    4    6       -0.0128702720
    2    3    4    7        0.0154342657
    2    3    4    8       -0.0278926036
    2    4    4    1        0.0210159621
    2    4    4    2        0.1112305202
    2    4    4    3       -0.0344043375
    2    4    4    4       -0.0388073315
    2    4    4    6        0.0223900017
    2    4    4    7       -0.0149846423
    2    4    4    8        0.0270851946
    2    5    4    5       -0.0205556369
    2    6    4    1       -0.0123123752
    2    6    4    2       -0.0371593998
    2    6    4    3       -0.0021006801
    2    6    4    4       -0.0434870201
    2    6    4    6        0.0268351113
    2    6    4    7        0.0057801612
    2    6    4    8        0.0081324132
    2    7    4    1        0.0002364734
    2    7    4    2        0.0112604047
    2    7    4    3        0.0003386414
    2    7    4    4       -0.0404609014
    2    7    4    6        0.0182598797
    2    7    4    7       -0.0072999384
    2    7    4    8        0.0116267368
    2    8    4    1       -0.0060175755
    2    8    4    2       -0.0146753244
    2    8    4    3       -0.0111823217
    2    8    4    4        0.0026548312
    2    8    4    6        0.0123924926
    2    8    4    7        0.0034922643
    2    8    4    8        0.0153039219
    2    1    5    5       -0.0121511854
    2    2    5    5        0.7131996191
    2    3    5    5       -0.0154033867
    2    4    5    5       -0.0408425275
    2    5    5    1        0.0301004084
    2    5    5    2        0.1293925896
    2    5    5    3       -0.0181660744
    2    5    5    4       -0.0213432489
    2    5    5    6       -0.0239618710
    2    5    5    7       -0.0105198591
    2    5    5    8       -0.0168130373
    2    6    5    5       -0.0760761006
    2    7    5    5       -0.0510535389
    2    8    5    5       -0.0222841905
    2    1    6    1       -0.0191728867
    2    1    6    2        0.0031268009
    2    1    6    3       -0.0017870556
    2    1    6    4        0.0009171791
    2    1    6    6       -0.0039028127
    2    1    6    7        0.0008703549
    2    1    6    8       -0.0022322987
    2    2    6    1        0.0030499067
    2    2    6    2       -0.0760752585
    2    2    6    3        0.0556513575
    2    2    6    4       -0.1225165487
    2    2    6    6        0.4149437771
    2    2    6    7       -0.0107523268
    2    2    6    8        0.1056614654
    2    3    6    1        0.0032207886
    2    3    6    2        0.0170531575
    2    3    6    3       -0.0026521131
    2    3    6    4       -0.0130177727
    2    3    6    6       -0.0269652634
    2    3    6    7        0.0311776021
    2    3    6    8       -0.0082737641
    2    4    6    1       -0.0137236544
    2    4    6    2       -0.0371593998
    2    4    6    3       -0.0101533319
    2    4    6    4        0.0230545898
    2    4    6    6        0.0327328617
    2    4    6    7        0.0018807561
    2    4    6    8        0.0104524635
    2    5    6    5       -0.0224415640
    2    6    6    1        0.0063189939
    2    6    6    2        0.0446522359
    2    6    6    3       -0.0140394907
    2    6    6    4        0.0252469831
    2    6    6    6       -0.0328649585
    2    6    6    7        0.0013746148
    2    6    6    8       -0.0127025913
    2    7    6    1       -0.0034771310
    2    7    6    2        0.0006403422
    2    7    6    3        0.0034235986
    2    7    6    4        0.0166675778
    2    7    6    6       -0.0152710955
    2    7    6    7        0.0037482289
    2    7    6    8       -0.0094345634
    2    8    6    1        0.0035218817
    2    8    6    2        0.0204098797
    2    8    6    3       -0.0076738060
    2    8    6    4        0.0128217331
    2    8    6    6        0.0002064533
    2    8    6    7       -0.0048521053
[...]
    7    7    8    3        0.0050417558
    7    7    8    4       -0.0124866926
    7    7    8    6        0.0388291867
    7    7    8    7       -0.0108901016
    7    7    8    8        0.2461968402
    7    8    8    1       -0.0004335941
    7    8    8    2       -0.0035866608
    7    8    8    3        0.0071939957
    7    8    8    4       -0.0095642427
    7    8    8    6       -0.0208106222
    7    8    8    7        0.0111654088
    7    8    8    8       -0.0386795268
    8    1    1    1        0.0436527618
    8    1    1    2       -0.0069456167
    8    1    1    3        0.0046168985
    8    1    1    4       -0.0065593724
    8    1    1    6        0.0070612664
    8    1    1    7       -0.0014999401
    8    1    1    8        0.0042024860
    8    2    1    1       -0.0435754225
    8    2    1    2        0.0010489188
    8    2    1    3        0.0018429066
    8    2    1    4       -0.0060175755
    8    2    1    6        0.0035218817
    8    2    1    7       -0.0020216888
    8    2    1    8        0.0024740178
    8    3    1    1        0.0469426368
    8    3    1    2       -0.0011478781
    8    3    1    3       -0.0011117494
    8    3    1    4       -0.0009009795
    8    3    1    6        0.0006981884
    8    3    1    7        0.0008316405
    8    3    1    8        0.0002965144
    8    4    1    1       -0.0900062591
    8    4    1    2        0.0010251900
    8    4    1    3       -0.0029999727
    8    4    1    4        0.0007364685
    8    4    1    6       -0.0017232142
    8    4    1    7        0.0014715152
    8    4    1    8       -0.0011462388
    8    5    1    5       -0.0035908464
    8    6    1    1        0.1612117680
    8    6    1    2       -0.0022322987
    8    6    1    3        0.0000769612
    8    6    1    4        0.0030842803
    8    6    1    6       -0.0009762245
    8    6    1    7        0.0007653195
    8    6    1    8       -0.0006957525
    8    7    1    1       -0.0632683658
    8    7    1    2        0.0008515053
    8    7    1    3        0.0004553689
    8    7    1    4        0.0010081136
    8    7    1    6       -0.0007172807
    8    7    1    7       -0.0002489767
    8    7    1    8       -0.0004335941
    8    8    1    1        0.3945532562
    8    8    1    2       -0.0014530671
    8    8    1    3       -0.0016877318
    8    8    1    4        0.0041911430
    8    8    1    6       -0.0022745158
    8    8    1    7        0.0015696063
    8    8    1    8       -0.0014770078
    8    1    2    1       -0.0066654049
    8    1    2    2        0.0012600681
    8    1    2    3        0.0033717320
    8    1    2    4       -0.0080916035
    8    1    2    6        0.0043679988
    8    1    2    7       -0.0025272728
    8    1    2    8        0.0024740178
    8    2    2    1        0.0012753802
    8    2    2    2       -0.0172268072
    8    2    2    3        0.0054501136
    8    2    2    4       -0.0146753244
    8    2    2    6        0.0204098797
    8    2    2    7       -0.0040538130
    8    2    2    8        0.0159681595
    8    3    2    1       -0.0013657217
    8    3    2    2        0.0139782629
    8    3    2    3        0.0056439181
    8    3    2    4       -0.0245592028
    8    3    2    6       -0.0032174938
    8    3    2    7       -0.0004583862
    8    3    2    8       -0.0101553385
    8    4    2    1        0.0013114181
    8    4    2    2       -0.0395863963
    8    4    2    3       -0.0272485736
    8    4    2    4        0.0269724830
    8    4    2    6        0.0082391285
    8    4    2    7        0.0105720272
    8    4    2    8        0.0157060541
    8    5    2    5       -0.0158677568
    8    6    2    1       -0.0022349046
    8    6    2    2        0.1056614654
    8    6    2    3       -0.0084373000
    8    6    2    4        0.0106306430
    8    6    2    6       -0.0126847017
    8    6    2    7       -0.0093172142
    8    6    2    8        0.0085764034
    8    7    2    1        0.0008613901
    8    7    2    2       -0.0410327753
    8    7    2    3        0.0074037386
    8    7    2    4        0.0034986775
    8    7    2    6        0.0018673533
    8    7    2    7        0.0038870496
    8    7    2    8       -0.0035866608
    8    8    2    1       -0.0014530671
    8    8    2    2        0.3591652980
    8    8    2    3       -0.0467488827
    8    8    2    4        0.0517335941
    8    8    2    6       -0.0108991575
    8    8    2    7       -0.0110218820
    8    8    2    8        0.0274528157
    8    1    3    1        0.0042974130
    8    1    3    2        0.0033149954
    8    1    3    3       -0.0007385248
    8    1    3    4        0.0013444106
    8    1    3    6       -0.0009486624
    8    1    3    7       -0.0001544394
    8    1    3    8        0.0002965144
    8    2    3    1        0.0017511939
    8    2    3    2        0.0054816444
    8    2    3    3       -0.0109199749
    8    2    3    4       -0.0111823217
    8    2    3    6       -0.0076738060
    8    2    3    7        0.0063343871
    8    2    3    8       -0.0101553385
    8    3    3    1       -0.0012141354
    8    3    3    2        0.0051447487
    8    3    3    3        0.0063902100
    8    3    3    4        0.0194001261
    8    3    3    6        0.0218279682
    8    3    3    7       -0.0103166863
    8    3    3    8        0.0321448423
    8    4    3    1       -0.0032062109
    8    4    3    2       -0.0278926036
    8    4    3    3       -0.0085801243
    8    4    3    4       -0.0303501453
    8    4    3    6       -0.0238379690
    8    4    3    7        0.0120073458
    8    4    3    8       -0.0381825925
    8    5    3    5        0.0060324929
    8    6    3    1        0.0001116265
    8    6    3    2       -0.0082737641
    8    6    3    3        0.0972591420
    8    6    3    4       -0.0127235295
    8    6    3    6        0.0015723384
    8    6    3    7       -0.0139345484
    8    6    3    8       -0.0240621661
    8    7    3    1        0.0004648746
    8    7    3    2        0.0074083340
    8    7    3    3       -0.0386442455
    8    7    3    4        0.0032766206
    8    7    3    6       -0.0011491207
    8    7    3    7        0.0091628577
    8    7    3    8        0.0071939957
    8    8    3    1       -0.0016877318
    8    8    3    2       -0.0467488827
    8    8    3    3        0.3740785742
    8    8    3    4       -0.0589032888
    8    8    3    6       -0.0384896791
    8    8    3    7       -0.0152223814
    8    8    3    8       -0.0774672183
    8    1    4    1       -0.0059079338
    8    1    4    2       -0.0079707319
    8    1    4    3        0.0013173730
    8    1    4    4        0.0031471585
    8    1    4    6       -0.0000967548
    8    1    4    7        0.0017771999
    8    1    4    8       -0.0011462388
    8    2    4    1       -0.0060172414
    8    2    4    2       -0.0148654191
    8    2    4    3       -0.0111195556
    8    2    4    4        0.0026548312
    8    2    4    6        0.0128217331
    8    2    4    7        0.0019164288
    8    2    4    8        0.0157060541
    8    3    4    1       -0.0010554414
    8    3    4    2       -0.0249886927
    8    3    4    3        0.0199780232
    8    3    4    4       -0.0117467979
    8    3    4    6       -0.0266330795
    8    3    4    7        0.0086666336
    8    3    4    8       -0.0381825925
    8    4    4    1        0.0006653011
    8    4    4    2        0.0270851946
    8    4    4    3       -0.0302243179
    8    4    4    4       -0.0038497907
    8    4    4    6        0.0480010752
    8    4    4    7       -0.0164808336
    8    4    4    8        0.0624413082
    8    5    4    5       -0.0034263120
    8    6    4    1        0.0030613209
    8    6    4    2        0.0104524635
    8    6    4    3       -0.0125783425
    8    6    4    4        0.1064122749
    8    6    4    6       -0.0083766018
    8    6    4    7       -0.0003523234
    8    6    4    8        0.0315046800
    8    7    4    1        0.0010496621
    8    7    4    2        0.0036094149
    8    7    4    3        0.0031513852
    8    7    4    4       -0.0444933902
    8    7    4    6        0.0024344565
    8    7    4    7       -0.0024687584
    8    7    4    8       -0.0095642427
    8    8    4    1        0.0041911430
    8    8    4    2        0.0517335941
    8    8    4    3       -0.0589032888
    8    8    4    4        0.4078884749
    8    8    4    6        0.0529574868
    8    8    4    7       -0.0202081976
    8    8    4    8        0.1062727762
    8    1    5    5        0.0006225513
    8    2    5    5       -0.0222841905
    8    3    5    5        0.0188195385
    8    4    5    5       -0.0366194634
    8    5    5    1       -0.0039041423
    8    5    5    2       -0.0168130373
    8    5    5    3        0.0065090773
    8    5    5    4       -0.0039035461
    8    5    5    6        0.0077129810
    8    5    5    7       -0.0019999425
    8    5    5    8        0.0062298294
    8    6    5    5        0.0960419790
    8    7    5    5       -0.0399214047
    8    8    5    5        0.3441745582
    8    1    6    1        0.0072826500
    8    1    6    2        0.0046921489
    8    1    6    3       -0.0010792591
    8    1    6    4        0.0001002901
    8    1    6    6       -0.0024143515
    8    1    6    7        0.0000115051
    8    1    6    8       -0.0006957525
    8    2    6    1        0.0038970384
    8    2    6    2        0.0226217369
    8    2    6    3       -0.0076322046
    8    2    6    4        0.0123924926
    8    2    6    6        0.0002064533
    8    2    6    7       -0.0046818178
    8    2    6    8        0.0085764034
    8    3    6    1        0.0005827971
    8    3    6    2       -0.0030981977
    8    3    6    3        0.0219992410
    8    3    6    4       -0.0255050664
    8    3    6    6       -0.0251158126
    8    3    6    7        0.0092580285
    8    3    6    8       -0.0240621661
    8    4    6    1       -0.0015859341
    8    4    6    2        0.0081324132
    8    4    6    3       -0.0230051605
    8    4    6    4        0.0480601829
    8    4    6    6        0.0280269572
    8    4    6    7       -0.0165346427
    8    4    6    8        0.0315046800
    8    5    6    5        0.0091627886
    8    6    6    1       -0.0009585125
    8    6    6    2       -0.0127025913
    8    6    6    3        0.0019290190
    8    6    6    4       -0.0087928792
    8    6    6    6        0.0652812042
    8    6    6    7       -0.0081937541
    8    6    6    8        0.0639741499
    8    7    6    1       -0.0007279314
    8    7    6    2        0.0019472135
    8    7    6    3       -0.0010797652
    8    7    6    4        0.0026835653
    8    7    6    6       -0.0238539407
    8    7    6    7        0.0051862807
    8    7    6    8       -0.0208106222
    8    8    6    1       -0.0022745158
    8    8    6    2       -0.0108991575
    8    8    6    3       -0.0384896791
    8    8    6    4        0.0529574868
    8    8    6    6        0.4029917518
    8    8    6    7       -0.0614246093
    8    8    6    8        0.1064561965
    8    1    7    1       -0.0015615498
    8    1    7    2       -0.0025728637
    8    1    7    3       -0.0000295570
    8    1    7    4        0.0018701964
    8    1    7    6        0.0000058864
    8    1    7    7        0.0011345082
    8    1    7    8       -0.0004335941
    8    2    7    1       -0.0020922028
    8    2    7    2       -0.0048074426
    8    2    7    3        0.0059874622
    8    2    7    4        0.0034922643
    8    2    7    6       -0.0048521053
    8    2    7    7        0.0002339382
    8    2    7    8       -0.0035866608
    8    3    7    1        0.0009147666
    8    3    7    2        0.0002433389
    8    3    7    3       -0.0099102290
    8    3    7    4        0.0085933053
    8    3    7    6        0.0091646564
    8    3    7    7        0.0050417558
    8    3    7    8        0.0071939957
    8    4    7    1        0.0016125210
    8    4    7    2        0.0116267368
    8    4    7    3        0.0110132322
    8    4    7    4       -0.0168478811
    8    4    7    6       -0.0164881913
    8    4    7    7       -0.0124866926
    8    4    7    8       -0.0095642427
    8    5    7    5       -0.0020911058
    8    6    7    1        0.0007525157
    8    6    7    2       -0.0094345634
    8    6    7    3       -0.0139311912
    8    6    7    4       -0.0000287177
    8    6    7    6       -0.0082097117
    8    6    7    7        0.0388291867
    8    6    7    8       -0.0208106222
    8    7    7    1       -0.0002483153
    8    7    7    2        0.0038407776
    8    7    7    3        0.0091145509
    8    7    7    4       -0.0024601924
    8    7    7    6        0.0051846279
    8    7    7    7       -0.0108901016
    8    7    7    8        0.0111654088
    8    8    7    1        0.0015696063
    8    8    7    2       -0.0110218820
    8    8    7    3       -0.0152223814
    8    8    7    4       -0.0202081976
    8    8    7    6       -0.0614246093
    8    8    7    7        0.2461968402
    8    8    7    8       -0.0386795268
    8    1    8    1        0.0043384378
    8    1    8    2        0.0026555746
    8    1    8    3        0.0002255610
    8    1    8    4       -0.0010786197
    8    1    8    6       -0.0006871775
    8    1    8    7       -0.0004379107
    8    1    8    8       -0.0014770078
    8    2    8    1        0.0026555746
    8    2    8    2        0.0175739530
    8    2    8    3       -0.0098402198
    8    2    8    4        0.0153039219
    8    2    8    6        0.0084120612
    8    2    8    7       -0.0034682367
    8    2    8    8        0.0274528157
    8    3    8    1        0.0002255610
    8    3    8    2       -0.0098402198
    8    3    8    3        0.0323113593
    8    3    8    4       -0.0375151615
    8    3    8    6       -0.0236040276
    8    3    8    7        0.0070820328
    8    3    8    8       -0.0774672183
    8    4    8    1       -0.0010786197
    8    4    8    2        0.0153039219
    8    4    8    3       -0.0375151615
    8    4    8    4        0.0625858434
    8    4    8    6        0.0310590311
    8    4    8    7       -0.0094810275
    8    4    8    8        0.1062727762
    8    5    8    5        0.0066881124
    8    6    8    1       -0.0006871775
    8    6    8    2        0.0084120612
    8    6    8    3       -0.0236040276
    8    6    8    4        0.0310590311
    8    6    8    6        0.0638770469
    8    6    8    7       -0.0207527246
    8    6    8    8        0.1064561965
    8    7    8    1       -0.0004379107
    8    7    8    2       -0.0034682367
    8    7    8    3        0.0070820328
    8    7    8    4       -0.0094810275
    8    7    8    6       -0.0207527246
    8    7    8    7        0.0111406197
    8    7    8    8       -0.0386795268
    8    8    8    1       -0.0014770078
    8    8    8    2        0.0274528157
    8    8    8    3       -0.0774672183
    8    8    8    4        0.1062727762
    8    8    8    6        0.1064561965
    8    8    8    7       -0.0386795268
    8    8    8    8        0.5467184401
 end_two_electron_integrals

 Parallel integral file used       1 records with       0 large values


 Task  times  cpu:        6.0s     wall:        6.0s


                                NWChem Input Module
                                -------------------


 Summary of allocated global arrays
-----------------------------------
  No active global arrays


MA_summarize_allocated_blocks: starting scan ...
MA_summarize_allocated_blocks: scan completed: 0 heap blocks, 0 stack blocks
MA usage statistics:

	allocation statistics:
					      heap	     stack
					      ----	     -----
	current number of blocks	         0	         0
	maximum number of blocks	        17	        42
	current total bytes		         0	         0
	maximum total bytes		   2110096	 141357496
	maximum total K-bytes		      2111	    141358
	maximum total M-bytes		         3	       142


                                     CITATION
                                     --------
                Please cite the following reference when publishing
                           results obtained with NWChem:

          E. Apra, E. J. Bylaska, W. A. de Jong, N. Govind, K. Kowalski,
       T. P. Straatsma, M. Valiev, H. J. J. van Dam, Y. Alexeev, J. Anchell,
       V. Anisimov, F. W. Aquino, R. Atta-Fynn, J. Autschbach, N. P. Bauman,
     J. C. Becca, D. E. Bernholdt, K. Bhaskaran-Nair, S. Bogatko, P. Borowski,
         J. Boschen, J. Brabec, A. Bruner, E. Cauet, Y. Chen, G. N. Chuev,
      C. J. Cramer, J. Daily, M. J. O. Deegan, T. H. Dunning Jr., M. Dupuis,
   K. G. Dyall, G. I. Fann, S. A. Fischer, A. Fonari, H. Fruchtl, L. Gagliardi,
      J. Garza, N. Gawande, S. Ghosh, K. Glaesemann, A. W. Gotz, J. Hammond,
       V. Helms, E. D. Hermes, K. Hirao, S. Hirata, M. Jacquelin, L. Jensen,
   B. G. Johnson, H. Jonsson, R. A. Kendall, M. Klemm, R. Kobayashi, V. Konkov,
      S. Krishnamoorthy, M. Krishnan, Z. Lin, R. D. Lins, R. J. Littlefield,
      A. J. Logsdail, K. Lopata, W. Ma, A. V. Marenich, J. Martin del Campo,
   D. Mejia-Rodriguez, J. E. Moore, J. M. Mullin, T. Nakajima, D. R. Nascimento,
    J. A. Nichols, P. J. Nichols, J. Nieplocha, A. Otero-de-la-Roza, B. Palmer,
    A. Panyala, T. Pirojsirikul, B. Peng, R. Peverati, J. Pittner, L. Pollack,
   R. M. Richard, P. Sadayappan, G. C. Schatz, W. A. Shelton, D. W. Silverstein,
   D. M. A. Smith, T. A. Soares, D. Song, M. Swart, H. L. Taylor, G. S. Thomas,
            V. Tipparaju, D. G. Truhlar, K. Tsemekhman, T. Van Voorhis,
      A. Vazquez-Mayagoitia, P. Verma, O. Villa, A. Vishnu, K. D. Vogiatzis,
        D. Wang, J. H. Weare, M. J. Williamson, T. L. Windus, K. Wolinski,
        A. T. Wong, Q. Wu, C. Yang, Q. Yu, M. Zacharias, Z. Zhang, Y. Zhao,
                                and R. J. Harrison
                        "NWChem: Past, present, and future
                         J. Chem. Phys. 152, 184102 (2020)
                               doi:10.1063/5.0004997

                                      AUTHORS
                                      -------
  E. Apra, E. J. Bylaska, N. Govind, K. Kowalski, M. Valiev, D. Mejia-Rodriguez,
       A. Kunitsa, N. P. Bauman, A. Panyala, W. A. de Jong, T. P. Straatsma,
        H. J. J. van Dam, D. Wang, T. L. Windus, J. Hammond, J. Autschbach,
    K. Bhaskaran-Nair, J. Brabec, K. Lopata, S. A. Fischer, S. Krishnamoorthy,
     M. Jacquelin, W. Ma, M. Klemm, O. Villa, Y. Chen, V. Anisimov, F. Aquino,
    S. Hirata, M. T. Hackler, Eric Hermes, L. Jensen, J. E. Moore, J. C. Becca,
      V. Konjkov, T. Risthaus, M. Malagoli, A. Marenich, A. Otero-de-la-Roza,
        J. Mullin, P. Nichols, R. Peverati, J. Pittner, Y. Zhao, P.-D. Fan,
        A. Fonari, M. J. Williamson, R. J. Harrison, J. R. Rehr, M. Dupuis,
     D. Silverstein, D. M. A. Smith, J. Nieplocha, V. Tipparaju, M. Krishnan,
     B. E. Van Kuiken, A. Vazquez-Mayagoitia, M. Swart, Q. Wu, T. Van Voorhis,
     A. A. Auer, M. Nooijen, L. D. Crosby, E. Brown, G. Cisneros, G. I. Fann,
   H. Fruchtl, J. Garza, K. Hirao, R. A. Kendall, J. A. Nichols, K. Tsemekhman,
    K. Wolinski, J. Anchell, D. E. Bernholdt, P. Borowski, T. Clark, D. Clerc,
   H. Dachsel, M. J. O. Deegan, K. Dyall, D. Elwood, E. Glendening, M. Gutowski,
   A. C. Hess, J. Jaffe, B. G. Johnson, J. Ju, R. Kobayashi, R. Kutteh, Z. Lin,
   R. Littlefield, X. Long, B. Meng, T. Nakajima, S. Niu, L. Pollack, M. Rosing,
   K. Glaesemann, G. Sandrone, M. Stave, H. Taylor, G. Thomas, J. H. van Lenthe,
                               A. T. Wong, Z. Zhang.

 Total times  cpu:        6.0s     wall:        6.0s
