 argument  1 = input.nw
  NWChem w/ OpenMP: maximum threads =    1



============================== echo of input deck ==============================
 echo
 start H2O
 title "H2O"

 memory total 24 gb

 geometry units bohr
 symmetry c1
        O  0.00000000  0.00000000  0.00000000
        H  0.00000000  3.31821  0.00000000
        H  1.72558000 -0.64860000  0.00000000
 end

 basis spherical
   * library cc-pVDZ
 end

 scf
   vectors input h2o.mos
   vectors output h2o.mos
 end

 tce
   2eorb
   2emet 13
   ccsd
   maxiter 300
 end

# set tce:print_integrals T
# set tce:qorb 8
# set tce:qela 5
# set tce:qelb 5

 set tce:qducc T
 set tce:nactv 3
 set tce:nonhf T
 set tce:ducc_model 6

 set tce:printtol 0.02

 task tce
================================================================================


                                         
                                         


             Northwest Computational Chemistry Package (NWChem) 7.0.1
             --------------------------------------------------------


                    Environmental Molecular Sciences Laboratory
                       Pacific Northwest National Laboratory
                                Richland, WA 99352

                              Copyright (c) 1994-2020
                       Pacific Northwest National Laboratory
                            Battelle Memorial Institute

             NWChem is an open-source computational chemistry package
                        distributed under the terms of the
                      Educational Community License (ECL) 2.0
             A copy of the license is included with this distribution
                              in the LICENSE.TXT file

                                  ACKNOWLEDGMENT
                                  --------------

            This software and its documentation were developed at the
            EMSL at Pacific Northwest National Laboratory, a multiprogram
            national laboratory, operated for the U.S. Department of Energy
            by Battelle under Contract Number DE-AC05-76RL01830. Support
            for this work was provided by the Department of Energy Office
            of Biological and Environmental Research, Office of Basic
            Energy Sciences, and the Office of Advanced Scientific Computing.


           Job information
           ---------------

    hostname        = WE46210
    program         = /home/baum612/code/nwchem/bin/LINUX64/nwchem
    date            = Fri Sep  6 10:04:19 2024

    compiled        = Wed_Sep_04_02:00:17_2024
    source          = /home/baum612/code/nwchem
    nwchem branch   = 7.0.0
    nwchem revision = nwchem_on_git-4191-g39d87d64de
    ga revision     = 5.8.1
    use scalapack   = F
    input           = input.nw
    prefix          = H2O.
    data base       = ./H2O.db
    status          = startup
    nproc           =        1
    time left       =     -1s



           Memory information
           ------------------

    heap     =  805306366 doubles =   6144.0 Mbytes
    stack    =  805306363 doubles =   6144.0 Mbytes
    global   = 1610612736 doubles =  12288.0 Mbytes (distinct from heap & stack)
    total    = 3221225465 doubles =  24576.0 Mbytes
    verify   = yes
    hardfail = no 


           Directory information
           ---------------------

  0 permanent = .
  0 scratch   = .




                                NWChem Input Module
                                -------------------


                                        H2O
                                        ---
 Turning off AUTOSYM since
 SYMMETRY directive was detected!


          ------
          auto-z
          ------
  autoz: The atoms group into disjoint clusters
 cluster   1:    1    3
 cluster   2:    2
 Connecting clusters   1   2 via atoms    1    2 r = 1.76
  autoz: regenerating connections with new bonds
  no constraints, skipping    0.0000000000000000     
  no constraints, skipping    0.0000000000000000     


                             Geometry "geometry" -> ""
                             -------------------------

 Output coordinates in a.u. (scale by  1.000000000 to convert to a.u.)

  No.       Tag          Charge          X              Y              Z
 ---- ---------------- ---------- -------------- -------------- --------------
    1 O                    8.0000    -0.17255800    -0.26696100     0.00000000
    2 H                    1.0000    -0.17255800     3.05124900     0.00000000
    3 H                    1.0000     1.55302200    -0.91556100     0.00000000

      Atomic Mass 
      ----------- 

      O                 15.994910
      H                  1.007825


 Effective nuclear repulsion energy (a.u.)       6.9817943681

            Nuclear Dipole moment (a.u.) 
            ----------------------------
        X                 Y               Z
 ---------------- ---------------- ----------------
    -0.0000000000     0.0000000000     0.0000000000



                                Z-matrix (autoz)
                                -------- 

 Units are Angstrom for bonds and degrees for angles

      Type          Name      I     J     K     L     M      Value
      ----------- --------  ----- ----- ----- ----- ----- ----------
    1 Stretch                  1     2                       1.75592
    2 Stretch                  1     3                       0.97551
    3 Bend                     2     1     3               110.59992


            XYZ format geometry
            -------------------
     3
 geometry
 O                    -0.09131377    -0.14126969     0.00000000
 H                    -0.09131377     1.61465155     0.00000000
 H                     0.82182391    -0.48449405     0.00000000

 ==============================================================================
                                internuclear distances
 ------------------------------------------------------------------------------
       center one      |      center two      | atomic units |       a.u.
 ------------------------------------------------------------------------------
    3 H                |   1 O                |     1.84345  |     1.84345
 ------------------------------------------------------------------------------
                         number of included internuclear distances:          1
 ==============================================================================





 Summary of "ao basis" -> "" (spherical)
 ------------------------------------------------------------------------------
       Tag                 Description            Shells   Functions and Types
 ---------------- ------------------------------  ------  ---------------------
 *                          cc-pVDZ                   on all atoms 


                      Basis "ao basis" -> "ao basis" (spherical)
                      -----
  O (Oxygen)
  ----------
            Exponent  Coefficients 
       -------------- ---------------------------------------------------------
  1 S  1.17200000E+04  0.000710
  1 S  1.75900000E+03  0.005470
  1 S  4.00800000E+02  0.027837
  1 S  1.13700000E+02  0.104800
  1 S  3.70300000E+01  0.283062
  1 S  1.32700000E+01  0.448719
  1 S  5.02500000E+00  0.270952
  1 S  1.01300000E+00  0.015458

  2 S  1.17200000E+04 -0.000160
  2 S  1.75900000E+03 -0.001263
  2 S  4.00800000E+02 -0.006267
  2 S  1.13700000E+02 -0.025716
  2 S  3.70300000E+01 -0.070924
  2 S  1.32700000E+01 -0.165411
  2 S  5.02500000E+00 -0.116955
  2 S  1.01300000E+00  0.557368

  3 S  3.02300000E-01  1.000000

  4 P  1.77000000E+01  0.043018
  4 P  3.85400000E+00  0.228913
  4 P  1.04600000E+00  0.508728

  5 P  2.75300000E-01  1.000000

  6 D  1.18500000E+00  1.000000

  H (Hydrogen)
  ------------
            Exponent  Coefficients 
       -------------- ---------------------------------------------------------
  1 S  1.30100000E+01  0.019685
  1 S  1.96200000E+00  0.137977
  1 S  4.44600000E-01  0.478148

  2 S  1.22000000E-01  1.000000

  3 P  7.27000000E-01  1.000000



 Summary of "ao basis" -> "ao basis" (spherical)
 ------------------------------------------------------------------------------
       Tag                 Description            Shells   Functions and Types
 ---------------- ------------------------------  ------  ---------------------
 O                          cc-pVDZ                  6       14   3s2p1d
 H                          cc-pVDZ                  3        5   2s1p


                                 NWChem SCF Module
                                 -----------------


                                        H2O



  ao basis        = "ao basis"
  functions       =    24
  atoms           =     3
  closed shells   =     5
  open shells     =     0
  charge          =   0.00
  wavefunction    = RHF 
  input vectors   = ./h2o.mos
  output vectors  = ./h2o.mos
  use symmetry    = F
  symmetry adapt  = F


 Summary of "ao basis" -> "ao basis" (spherical)
 ------------------------------------------------------------------------------
       Tag                 Description            Shells   Functions and Types
 ---------------- ------------------------------  ------  ---------------------
 O                          cc-pVDZ                  6       14   3s2p1d
 H                          cc-pVDZ                  3        5   2s1p



 Forming initial guess at       0.0s


 Loading old vectors from job with title :

H2O


 Starting SCF solution at       0.0s



 ----------------------------------------------
         Quadratically convergent ROHF

 Convergence threshold     :          1.000E-04
 Maximum no. of iterations :           30
 Final Fock-matrix accuracy:          1.000E-07
 ----------------------------------------------


 #quartets = 3.081D+03 #integrals = 2.131D+04 #direct =  0.0% #cached =100.0%


 Integral file          = ./H2O.aoints.0
 Record size in doubles =  65536        No. of integs per rec  =  43688
 Max. records in memory =      4        Max. records in file   = 232232
 No. of bits per label  =      8        No. of bits per value  =     64


              iter       energy          gnorm     gmax       time
             ----- ------------------- --------- --------- --------
                 1      -75.8403037877  3.01D-02  1.39D-02      0.0
                 2      -75.8404140627  4.93D-04  3.11D-04      0.0
                 3      -75.8404141283  1.81D-06  6.51D-07      0.0


       Final RHF  results 
       ------------------ 

         Total SCF energy =    -75.840414128259
      One-electron energy =   -118.776028235024
      Two-electron energy =     35.953819738689
 Nuclear repulsion energy =      6.981794368076

        Time for solution =      0.0s


             Final eigenvalues
             -----------------

              1      
    1  -20.6021
    2   -1.2715
    3   -0.6213
    4   -0.4957
    5   -0.4436
    6    0.0196
    7    0.2177
    8    0.6194
    9    0.8180
   10    1.1502
   11    1.1697
   12    1.2556
   13    1.4441
   14    1.4670
   15    1.5229

                       ROHF Final Molecular Orbital Analysis
                       -------------------------------------

 Vector    2  Occ=2.000000D+00  E=-1.271540D+00
              MO Center=  6.8D-02, -1.9D-01, -3.1D-17, r^2= 4.9D-01
   Bfn.  Coefficient  Atom+Function         Bfn.  Coefficient  Atom+Function  
  ----- ------------  ---------------      ----- ------------  ---------------
     3      0.464802  1 O  s                  2      0.462100  1 O  s          
    20      0.205045  3 H  s          

 Vector    3  Occ=2.000000D+00  E=-6.212509D-01
              MO Center=  2.1D-03, -1.4D-01,  2.6D-16, r^2= 7.9D-01
   Bfn.  Coefficient  Atom+Function         Bfn.  Coefficient  Atom+Function  
  ----- ------------  ---------------      ----- ------------  ---------------
     4      0.493534  1 O  px                20      0.375053  3 H  s          
     3     -0.302094  1 O  s                  7      0.277623  1 O  px         
     5     -0.154087  1 O  py         

 Vector    4  Occ=2.000000D+00  E=-4.956616D-01
              MO Center= -7.2D-02, -1.4D-01, -1.4D-16, r^2= 5.8D-01
   Bfn.  Coefficient  Atom+Function         Bfn.  Coefficient  Atom+Function  
  ----- ------------  ---------------      ----- ------------  ---------------
     6      0.649042  1 O  pz                 9      0.488818  1 O  pz         

 Vector    5  Occ=2.000000D+00  E=-4.435991D-01
              MO Center= -7.6D-02,  4.9D-01, -6.5D-17, r^2= 1.4D+00
   Bfn.  Coefficient  Atom+Function         Bfn.  Coefficient  Atom+Function  
  ----- ------------  ---------------      ----- ------------  ---------------
     5      0.405639  1 O  py                 8      0.343514  1 O  py         
    16      0.299191  2 H  s                 15      0.296683  2 H  s          
     4      0.204354  1 O  px                 7      0.175356  1 O  px         

 Vector    6  Occ=0.000000D+00  E= 1.956263D-02
              MO Center= -6.7D-02,  1.0D+00,  6.7D-18, r^2= 2.0D+00
   Bfn.  Coefficient  Atom+Function         Bfn.  Coefficient  Atom+Function  
  ----- ------------  ---------------      ----- ------------  ---------------
    16      0.653354  2 H  s                  8     -0.427036  1 O  py         
     5     -0.378882  1 O  py                15      0.322581  2 H  s          
     3     -0.278934  1 O  s          

 Vector    7  Occ=0.000000D+00  E= 2.176935D-01
              MO Center=  1.0D+00, -5.5D-01, -2.5D-16, r^2= 2.3D+00
   Bfn.  Coefficient  Atom+Function         Bfn.  Coefficient  Atom+Function  
  ----- ------------  ---------------      ----- ------------  ---------------
    21      1.457262  3 H  s                  3     -0.769143  1 O  s          
     7     -0.423605  1 O  px                16     -0.258980  2 H  s          
     8      0.246463  1 O  py                 4     -0.218761  1 O  px         

 Vector    8  Occ=0.000000D+00  E= 6.194421D-01
              MO Center= -1.0D-01,  1.8D+00, -4.6D-19, r^2= 1.8D+00
   Bfn.  Coefficient  Atom+Function         Bfn.  Coefficient  Atom+Function  
  ----- ------------  ---------------      ----- ------------  ---------------
    16     -1.361645  2 H  s                 15      1.287202  2 H  s          
     3      0.222773  1 O  s                  8      0.213559  1 O  py         
    21      0.155214  3 H  s          

 Vector    9  Occ=0.000000D+00  E= 8.180380D-01
              MO Center=  7.1D-01, -4.3D-01, -1.8D-16, r^2= 1.2D+00
   Bfn.  Coefficient  Atom+Function         Bfn.  Coefficient  Atom+Function  
  ----- ------------  ---------------      ----- ------------  ---------------
    20      1.301794  3 H  s                 21     -0.885226  3 H  s          
     4     -0.316496  1 O  px                 7     -0.262495  1 O  px         
    22      0.258151  3 H  px                16      0.152316  2 H  s          

 Vector   10  Occ=0.000000D+00  E= 1.150161D+00
              MO Center= -3.5D-01,  1.7D-01,  3.4D-16, r^2= 1.5D+00
   Bfn.  Coefficient  Atom+Function         Bfn.  Coefficient  Atom+Function  
  ----- ------------  ---------------      ----- ------------  ---------------
     7      1.343981  1 O  px                 4     -0.711687  1 O  px         
    20     -0.596989  3 H  s                  3      0.473280  1 O  s          
    21     -0.384732  3 H  s                 22      0.330545  3 H  px         
    17      0.312235  2 H  px                 8     -0.207297  1 O  py         
     2      0.154919  1 O  s          

 Vector   11  Occ=0.000000D+00  E= 1.169684D+00
              MO Center= -8.9D-02,  5.2D-02,  5.5D-16, r^2= 1.3D+00
   Bfn.  Coefficient  Atom+Function         Bfn.  Coefficient  Atom+Function  
  ----- ------------  ---------------      ----- ------------  ---------------
     9     -0.966078  1 O  pz                 6      0.906264  1 O  pz         
    19     -0.280436  2 H  pz         

 Vector   12  Occ=0.000000D+00  E= 1.255583D+00
              MO Center= -8.8D-02,  4.3D-01, -1.7D-16, r^2= 1.4D+00
   Bfn.  Coefficient  Atom+Function         Bfn.  Coefficient  Atom+Function  
  ----- ------------  ---------------      ----- ------------  ---------------
     5      0.847316  1 O  py                 8     -0.851254  1 O  py         
    18      0.397438  2 H  py                15      0.244933  2 H  s          
     2      0.196749  1 O  s          

 Vector   13  Occ=0.000000D+00  E= 1.444089D+00
              MO Center=  3.2D-01,  6.9D-02,  1.1D-15, r^2= 1.8D+00
   Bfn.  Coefficient  Atom+Function         Bfn.  Coefficient  Atom+Function  
  ----- ------------  ---------------      ----- ------------  ---------------
     3      1.021033  1 O  s                  2     -0.665812  1 O  s          
    23     -0.614955  3 H  py                18     -0.530709  2 H  py         
    21     -0.487018  3 H  s                  8     -0.449699  1 O  py         
     7      0.368698  1 O  px                 5      0.348451  1 O  py         
     1     -0.279810  1 O  s                 20     -0.238655  3 H  s          

 Vector   14  Occ=0.000000D+00  E= 1.466973D+00
              MO Center=  1.8D-01,  8.8D-01, -1.4D-15, r^2= 1.6D+00
   Bfn.  Coefficient  Atom+Function         Bfn.  Coefficient  Atom+Function  
  ----- ------------  ---------------      ----- ------------  ---------------
    19      0.808764  2 H  pz                24     -0.525955  3 H  pz         
     6      0.269549  1 O  pz         

 Vector   15  Occ=0.000000D+00  E= 1.522912D+00
              MO Center= -1.3D-01,  1.1D+00, -1.5D-15, r^2= 1.5D+00
   Bfn.  Coefficient  Atom+Function         Bfn.  Coefficient  Atom+Function  
  ----- ------------  ---------------      ----- ------------  ---------------
    17      0.880456  2 H  px                 7     -0.569552  1 O  px         
    23      0.320815  3 H  py                 2     -0.317676  1 O  s          
    20      0.311350  3 H  s                  4      0.248001  1 O  px         
     3      0.200814  1 O  s          


 center of mass
 --------------
 x =  -0.07599894 y =  -0.11757643 z =   0.00000000

 moments of inertia (a.u.)
 ------------------
          11.118729569564           1.387761125363           0.000000000000
           1.387761125363           2.833002082974           0.000000000000
           0.000000000000           0.000000000000          13.951731652538

  Mulliken analysis of the total density
  --------------------------------------

    Atom       Charge   Shell Charges
 -----------   ------   -------------------------------------------------------
    1 O    8     8.38   2.00  0.87  0.96  2.63  1.91  0.01
    2 H    1     0.81   0.39  0.41  0.01
    3 H    1     0.81   0.67  0.06  0.08

       Multipole analysis of the density wrt the origin
       ------------------------------------------------

     L   x y z        total         open         nuclear
     -   - - -        -----         ----         -------
     0   0 0 0     -0.000000      0.000000     10.000000

     1   1 0 0      0.636424      0.000000     -0.000000
     1   0 1 0      0.457038      0.000000      0.000000
     1   0 0 1     -0.000000      0.000000      0.000000

     2   2 0 0     -4.417020      0.000000      2.679864
     2   1 1 0     -0.853462      0.000000     -1.579874
     2   1 0 1      0.000000      0.000000      0.000000
     2   0 2 0     -2.332752      0.000000     10.718518
     2   0 1 1     -0.000000      0.000000      0.000000
     2   0 0 2     -5.767762      0.000000      0.000000


 Parallel integral file used       1 records with       0 large values

                   NWChem Extensible Many-Electron Theory Module
                   ---------------------------------------------

              ======================================================
                   This portion of the program was automatically
                  generated by a Tensor Contraction Engine (TCE).
                  The development of this portion of the program
                 and TCE was supported by US Department of Energy,
                Office of Science, Office of Basic Energy Science.
                      TCE is a product of Battelle and PNNL.
              Please cite: S.Hirata, J.Phys.Chem.A 107, 9887 (2003).
              ======================================================

                                        H2O


            General Information
            -------------------
      Number of processors :     1
         Wavefunction type : Restricted Hartree-Fock
          No. of electrons :    10
           Alpha electrons :     5
            Beta electrons :     5
           No. of orbitals :    48
            Alpha orbitals :    24
             Beta orbitals :    24
        Alpha frozen cores :     0
         Beta frozen cores :     0
     Alpha frozen virtuals :     0
      Beta frozen virtuals :     0
         Spin multiplicity : singlet 
    Number of AO functions :    24
       Number of AO shells :    12
        Use of symmetry is : off
      Symmetry adaption is : off
         Schwarz screening : 0.10D-09

          Correlation Information
          -----------------------
          Calculation type : Coupled-cluster singles & doubles                           
   Perturbative correction : none                                                        
            Max iterations :      300
        Residual threshold : 0.10D-06
     T(0) DIIS level shift : 0.00D+00
     L(0) DIIS level shift : 0.00D+00
     T(1) DIIS level shift : 0.00D+00
     L(1) DIIS level shift : 0.00D+00
     T(R) DIIS level shift : 0.00D+00
     T(I) DIIS level shift : 0.00D+00
   CC-T/L Amplitude update :  5-th order DIIS
                I/O scheme : Global Array Library
        L-threshold :  0.10D-06
        EOM-threshold :  0.10D-06
 no EOMCCSD initial starts read in
 TCE RESTART OPTIONS
 READ_INT:   F
 WRITE_INT:  F
 READ_TA:    F
 WRITE_TA:   F
 READ_XA:    F
 WRITE_XA:   F
 READ_IN3:   F
 WRITE_IN3:  F
 SLICE:      F
 D4D5:       F
 quantumc:   F
 qrotation:  F
 pwtce:      F
 qducc:      T
 nacto:                         0
 nrotv:                         0
 nrot:                          0

            Memory Information
            ------------------
          Available GA space size is    1610612160 doubles
          Available MA space size is    1610610956 doubles

 Maximum block size        32 doubles

 tile_dim =     19

 Block   Spin    Irrep     Size     Offset   Alpha
 -------------------------------------------------
   1    alpha     a      5 doubles       0       1
   2    beta      a      5 doubles       5       1
   3    alpha     a     19 doubles      10       3
   4    beta      a     19 doubles      29       3

 Global array virtual files algorithm will be used

 Parallel file system coherency ......... OK

 #quartets = 3.081D+03 #integrals = 2.131D+04 #direct =  0.0% #cached =100.0%


 Integral file          = ./H2O.aoints.0
 Record size in doubles =  65536        No. of integs per rec  =  43688
 Max. records in memory =      4        Max. records in file   = 232232
 No. of bits per label  =      8        No. of bits per value  =     64


 Fock matrix recomputed
 1-e file size   =              576
 1-e file name   = ./H2O.f1
 Cpu & wall time / sec            0.0            0.0
 4-electron integrals stored in orbital form

 v2    file size   =           185666
 4-index algorithm nr.  13 is used
 imaxsize =       30
 imaxsize ichop =        0
 Cpu & wall time / sec            0.1            0.1
 T1-number-of-tasks                    1

 t1 file size   =               95
 t1 file name   = ./H2O.t1
 t1 file handle =       -998
 T2-number-of-boxes                    2

 t2 file size   =            18050
 t2 file name   = ./H2O.t2
 t2 file handle =       -996
CCSD iterations
 ---------------------------------------------------------
 Iter          Residuum       Correlation     Cpu    Wall 
 ---------------------------------------------------------
NEW TASK SCHEDULING
CCSD_T1_NTS --- OK
CCSD_T2_NTS --- OK
    1   0.1415593518218  -0.2349473496539     0.0     0.0
    2   0.0527655586081  -0.2400248438052     0.0     0.0
    3   0.0273286323626  -0.2484311792812     0.0     0.0
    4   0.0153690026044  -0.2512558935428     0.0     0.0
    5   0.0090918055924  -0.2530269250548     0.0     0.0
 MICROCYCLE DIIS UPDATE:                    5                    5
    6   0.0023102561856  -0.2551188185537     0.0     0.0
    7   0.0014760549695  -0.2552212753004     0.0     0.0
    8   0.0010767379777  -0.2552201095956     0.0     0.0
    9   0.0007662480132  -0.2552333854392     0.0     0.0
   10   0.0005684987817  -0.2552420461633     0.0     0.0
 MICROCYCLE DIIS UPDATE:                   10                    5
   11   0.0000763982657  -0.2552686611723     0.0     0.0
   12   0.0000345368386  -0.2552777226924     0.0     0.0
   13   0.0000180273127  -0.2552809667604     0.0     0.0
   14   0.0000095753673  -0.2552830206414     0.0     0.0
   15   0.0000054757584  -0.2552839689626     0.0     0.0
 MICROCYCLE DIIS UPDATE:                   15                    5
   16   0.0000013332386  -0.2552852097673     0.0     0.0
   17   0.0000008513599  -0.2552852387675     0.0     0.0
   18   0.0000005987578  -0.2552852561223     0.0     0.0
   19   0.0000004294404  -0.2552852683484     0.0     0.0
   20   0.0000003139588  -0.2552852782483     0.0     0.0
 MICROCYCLE DIIS UPDATE:                   20                    5
   21   0.0000000367744  -0.2552853058045     0.0     0.0
 -----------------------------------------------------------------
 Iterations converged
 CCSD correlation energy / hartree =        -0.255285305804469
 CCSD total energy / hartree       =       -76.095699434063590

 Singles contributions
     6a   (alpha) ---     3a   (alpha)        0.0264807660
     6a   (alpha) ---     5a   (alpha)        0.0320688884
     8a   (alpha) ---     5a   (alpha)        0.0228860904
    12a   (alpha) ---     5a   (alpha)        0.0365763394

 Doubles contributions
     6a   (alpha)     6a   (beta ) ---     3a   (alpha)     5a   (beta )        0.0397123010
     6a   (alpha)     6a   (beta ) ---     4a   (alpha)     4a   (beta )       -0.0209927819
     6a   (alpha)     6a   (beta ) ---     5a   (alpha)     3a   (beta )        0.0397123010
     6a   (alpha)     6a   (beta ) ---     5a   (alpha)     5a   (beta )       -0.2997922256
     6a   (alpha)     7a   (beta ) ---     5a   (alpha)     3a   (beta )       -0.0207419672
     6a   (alpha)     7a   (beta ) ---     5a   (alpha)     5a   (beta )        0.0299661597
     6a   (alpha)     8a   (beta ) ---     5a   (alpha)     5a   (beta )       -0.0622996740
     6a   (alpha)    11a   (beta ) ---     5a   (alpha)     4a   (beta )        0.0248513530
     6a   (alpha)    12a   (beta ) ---     5a   (alpha)     5a   (beta )        0.0344566479
     7a   (alpha)     6a   (beta ) ---     3a   (alpha)     5a   (beta )       -0.0207419672
     7a   (alpha)     6a   (beta ) ---     5a   (alpha)     5a   (beta )        0.0299661597
     7a   (alpha)     7a   (beta ) ---     3a   (alpha)     3a   (beta )       -0.0299379114
     7a   (alpha)     9a   (beta ) ---     3a   (alpha)     3a   (beta )       -0.0279693684
     8a   (alpha)     6a   (beta ) ---     5a   (alpha)     5a   (beta )       -0.0622996740
     8a   (alpha)     8a   (beta ) ---     5a   (alpha)     5a   (beta )       -0.0253906773
     9a   (alpha)     7a   (beta ) ---     3a   (alpha)     3a   (beta )       -0.0279693684
     9a   (alpha)     9a   (beta ) ---     3a   (alpha)     3a   (beta )       -0.0474772580
    10a   (alpha)    10a   (beta ) ---     3a   (alpha)     3a   (beta )       -0.0239651706
    10a   (alpha)    11a   (beta ) ---     3a   (alpha)     4a   (beta )        0.0228490405
    11a   (alpha)     6a   (beta ) ---     4a   (alpha)     5a   (beta )        0.0248513530
    11a   (alpha)    10a   (beta ) ---     4a   (alpha)     3a   (beta )        0.0228490405
    11a   (alpha)    11a   (beta ) ---     4a   (alpha)     4a   (beta )       -0.0473109504
    11a   (alpha)    12a   (beta ) ---     4a   (alpha)     5a   (beta )       -0.0207033815
    12a   (alpha)     6a   (beta ) ---     5a   (alpha)     5a   (beta )        0.0344566479
    12a   (alpha)    11a   (beta ) ---     5a   (alpha)     4a   (beta )       -0.0207033815
 Ground state specification:
 exp(T)|Ref>~(1+T)|Ref>
 ------- a(p)+/a(q) strings ----------

 singles norm

 doubles norm

 Reference string
  0.95788104484437619      :(1a)+ (2a)+ (3a)+ (4a)+ (5a)+ (1b)+ (2b)+ (3b)+ (4b)+ (5b)+ |0>

 Singles strings

 Doubles strings
 -0.28716529025605786      :(6a)+ (6b)+ (5b)  (5a)  (1a)+ (2a)+ (3a)+ (4a)+ (5a)+ (1b)+ (2b)+ (3b)+ (4b)+ (5b)+ |0>
 -------------------------------------
 enrep_tce =    6.9817943680755548     
  EHF(total)         =       -75.84041413
  Shift (HFtot-HFA)  =         0.00000000
 ALL OCCUPIED ORBITALS ARE ACTIVE IN DUCC --> NO SHIFT
 Number of active orbitals                    8
 Number of active alpha electrons                    5
 Number of active beta electrons                    5
  nos                    10
  nvs                    38
 noas                     5
 nobs                     5
 nvas                    19
 nvbs                    19
 nactv                     3
 DUCC MODEL =                     6
 NONHF =  T
 F-T1 correlation    =    4.8390785908810523E-009
 V-T1-T1 correlation =    2.3114314283806400E-004
 V-T2 correlation    =  -0.25551645378634735     
 Total correlation   =  -0.25528530580443071     
 F-T1(Ext) correlation         =    7.4629265448850238E-009
 V-T1(Ext)-T1(Ext) correlation =    1.0663146880568987E-004
 V-T2(Ext) correlation         =  -0.18687757088246848     
 Total Ext correlation         =  -0.18677093195073624     
1-BODY TIME =    1.920 SECONDS.
  HHHH TIME =    2.148 SECONDS.
  PPPP TIME =    0.029 SECONDS.
  HHHP TIME =    0.615 SECONDS.
  PPPH TIME =    0.081 SECONDS.
  HPHP TIME =    0.344 SECONDS.
  HHPP TIME =    0.336 SECONDS.
 ONE-BODY UNITARY CHECK
 TWO-BODY UNITARY CHECK
                    2                    7                    3                    8   1.4895307209883413E-012
                    2                    7                    5                    7  -2.5004096015912580E-012
                    2                    7                    5                    8  -4.5226374728590812E-012
                    2                    7                    5                   10  -3.1208785555847385E-012
                    2                    7                    8                    3  -1.4895584765639569E-012
                    2                    7                   10                    2   2.5267947456608653E-012
                    2                    7                   10                    3   4.5460284842091525E-012
                    2                    7                   10                    5   3.1208785555847385E-012
                    2                    8                    3                    7   1.0483003354266884E-012
                    2                    8                    5                    7  -3.3694349393931233E-012
                    2                    8                    5                    8  -3.4752721533859443E-012
                    2                    8                    8                    2  -1.2294609774698984E-012
                    2                    8                   10                    2   3.8620773246123008E-012
                    2                    8                   10                    3   3.5138524034916685E-012
                    2                    9                    5                    9  -1.3681659971620519E-012
                    2                    9                   10                    4   1.0717728787801306E-012
                    2                   10                    5                    7  -2.1288110163553142E-012
                    2                   10                   10                    2   2.6573188094403122E-012
                    3                    4                    4                    3   1.0211831380502190E-012
                    3                    4                    5                    4  -2.3244808855515942E-012
                    3                    5                    5                    3   1.9367285553073543E-012
                    3                    5                    5                    5  -1.4851573355198389E-012
                    3                    7                    2                    8  -1.0483003354266884E-012
                    3                    7                    5                    7  -4.3503256552668290E-012
                    3                    7                    5                    8  -3.7143205178225003E-012
                    3                    7                    7                    3   1.2294609774698984E-012
                    3                    7                   10                    2   3.7446903217164262E-012
                    3                    7                   10                    3   3.7889101578425510E-012
                    3                    8                    2                    7  -1.4895307209883413E-012
                    3                    8                    4                    9  -1.3496877226959469E-012
                    3                    8                    5                    7  -3.8833753920886060E-012
                    3                    8                    5                    8  -1.2467374355118466E-011
                    3                    8                    5                   10  -3.7144246012310589E-012
                    3                    8                    7                    2   1.4895862321395725E-012
                    3                    8                    9                    4   1.3497154782715626E-012
                    3                    8                   10                    2   3.9466407572574802E-012
                    3                    8                   10                    3   1.2209323829726060E-011
                    3                    8                   10                    5   3.7144315401249628E-012
                    3                    9                    5                    9  -3.4437799834030614E-012
                    3                    9                    9                    3   1.4801493364302587E-012
                    3                    9                   10                    4   1.1188428655772853E-012
                    3                   10                    5                    8  -2.5621796351238402E-012
                    3                   10                    5                   10  -3.7323998058891306E-012
                    3                   10                   10                    3   4.5032866324845600E-012
                    3                   10                   10                    5   2.2472336491663469E-012
                    4                    3                    3                    4  -1.0211831380502190E-012
                    4                    3                    5                    4   1.9858420463592097E-012
                    4                    5                    5                    4   1.4984680163365738E-012
                    4                    7                    5                    9  -1.2104831026427121E-012
                    4                    7                   10                    4   1.5743101267062798E-012
                    4                    8                    8                    4  -1.4801493364302587E-012
                    4                    8                   10                    4   2.7862920304322358E-012
                    4                    9                    3                    8   1.3496877226959469E-012
                    4                    9                    5                    7  -1.4241611362431073E-012
                    4                    9                    5                    8  -2.6868810995561709E-012
                    4                    9                    5                   10  -2.2788264331108365E-012
                    4                    9                    8                    3  -1.3496738449081391E-012
                    4                    9                   10                    2   1.4193455438737956E-012
                    4                    9                   10                    3   2.7004648517348073E-012
                    4                    9                   10                    5   2.2788264331108365E-012
                    4                   10                    5                    9  -1.4484628774180663E-012
                    4                   10                   10                    4   2.9471980411699406E-012
                    5                    3                    3                    5  -1.9367285553073543E-012
                    5                    3                    5                    5   1.4851572666984119E-012
                    5                    4                    3                    4   2.3244808855515942E-012
                    5                    4                    4                    3  -1.9858420463592097E-012
                    5                    4                    4                    5  -1.4984680163365738E-012
                    5                    5                    3                    5   1.4851573355198389E-012
                    5                    5                    5                    3  -1.4851572666984119E-012
                    5                    7                    2                    7   2.5004096015912580E-012
                    5                    7                    2                    8   3.3694349393931233E-012
                    5                    7                    2                   10   2.1288110163553142E-012
                    5                    7                    3                    7   4.3503256552668290E-012
                    5                    7                    3                    8   3.8833753920886060E-012
                    5                    7                    4                    9   1.4241611362431073E-012
                    5                    7                    5                   10  -1.3530539536010799E-012
                    5                    7                    7                    2  -2.5267843373200094E-012
                    5                    7                    7                    3  -3.8620842635062047E-012
                    5                    7                    7                    5  -2.6573188094403122E-012
                    5                    7                    8                    2  -3.7446799133755704E-012
                    5                    7                    8                    3  -3.9466225426609824E-012
                    5                    7                    9                    4  -1.4193368702564158E-012
                    5                    7                   10                    5   1.7966149401527076E-012
                    5                    8                    2                    7   4.5226374728590812E-012
                    5                    8                    2                    8   3.4752721533859443E-012
                    5                    8                    3                    7   3.7143205178225003E-012
                    5                    8                    3                    8   1.2467374355118466E-011
                    5                    8                    3                   10   2.5621796351238402E-012
                    5                    8                    4                    9   2.6868810995561709E-012
                    5                    8                    5                   10   1.0148340501281439E-012
                    5                    8                    7                    2  -4.5460250147622006E-012
                    5                    8                    7                    3  -3.5138593423855724E-012
                    5                    8                    8                    2  -3.7888997495016952E-012
                    5                    8                    8                    3  -1.2209323829726060E-011
                    5                    8                    8                    5  -4.5022874317623973E-012
                    5                    8                    9                    4  -2.7004639843730693E-012
                    5                    9                    2                    9   1.3681659971620519E-012
                    5                    9                    3                    9   3.4437799834030614E-012
                    5                    9                    4                    7   1.2104831026427121E-012
                    5                    9                    4                   10   1.4484628774180663E-012
                    5                    9                    7                    4  -1.0717694093331787E-012
                    5                    9                    8                    4  -1.1188376614068574E-012
                    5                    9                    9                    2  -1.5743205350471356E-012
                    5                    9                    9                    3  -2.7862712137505241E-012
                    5                    9                    9                    5  -2.9471980411699406E-012
                    5                   10                    2                    7   3.1208785555847385E-012
                    5                   10                    3                    8   3.7144246012310589E-012
                    5                   10                    3                   10   3.7323998058891306E-012
                    5                   10                    4                    9   2.2788264331108365E-012
                    5                   10                    5                    7   1.3530539536010799E-012
                    5                   10                    5                    8  -1.0148340501281439E-012
                    5                   10                    7                    2  -3.1208785555847385E-012
                    5                   10                    8                    3  -3.7144662345944823E-012
                    5                   10                    8                    5  -2.2472163019315872E-012
                    5                   10                    9                    4  -2.2788264331108365E-012
                    5                   10                   10                    2  -1.7966166748761836E-012
                    7                    2                    3                    8  -1.4895862321395725E-012
                    7                    2                    5                    7   2.5267843373200094E-012
                    7                    2                    5                    8   4.5460250147622006E-012
                    7                    2                    5                   10   3.1208785555847385E-012
                    7                    2                    8                    3   1.4895584765639569E-012
                    7                    2                   10                    2  -2.5004200099321139E-012
                    7                    2                   10                    3  -4.5226409423060332E-012
                    7                    2                   10                    5  -3.1208785555847385E-012
                    7                    3                    3                    7  -1.2294609774698984E-012
                    7                    3                    5                    7   3.8620842635062047E-012
                    7                    3                    5                    8   3.5138593423855724E-012
                    7                    3                    8                    2   1.0481893131242259E-012
                    7                    3                   10                    2  -3.3694470824574552E-012
                    7                    3                   10                    3  -3.4752825617268002E-012
                    7                    4                    5                    9   1.0717694093331787E-012
                    7                    4                   10                    4  -1.3681521193742441E-012
                    7                    5                    5                    7   2.6573188094403122E-012
                    7                    5                   10                    2  -2.1288110163553142E-012
                    8                    2                    2                    8   1.2294609774698984E-012
                    8                    2                    5                    7   3.7446799133755704E-012
                    8                    2                    5                    8   3.7888997495016952E-012
                    8                    2                    7                    3  -1.0481893131242259E-012
                    8                    2                   10                    2  -4.3503256552668290E-012
                    8                    2                   10                    3  -3.7143118442051204E-012
                    8                    3                    2                    7   1.4895584765639569E-012
                    8                    3                    4                    9   1.3496738449081391E-012
                    8                    3                    5                    7   3.9466225426609824E-012
                    8                    3                    5                    8   1.2209323829726060E-011
                    8                    3                    5                   10   3.7144662345944823E-012
                    8                    3                    7                    2  -1.4895584765639569E-012
                    8                    3                    9                    4  -1.3496877226959469E-012
                    8                    3                   10                    2  -3.8833927393233658E-012
                    8                    3                   10                    3  -1.2467374355118466E-011
                    8                    3                   10                    5  -3.7145009290640019E-012
                    8                    4                    4                    8   1.4801493364302587E-012
                    8                    4                    5                    9   1.1188376614068574E-012
                    8                    4                   10                    4  -3.4438008000847731E-012
                    8                    5                    5                    8   4.5022874317623973E-012
                    8                    5                    5                   10   2.2472163019315872E-012
                    8                    5                   10                    3  -2.5621380017604167E-012
                    8                    5                   10                    5  -3.7323755197604669E-012
                    8                    9                    9                    8   1.0211831380502190E-012
                    8                    9                   10                    9  -2.3244878244454981E-012
                    8                   10                   10                    8   1.9368395776098168E-012
                    8                   10                   10                   10  -1.4851582024812214E-012
                    9                    2                    5                    9   1.5743205350471356E-012
                    9                    2                   10                    4  -1.2104865720896640E-012
                    9                    3                    3                    9  -1.4801493364302587E-012
                    9                    3                    5                    9   2.7862712137505241E-012
                    9                    4                    3                    8  -1.3497154782715626E-012
                    9                    4                    5                    7   1.4193368702564158E-012
                    9                    4                    5                    8   2.7004639843730693E-012
                    9                    4                    5                   10   2.2788264331108365E-012
                    9                    4                    8                    3   1.3496877226959469E-012
                    9                    4                   10                    2  -1.4241680751370112E-012
                    9                    4                   10                    3  -2.6868802321944329E-012
                    9                    4                   10                    5  -2.2788264331108365E-012
                    9                    5                    5                    9   2.9471980411699406E-012
                    9                    5                   10                    4  -1.4484420607363546E-012
                    9                    8                    8                    9  -1.0211831380502190E-012
                    9                    8                   10                    9   1.9858351074653058E-012
                    9                   10                   10                    9   1.4981349494291862E-012
                   10                    2                    2                    7  -2.5267947456608653E-012
                   10                    2                    2                    8  -3.8620773246123008E-012
                   10                    2                    2                   10  -2.6573188094403122E-012
                   10                    2                    3                    7  -3.7446903217164262E-012
                   10                    2                    3                    8  -3.9466407572574802E-012
                   10                    2                    4                    9  -1.4193455438737956E-012
                   10                    2                    5                   10   1.7966166748761836E-012
                   10                    2                    7                    2   2.5004200099321139E-012
                   10                    2                    7                    3   3.3694470824574552E-012
                   10                    2                    7                    5   2.1288110163553142E-012
                   10                    2                    8                    2   4.3503256552668290E-012
                   10                    2                    8                    3   3.8833927393233658E-012
                   10                    2                    9                    4   1.4241680751370112E-012
                   10                    2                   10                    5  -1.3530556883245559E-012
                   10                    3                    2                    7  -4.5460284842091525E-012
                   10                    3                    2                    8  -3.5138524034916685E-012
                   10                    3                    3                    7  -3.7889101578425510E-012
                   10                    3                    3                    8  -1.2209323829726060E-011
                   10                    3                    3                   10  -4.5032866324845600E-012
                   10                    3                    4                    9  -2.7004648517348073E-012
                   10                    3                    7                    2   4.5226409423060332E-012
                   10                    3                    7                    3   3.4752825617268002E-012
                   10                    3                    8                    2   3.7143118442051204E-012
                   10                    3                    8                    3   1.2467374355118466E-011
                   10                    3                    8                    5   2.5621380017604167E-012
                   10                    3                    9                    4   2.6868802321944329E-012
                   10                    3                   10                    5   1.0148167028933841E-012
                   10                    4                    2                    9  -1.0717728787801306E-012
                   10                    4                    3                    9  -1.1188428655772853E-012
                   10                    4                    4                    7  -1.5743101267062798E-012
                   10                    4                    4                    8  -2.7862920304322358E-012
                   10                    4                    4                   10  -2.9471980411699406E-012
                   10                    4                    7                    4   1.3681521193742441E-012
                   10                    4                    8                    4   3.4438008000847731E-012
                   10                    4                    9                    2   1.2104865720896640E-012
                   10                    4                    9                    5   1.4484420607363546E-012
                   10                    5                    2                    7  -3.1208785555847385E-012
                   10                    5                    3                    8  -3.7144315401249628E-012
                   10                    5                    3                   10  -2.2472336491663469E-012
                   10                    5                    4                    9  -2.2788264331108365E-012
                   10                    5                    5                    7  -1.7966149401527076E-012
                   10                    5                    7                    2   3.1208785555847385E-012
                   10                    5                    8                    3   3.7145009290640019E-012
                   10                    5                    8                    5   3.7323755197604669E-012
                   10                    5                    9                    4   2.2788264331108365E-012
                   10                    5                   10                    2   1.3530556883245559E-012
                   10                    5                   10                    3  -1.0148167028933841E-012
                   10                    8                    8                   10  -1.9368395776098168E-012
                   10                    8                   10                   10   1.4851576188755208E-012
                   10                    9                    8                    9   2.3244878244454981E-012
                   10                    9                    9                    8  -1.9858351074653058E-012
                   10                    9                    9                   10  -1.4981349494291862E-012
                   10                   10                    8                   10   1.4851582024812214E-012
                   10                   10                   10                    8  -1.4851576188755208E-012
 TWO-BODY ANTISYMMETRY CHECK
 TRANSFORMED ~FOCK~ MATRIX
    1    1       -20.5627498682
    1    2        -0.0049734821
    1    3         0.0024347477
    1    5         0.0013286226
    1    6         0.0007870845
    1    7         0.0012615630
    1    8        -0.0000261304
    2    1        -0.0049734821
    2    2        -1.2928754214
    2    3        -0.0042625761
    2    5        -0.0013132378
    2    6         0.0028756742
    2    7        -0.0003147626
    2    8         0.0015025458
    3    1         0.0024347477
    3    2        -0.0042625761
    3    3        -0.6655265442
    3    5        -0.0012826387
    3    6        -0.0055882430
    3    7        -0.0009058722
    3    8        -0.0012969808
    4    4        -0.5330657982
    5    1         0.0013286226
    5    2        -0.0013132378
    5    3        -0.0012826387
    5    5        -0.4801539302
    5    6         0.0107872022
    5    7        -0.0035456731
    5    8         0.0018326631
    6    1         0.0007870845
    6    2         0.0028756742
    6    3        -0.0055882430
    6    5         0.0107872022
    6    6         0.0351245022
    6    7        -0.0009375509
    6    8         0.0018826885
    7    1         0.0012615630
    7    2        -0.0003147626
    7    3        -0.0009058722
    7    5        -0.0035456731
    7    6        -0.0009375509
    7    7         0.2288824679
    7    8         0.0009852531
    8    1        -0.0000261304
    8    2         0.0015025458
    8    3        -0.0012969808
    8    5         0.0018326631
    8    6         0.0018826885
    8    7         0.0009852531
    8    8         0.6190916291
 begin_one_electron_integrals
    1    1       -32.7633989778
    1    2         0.5871085984
    1    3        -0.1567259981
    1    5        -0.0600207740
    1    6        -0.0994486253
    1    7        -0.1234627567
    1    8        -0.0106334662
    2    1         0.5871085984
    2    2        -7.6675337576
    2    3         0.2005956627
    2    5         0.2365775678
    2    6         0.4280464690
    2    7         0.6546534122
    2    8         0.0373790465
    3    1        -0.1567259981
    3    2         0.2005956627
    3    3        -6.5823653443
    3    5        -0.3436539329
    3    6        -0.3680863170
    3    7         0.7460284404
    3    8         0.0615161416
    4    4        -6.9529637773
    5    1        -0.0600207740
    5    2         0.2365775678
    5    3        -0.3436539329
    5    5        -5.5243813585
    5    6         1.6222652600
    5    7        -0.2313178122
    5    8         0.1072411957
    6    1        -0.0994486253
    6    2         0.4280464690
    6    3        -0.3680863170
    6    5         1.6222652600
    6    6        -4.3537317984
    6    7         0.1155779781
    6    8        -0.6265377395
    7    1        -0.1234627567
    7    2         0.6546534122
    7    3         0.7460284404
    7    5        -0.2313178122
    7    6         0.1155779781
    7    7        -3.2643742853
    7    8         0.1009841351
    8    1        -0.0106334662
    8    2         0.0373790465
    8    3         0.0615161416
    8    5         0.1072411957
    8    6        -0.6265377395
    8    7         0.1009841351
    8    8        -2.1631512880
 end_one_electron_integrals
 begin_two_electron_integrals
    1    1    1    1        4.7402866889
    1    1    1    2       -0.4420685874
    1    1    1    3        0.1194637799
    1    1    1    5        0.0493726708
    1    1    1    6        0.0782891983
    1    1    1    7        0.1014491990
    1    1    1    8        0.0081912765
    1    2    1    1       -0.4420685874
    1    2    1    2        0.0649494065
    1    2    1    3       -0.0148331188
    1    2    1    5       -0.0071367465
    1    2    1    6       -0.0117664375
    1    2    1    7       -0.0173490999
    1    2    1    8       -0.0012649607
    1    3    1    1        0.1194637799
    1    3    1    2       -0.0148331188
    1    3    1    3        0.0231837589
    1    3    1    5        0.0042552899
    1    3    1    6        0.0046164387
    1    3    1    7       -0.0055936633
    1    3    1    8       -0.0001372697
    1    4    1    4        0.0283030857
    1    5    1    1        0.0493726708
    1    5    1    2       -0.0071367465
    1    5    1    3        0.0042552899
    1    5    1    5        0.0166278394
    1    5    1    6       -0.0122793826
    1    5    1    7        0.0027372664
    1    5    1    8       -0.0036925389
    1    6    1    1        0.0782891983
    1    6    1    2       -0.0117664375
    1    6    1    3        0.0046164387
    1    6    1    5       -0.0122793826
    1    6    1    6        0.0142748354
    1    6    1    7        0.0003738771
    1    6    1    8        0.0034705235
    1    7    1    1        0.1014491990
    1    7    1    2       -0.0173490999
    1    7    1    3       -0.0055936633
    1    7    1    5        0.0027372664
    1    7    1    6        0.0003738771
    1    7    1    7        0.0088879148
    1    7    1    8        0.0000080791
    1    8    1    1        0.0081912765
    1    8    1    2       -0.0012649607
    1    8    1    3       -0.0001372697
    1    8    1    5       -0.0036925389
    1    8    1    6        0.0034705235
    1    8    1    7        0.0000080791
    1    8    1    8        0.0009453842
    1    1    2    1       -0.4420685874
    1    1    2    2        1.0691348474
    1    1    2    3       -0.0747803825
    1    1    2    5       -0.0608604946
    1    1    2    6       -0.0874088551
    1    1    2    7       -0.1395523650
    1    1    2    8       -0.0094422253
    1    2    2    1        0.0673307776
    1    2    2    2       -0.0163043251
    1    2    2    3        0.0072269621
    1    2    2    5        0.0021825082
    1    2    2    6        0.0024274707
    1    2    2    7        0.0017347933
    1    2    2    8        0.0001956461
    1    3    2    1       -0.0146412572
    1    3    2    2        0.0134542947
    1    3    2    3        0.0213906517
    1    3    2    5        0.0014264903
    1    3    2    6        0.0004780156
    1    3    2    7       -0.0102328152
    1    3    2    8       -0.0005711563
    1    4    2    4        0.0302963606
    1    5    2    1       -0.0070841353
    1    5    2    2        0.0028798587
    1    5    2    3        0.0019928072
    1    5    2    5        0.0172896943
    1    5    2    6       -0.0137977259
    1    5    2    7        0.0004692880
    1    5    2    8       -0.0027257500
    1    6    2    1       -0.0124689873
    1    6    2    2        0.0032581343
    1    6    2    3        0.0012340688
    1    6    2    5       -0.0151931264
    1    6    2    6        0.0118635093
    1    6    2    7       -0.0028886616
    1    6    2    8        0.0023137487
    1    7    2    1       -0.0184000826
    1    7    2    2       -0.0008622532
    1    7    2    3       -0.0116551949
    1    7    2    5        0.0008762769
    1    7    2    6       -0.0027361783
    1    7    2    7        0.0043048306
    1    7    2    8       -0.0001581492
    1    8    2    1       -0.0013350653
    1    8    2    2        0.0000746713
    1    8    2    3       -0.0005461282
    1    8    2    5       -0.0038832243
    1    8    2    6        0.0029873930
    1    8    2    7       -0.0002539050
    1    8    2    8        0.0006421528
    1    1    3    1        0.1194637799
    1    1    3    2       -0.0747803825
    1    1    3    3        0.9273689866
    1    1    3    5        0.0765174850
    1    1    3    6        0.0671551667
    1    1    3    7       -0.1428665815
    1    1    3    8       -0.0078730072
    1    2    3    1       -0.0146412572
    1    2    3    2        0.0074950282
    1    2    3    3       -0.0109817887
    1    2    3    5       -0.0019744967
    1    2    3    6       -0.0015319965
    1    2    3    7        0.0005978109
    1    2    3    8       -0.0000715128
    1    3    3    1        0.0261444178
    1    3    3    2        0.0224615408
    1    3    3    3       -0.0040031687
    1    3    3    5       -0.0020023476
    1    3    3    6       -0.0027877000
    1    3    3    7       -0.0008846536
    1    3    3    8       -0.0000938663
    1    4    3    4       -0.0079847348
    1    5    3    1        0.0044020841
    1    5    3    2        0.0019817316
    1    5    3    3        0.0004340630
    1    5    3    5       -0.0052204310
    1    5    3    6        0.0029998787
    1    5    3    7       -0.0007039277
    1    5    3    8        0.0000696783
    1    6    3    1        0.0049971305
    1    6    3    2        0.0012825336
    1    6    3    3        0.0007560010
    1    6    3    5        0.0045167506
    1    6    3    6       -0.0030128764
    1    6    3    7        0.0004724419
    1    6    3    8       -0.0001076386
    1    7    3    1       -0.0065292189
    1    7    3    2       -0.0119827241
    1    7    3    3        0.0054474078
    1    7    3    5        0.0008974646
    1    7    3    6        0.0022639594
    1    7    3    7        0.0005547811
    1    7    3    8        0.0001205583
    1    8    3    1       -0.0001771677
    1    8    3    2       -0.0005442913
    1    8    3    3        0.0003187006
    1    8    3    5        0.0011584396
    1    8    3    6       -0.0005874377
    1    8    3    7        0.0001510054
    1    8    3    8       -0.0000266485
    1    1    4    4        1.0510776082
    1    2    4    4       -0.0124820373
    1    3    4    4        0.0039764202
    1    4    4    1        0.0310654423
    1    4    4    2        0.0308577507
    1    4    4    3       -0.0082720460
    1    4    4    5       -0.0032411028
    1    4    4    6       -0.0048743319
    1    4    4    7       -0.0053199800
    1    4    4    8       -0.0011155821
    1    5    4    4        0.0015018167
    1    6    4    4        0.0015956797
    1    7    4    4        0.0017920179
    1    8    4    4        0.0000731639
    1    1    5    1        0.0493726708
    1    1    5    2       -0.0608604946
    1    1    5    3        0.0765174850
    1    1    5    5        0.7543263465
    1    1    5    6       -0.2954561463
    1    1    5    7        0.0410811479
    1    1    5    8       -0.0425258609
    1    2    5    1       -0.0070841353
    1    2    5    2        0.0022661663
    1    2    5    3       -0.0019425418
    1    2    5    5       -0.0076143227
    1    2    5    6        0.0021448096
    1    2    5    7       -0.0004671811
    1    2    5    8        0.0008933328
    1    3    5    1        0.0044020841
    1    3    5    2        0.0014500916
    1    3    5    3       -0.0018523197
    1    3    5    5        0.0011236040
    1    3    5    6       -0.0020731744
    1    3    5    7        0.0009810190
    1    3    5    8       -0.0009712323
    1    4    5    4       -0.0030523691
    1    5    5    1        0.0189125192
    1    5    5    2        0.0182335789
    1    5    5    3       -0.0055464128
    1    5    5    5       -0.0007156932
    1    5    5    6       -0.0003949319
    1    5    5    7       -0.0031912129
    1    5    5    8        0.0007556142
    1    6    5    1       -0.0144665949
    1    6    5    2       -0.0157305198
    1    6    5    3        0.0046503373
    1    6    5    5        0.0025486941
    1    6    5    6       -0.0000861000
    1    6    5    7        0.0033170189
    1    6    5    8       -0.0009557980
    1    7    5    1        0.0029374173
    1    7    5    2        0.0009290278
    1    7    5    3        0.0008475708
    1    7    5    5        0.0014298612
    1    7    5    6        0.0005508757
    1    7    5    7       -0.0007446572
    1    7    5    8        0.0002702735
    1    8    5    1       -0.0041966097
    1    8    5    2       -0.0040337448
    1    8    5    3        0.0011936089
    1    8    5    5        0.0006123999
    1    8    5    6        0.0000038281
    1    8    5    7        0.0008134722
    1    8    5    8       -0.0001743459
    1    1    6    1        0.0782891983
    1    1    6    2       -0.0874088551
    1    1    6    3        0.0671551667
    1    1    6    5       -0.2954561463
    1    1    6    6        0.5789261563
    1    1    6    7       -0.0243153984
    1    1    6    8        0.0907507085
    1    2    6    1       -0.0124689873
    1    2    6    2        0.0018776560
    1    2    6    3       -0.0013016581
    1    2    6    5        0.0011252286
    1    2    6    6       -0.0049534793
    1    2    6    7        0.0004984167
    1    2    6    8       -0.0011670895
    1    3    6    1        0.0049971305
    1    3    6    2        0.0006377106
    1    3    6    3       -0.0026418076
    1    3    6    5       -0.0018216007
    1    3    6    6        0.0007851560
    1    3    6    7        0.0016053263
    1    3    6    8        0.0006090786
    1    4    6    4       -0.0045220291
    1    5    6    1       -0.0144665949
    1    5    6    2       -0.0144070188
    1    5    6    3        0.0031748797
    1    5    6    5       -0.0002738684
    1    5    6    6        0.0059997611
    1    5    6    7        0.0025356205
    1    5    6    8        0.0011742504
    1    6    6    1        0.0138772689
    1    6    6    2        0.0110346957
    1    6    6    3       -0.0027625820
    1    6    6    5       -0.0005267795
    1    6    6    6       -0.0036669538
    1    6    6    7       -0.0018063916
    1    6    6    8       -0.0005834474
    1    7    6    1        0.0004060689
    1    7    6    2       -0.0027643066
    1    7    6    3        0.0020845483
    1    7    6    5        0.0001260394
    1    7    6    6        0.0017026626
    1    7    6    7       -0.0004489124
    1    7    6    8        0.0002044160
    1    8    6    1        0.0033436780
    1    8    6    2        0.0028507222
    1    8    6    3       -0.0005661736
    1    8    6    5       -0.0000679072
    1    8    6    6       -0.0009636451
    1    8    6    7       -0.0005525389
    1    8    6    8       -0.0001567818
    1    1    7    1        0.1014491990
    1    1    7    2       -0.1395523650
    1    1    7    3       -0.1428665815
    1    1    7    5        0.0410811479
    1    1    7    6       -0.0243153984
    1    1    7    7        0.4161535687
    1    1    7    8       -0.0108702134
    1    2    7    1       -0.0184000826
    1    2    7    2        0.0008548316
    1    2    7    3       -0.0001086133
    1    2    7    5       -0.0003476614
    1    2    7    6        0.0004995751
    1    2    7    7       -0.0016672872
    1    2    7    8        0.0001134452
    1    3    7    1       -0.0065292189
    1    3    7    2       -0.0105818798
    1    3    7    3       -0.0006135966
    1    3    7    5        0.0010289673
    1    3    7    6        0.0016148684
    1    3    7    7        0.0065957572
    1    3    7    8        0.0004252747
    1    4    7    4       -0.0049226654
    1    5    7    1        0.0029374173
    1    5    7    2        0.0005642700
    1    5    7    3       -0.0006419295
    1    5    7    5       -0.0029621652
    1    5    7    6        0.0025051707
    1    5    7    7       -0.0001040696
    1    5    7    8        0.0005306798
    1    6    7    1        0.0004060689
    1    6    7    2       -0.0028943143
    1    6    7    3        0.0002349454
    1    6    7    5        0.0030053015
    1    6    7    6       -0.0017904003
    1    6    7    7        0.0016631040
    1    6    7    8       -0.0003699662
    1    7    7    1        0.0085687415
    1    7    7    2        0.0037518468
    1    7    7    3        0.0000549260
    1    7    7    5       -0.0006785557
    1    7    7    6       -0.0004582663
    1    7    7    7       -0.0021724809
    1    7    7    8       -0.0001285991
    1    8    7    1        0.0000063338
    1    8    7    2       -0.0002807806
    1    8    7    3        0.0001046418
    1    8    7    5        0.0007500552
    1    8    7    6       -0.0005464300
    1    8    7    7        0.0001553415
    1    8    7    8       -0.0001212392
    1    1    8    1        0.0081912765
    1    1    8    2       -0.0094422253
    1    1    8    3       -0.0078730072
    1    1    8    5       -0.0425258609
    1    1    8    6        0.0907507085
    1    1    8    7       -0.0108702134
    1    1    8    8        0.2727739159
    1    2    8    1       -0.0013350653
    1    2    8    2        0.0001329528
    1    2    8    3       -0.0001122710
    1    2    8    5        0.0007235717
    1    2    8    6       -0.0011593247
    1    2    8    7        0.0001140699
    1    2    8    8       -0.0004587550
    1    3    8    1       -0.0001771677
    1    3    8    2       -0.0005733723
    1    3    8    3       -0.0000458605
    1    3    8    5       -0.0008902522
    1    3    8    6        0.0005984859
    1    3    8    7        0.0004211847
    1    3    8    8       -0.0007447447
    1    4    8    4       -0.0010014552
    1    5    8    1       -0.0041966097
    1    5    8    2       -0.0028618044
    1    5    8    3        0.0001302441
    1    5    8    5        0.0007600968
    1    5    8    6        0.0011910725
    1    5    8    7        0.0005286844
    1    5    8    8        0.0025539367
    1    6    8    1        0.0033436780
    1    6    8    2        0.0021357540
    1    6    8    3       -0.0000853830
    1    6    8    5       -0.0009780275
    1    6    8    6       -0.0005910275
    1    6    8    7       -0.0003678621
    1    6    8    8       -0.0020258301
    1    7    8    1        0.0000063338
    1    7    8    2       -0.0001716970
    1    7    8    3        0.0000734067
    1    7    8    5        0.0002057086
    1    7    8    6        0.0002088139
    1    7    8    7       -0.0001286249
    1    7    8    8        0.0006819577
    1    8    8    1        0.0008953062
    1    8    8    2        0.0005879859
    1    8    8    3       -0.0000174516
    1    8    8    5       -0.0001879362
    1    8    8    6       -0.0001594375
    1    8    8    7       -0.0001230805
    1    8    8    8       -0.0004523228
    2    1    1    1       -0.4420685874
    2    1    1    2        0.0673307776
    2    1    1    3       -0.0146412572
    2    1    1    5       -0.0070841353
    2    1    1    6       -0.0124689873
    2    1    1    7       -0.0184000826
    2    1    1    8       -0.0013350653
    2    2    1    1        1.0691348474
    2    2    1    2       -0.0163043251
    2    2    1    3        0.0134542947
    2    2    1    5        0.0028798587
    2    2    1    6        0.0032581343
    2    2    1    7       -0.0008622532
    2    2    1    8        0.0000746713
    2    3    1    1       -0.0747803825
    2    3    1    2        0.0072269621
    2    3    1    3        0.0213906517
    2    3    1    5        0.0019928072
    2    3    1    6        0.0012340688
    2    3    1    7       -0.0116551949
    2    3    1    8       -0.0005461282
    2    4    1    4        0.0302963606
    2    5    1    1       -0.0608604946
    2    5    1    2        0.0021825082
    2    5    1    3        0.0014264903
    2    5    1    5        0.0172896943
    2    5    1    6       -0.0151931264
    2    5    1    7        0.0008762769
    2    5    1    8       -0.0038832243
    2    6    1    1       -0.0874088551
    2    6    1    2        0.0024274707
    2    6    1    3        0.0004780156
    2    6    1    5       -0.0137977259
    2    6    1    6        0.0118635093
    2    6    1    7       -0.0027361783
    2    6    1    8        0.0029873930
    2    7    1    1       -0.1395523650
    2    7    1    2        0.0017347933
    2    7    1    3       -0.0102328152
    2    7    1    5        0.0004692880
    2    7    1    6       -0.0028886616
    2    7    1    7        0.0043048306
    2    7    1    8       -0.0002539050
    2    8    1    1       -0.0094422253
    2    8    1    2        0.0001956461
    2    8    1    3       -0.0005711563
    2    8    1    5       -0.0027257500
    2    8    1    6        0.0023137487
    2    8    1    7       -0.0001581492
    2    8    1    8        0.0006421528
    2    1    2    1        0.0649494065
    2    1    2    2       -0.0163043251
    2    1    2    3        0.0074950282
    2    1    2    5        0.0022661663
    2    1    2    6        0.0018776560
    2    1    2    7        0.0008548316
    2    1    2    8        0.0001329528
    2    2    2    1       -0.0163043251
    2    2    2    2        0.7591036482
    2    2    2    3        0.0248116643
    2    2    2    5       -0.0262313851
    2    2    2    6       -0.0422083070
    2    2    2    7       -0.0845288717
    2    2    2    8       -0.0037459454
    2    3    2    1        0.0074950282
    2    3    2    2        0.0248116643
    2    3    2    3        0.1328991050
    2    3    2    5        0.0096822168
    2    3    2    6        0.0123729717
    2    3    2    7       -0.0278935396
    2    3    2    8       -0.0009645371
    2    4    2    4        0.1278505324
    2    5    2    1        0.0022661663
    2    5    2    2       -0.0262313851
    2    5    2    3        0.0096822168
    2    5    2    5        0.0842985030
    2    5    2    6       -0.0565685691
    2    5    2    7        0.0106529647
    2    5    2    8       -0.0083547355
    2    6    2    1        0.0018776560
    2    6    2    2       -0.0422083070
    2    6    2    3        0.0123729717
    2    6    2    5       -0.0565685691
    2    6    2    6        0.0595439128
    2    6    2    7        0.0004646871
    2    6    2    8        0.0106362765
    2    7    2    1        0.0008548316
    2    7    2    2       -0.0845288717
    2    7    2    3       -0.0278935396
    2    7    2    5        0.0106529647
    2    7    2    6        0.0004646871
    2    7    2    7        0.0382842561
    2    7    2    8        0.0005524757
    2    8    2    1        0.0001329528
    2    8    2    2       -0.0037459454
    2    8    2    3       -0.0009645371
    2    8    2    5       -0.0083547355
    2    8    2    6        0.0106362765
    2    8    2    7        0.0005524757
    2    8    2    8        0.0036680638
    2    1    3    1       -0.0148331188
    2    1    3    2        0.0072269621
    2    1    3    3       -0.0109817887
    2    1    3    5       -0.0019425418
    2    1    3    6       -0.0013016581
    2    1    3    7       -0.0001086133
    2    1    3    8       -0.0001122710
    2    2    3    1        0.0134542947
    2    2    3    2        0.0248116643
    2    2    3    3        0.6750653125
    2    2    3    5        0.0391918289
    2    2    3    6        0.0397571167
    2    2    3    7       -0.0815195255
    2    2    3    8       -0.0056203740
    2    3    3    1        0.0224615408
    2    3    3    2        0.1386058304
    2    3    3    3       -0.0221840206
    2    3    3    5       -0.0083311901
    2    3    3    6       -0.0079234479
    2    3    3    7        0.0186651218
    2    3    3    8        0.0028389548
    2    4    3    4       -0.0272028314
    2    5    3    1        0.0014500916
    2    5    3    2        0.0100278825
    2    5    3    3       -0.0251713213
    2    5    3    5       -0.0278069800
    2    5    3    6        0.0035760891
    2    5    3    7        0.0053794843
    2    5    3    8       -0.0046746384
    2    6    3    1        0.0006377106
    2    6    3    2        0.0119991531
    2    6    3    3       -0.0380771778
    2    6    3    5        0.0088851642
    2    6    3    6       -0.0134532291
    2    6    3    7        0.0131003198
    2    6    3    8        0.0017442973
    2    7    3    1       -0.0105818798
    2    7    3    2       -0.0275985096
    2    7    3    3       -0.0441868697
    2    7    3    5       -0.0040867342
    2    7    3    6        0.0028682364
    2    7    3    7        0.0244973623
    2    7    3    8        0.0022692695
    2    8    3    1       -0.0005733723
[...]
    7    7    8    3        0.0009172323
    7    7    8    5       -0.0036819856
    7    7    8    6        0.0257408660
    7    7    8    7        0.0018358536
    7    7    8    8        0.1983914640
    7    8    8    1       -0.0001230805
    7    8    8    2       -0.0011496109
    7    8    8    3        0.0036036705
    7    8    8    5       -0.0108745209
    7    8    8    6       -0.0128611319
    7    8    8    7        0.0048130538
    7    8    8    8       -0.0246755193
    8    1    1    1        0.0081912765
    8    1    1    2       -0.0013350653
    8    1    1    3       -0.0001771677
    8    1    1    5       -0.0041966097
    8    1    1    6        0.0033436780
    8    1    1    7        0.0000063338
    8    1    1    8        0.0008953062
    8    2    1    1       -0.0094422253
    8    2    1    2        0.0001329528
    8    2    1    3       -0.0005733723
    8    2    1    5       -0.0028618044
    8    2    1    6        0.0021357540
    8    2    1    7       -0.0001716970
    8    2    1    8        0.0005879859
    8    3    1    1       -0.0078730072
    8    3    1    2       -0.0001122710
    8    3    1    3       -0.0000458605
    8    3    1    5        0.0001302441
    8    3    1    6       -0.0000853830
    8    3    1    7        0.0000734067
    8    3    1    8       -0.0000174516
    8    4    1    4       -0.0010014552
    8    5    1    1       -0.0425258609
    8    5    1    2        0.0007235717
    8    5    1    3       -0.0008902522
    8    5    1    5        0.0007600968
    8    5    1    6       -0.0009780275
    8    5    1    7        0.0002057086
    8    5    1    8       -0.0001879362
    8    6    1    1        0.0907507085
    8    6    1    2       -0.0011593247
    8    6    1    3        0.0005984859
    8    6    1    5        0.0011910725
    8    6    1    6       -0.0005910275
    8    6    1    7        0.0002088139
    8    6    1    8       -0.0001594375
    8    7    1    1       -0.0108702134
    8    7    1    2        0.0001140699
    8    7    1    3        0.0004211847
    8    7    1    5        0.0005286844
    8    7    1    6       -0.0003678621
    8    7    1    7       -0.0001286249
    8    7    1    8       -0.0001230805
    8    8    1    1        0.2727739159
    8    8    1    2       -0.0004587550
    8    8    1    3       -0.0007447447
    8    8    1    5        0.0025539367
    8    8    1    6       -0.0020258301
    8    8    1    7        0.0006819577
    8    8    1    8       -0.0004523228
    8    1    2    1       -0.0012649607
    8    1    2    2        0.0000746713
    8    1    2    3       -0.0005442913
    8    1    2    5       -0.0040337448
    8    1    2    6        0.0028507222
    8    1    2    7       -0.0002807806
    8    1    2    8        0.0005879859
    8    2    2    1        0.0001956461
    8    2    2    2       -0.0037459454
    8    2    2    3       -0.0008962826
    8    2    2    5       -0.0083760600
    8    2    2    6        0.0093089613
    8    2    2    7        0.0005270129
    8    2    2    8        0.0031111182
    8    3    2    1       -0.0000715128
    8    3    2    2       -0.0056203740
    8    3    2    3        0.0027783689
    8    3    2    5       -0.0047648368
    8    3    2    6        0.0015700826
    8    3    2    7        0.0016744145
    8    3    2    8       -0.0015480330
    8    4    2    4       -0.0053553790
    8    5    2    1        0.0008933328
    8    5    2    2       -0.0156980038
    8    5    2    3       -0.0067700972
    8    5    2    5        0.0153240618
    8    5    2    6        0.0019615116
    8    5    2    7        0.0048481011
    8    5    2    8        0.0072166890
    8    6    2    1       -0.0011670895
    8    6    2    2        0.0620384872
    8    6    2    3       -0.0034120484
    8    6    2    5        0.0096472866
    8    6    2    6       -0.0035770315
    8    6    2    7       -0.0069594150
    8    6    2    8        0.0065038575
    8    7    2    1        0.0001134452
    8    7    2    2       -0.0079693180
    8    7    2    3        0.0053032635
    8    7    2    5       -0.0009012127
    8    7    2    6       -0.0005678560
    8    7    2    7        0.0010255232
    8    7    2    8       -0.0011496109
    8    8    2    1       -0.0004587550
    8    8    2    2        0.2602507056
    8    8    2    3       -0.0205430563
    8    8    2    5        0.0402869631
    8    8    2    6       -0.0071208531
    8    8    2    7       -0.0058461580
    8    8    2    8        0.0123252445
    8    1    3    1       -0.0001372697
    8    1    3    2       -0.0005461282
    8    1    3    3        0.0003187006
    8    1    3    5        0.0011936089
    8    1    3    6       -0.0005661736
    8    1    3    7        0.0001046418
    8    1    3    8       -0.0000174516
    8    2    3    1       -0.0005711563
    8    2    3    2       -0.0009645371
    8    2    3    3       -0.0009930082
    8    2    3    5       -0.0010685205
    8    2    3    6       -0.0014751729
    8    2    3    7        0.0020834830
    8    2    3    8       -0.0015480330
    8    3    3    1       -0.0000938663
    8    3    3    2        0.0028389548
    8    3    3    3       -0.0047819151
    8    3    3    5        0.0016447705
    8    3    3    6        0.0056636561
    8    3    3    7        0.0017711608
    8    3    3    8        0.0058372494
    8    4    3    4        0.0010227215
    8    5    3    1       -0.0009712323
    8    5    3    2       -0.0069826022
    8    5    3    3       -0.0070153451
    8    5    3    5       -0.0184616782
    8    5    3    6       -0.0113489238
    8    5    3    7        0.0033798773
    8    5    3    8       -0.0157072329
    8    6    3    1        0.0006090786
    8    6    3    2       -0.0033697816
    8    6    3    3        0.0564998762
    8    6    3    5       -0.0101178098
    8    6    3    6       -0.0052143475
    8    6    3    7       -0.0056837816
    8    6    3    8       -0.0163778607
    8    7    3    1        0.0004252747
    8    7    3    2        0.0053163786
    8    7    3    3       -0.0072479540
    8    7    3    5        0.0023418786
    8    7    3    6        0.0018780852
    8    7    3    7        0.0031656362
    8    7    3    8        0.0036036705
    8    8    3    1       -0.0007447447
    8    8    3    2       -0.0205430563
    8    8    3    3        0.2631137362
    8    8    3    5       -0.0392499728
    8    8    3    6       -0.0265201631
    8    8    3    7       -0.0102339335
    8    8    3    8       -0.0333076111
    8    1    4    4        0.0000731639
    8    2    4    4       -0.0051255457
    8    3    4    4       -0.0051512585
    8    4    4    1       -0.0011155821
    8    4    4    2       -0.0055973241
    8    4    4    3        0.0011631733
    8    4    4    5       -0.0031254331
    8    4    4    6        0.0033576928
    8    4    4    7       -0.0002477887
    8    4    4    8        0.0011984539
    8    5    4    4       -0.0139317781
    8    6    4    4        0.0572274597
    8    7    4    4       -0.0095683708
    8    8    4    4        0.2578952399
    8    1    5    1       -0.0036925389
    8    1    5    2       -0.0038832243
    8    1    5    3        0.0011584396
    8    1    5    5        0.0006123999
    8    1    5    6       -0.0000679072
    8    1    5    7        0.0007500552
    8    1    5    8       -0.0001879362
    8    2    5    1       -0.0027257500
    8    2    5    2       -0.0083547355
    8    2    5    3       -0.0009914263
    8    2    5    5        0.0053637858
    8    2    5    6        0.0066456119
    8    2    5    7        0.0008753873
    8    2    5    8        0.0072166890
    8    3    5    1        0.0000696783
    8    3    5    2       -0.0046746384
    8    3    5    3        0.0018156608
    8    3    5    5       -0.0195865302
    8    3    5    6       -0.0114221859
    8    3    5    7        0.0022004754
    8    3    5    8       -0.0157072329
    8    4    5    4       -0.0027680776
    8    5    5    1        0.0007556142
    8    5    5    2        0.0158300033
    8    5    5    3       -0.0185208557
    8    5    5    5        0.0388801110
    8    5    5    6        0.0553486119
    8    5    5    7       -0.0090082240
    8    5    5    8        0.0596214297
    8    6    5    1        0.0011742504
    8    6    5    2        0.0095556423
    8    6    5    3       -0.0099864855
    8    6    5    5        0.0862049826
    8    6    5    6        0.0188647988
    8    6    5    7       -0.0039576400
    8    6    5    8        0.0562828110
    8    7    5    1        0.0005306798
    8    7    5    2       -0.0008715071
    8    7    5    3        0.0022964391
    8    7    5    5       -0.0178193373
    8    7    5    6       -0.0063288370
    8    7    5    7       -0.0006270348
    8    7    5    8       -0.0108745209
    8    8    5    1        0.0025539367
    8    8    5    2        0.0402869631
    8    8    5    3       -0.0392499728
    8    8    5    5        0.3724196396
    8    8    5    6        0.1142632852
    8    8    5    7       -0.0172742433
    8    8    5    8        0.1116812408
    8    1    6    1        0.0034705235
    8    1    6    2        0.0029873930
    8    1    6    3       -0.0005874377
    8    1    6    5        0.0000038281
    8    1    6    6       -0.0009636451
    8    1    6    7       -0.0005464300
    8    1    6    8       -0.0001594375
    8    2    6    1        0.0023137487
    8    2    6    2        0.0106362765
    8    2    6    3       -0.0012297756
    8    2    6    5        0.0063028859
    8    2    6    6        0.0033821538
    8    2    6    7       -0.0026286155
    8    2    6    8        0.0065038575
    8    3    6    1       -0.0001076386
    8    3    6    2        0.0017442973
    8    3    6    3        0.0059957157
    8    3    6    5       -0.0109957509
    8    3    6    6       -0.0194514331
    8    3    6    7        0.0032064582
    8    3    6    8       -0.0163778607
    8    4    6    4        0.0040709074
    8    5    6    1       -0.0009557980
    8    5    6    2        0.0021765322
    8    5    6    3       -0.0109223598
    8    5    6    5        0.0560273448
    8    5    6    6        0.0498124610
    8    5    6    7       -0.0103556229
    8    5    6    8        0.0562828110
    8    6    6    1       -0.0005834474
    8    6    6    2       -0.0037572771
    8    6    6    3       -0.0050990993
    8    6    6    5        0.0183839927
    8    6    6    6        0.0807533658
    8    6    6    7       -0.0092309875
    8    6    6    8        0.0704109715
    8    7    6    1       -0.0003699662
    8    7    6    2       -0.0005079104
    8    7    6    3        0.0019511821
    8    7    6    5       -0.0063325577
    8    7    6    6       -0.0162154005
    8    7    6    7        0.0034809720
    8    7    6    8       -0.0128611319
    8    8    6    1       -0.0020258301
    8    8    6    2       -0.0071208531
    8    8    6    3       -0.0265201631
    8    8    6    5        0.1142632852
    8    8    6    6        0.4043820684
    8    8    6    7       -0.0389057210
    8    8    6    8        0.1103416331
    8    1    7    1        0.0000080791
    8    1    7    2       -0.0002539050
    8    1    7    3        0.0001510054
    8    1    7    5        0.0008134722
    8    1    7    6       -0.0005525389
    8    1    7    7        0.0001553415
    8    1    7    8       -0.0001230805
    8    2    7    1       -0.0001581492
    8    2    7    2        0.0005524757
    8    2    7    3        0.0022966801
    8    2    7    5        0.0016861589
    8    2    7    6       -0.0027868834
    8    2    7    7        0.0009929084
    8    2    7    8       -0.0011496109
    8    3    7    1        0.0001205583
    8    3    7    2        0.0022692695
    8    3    7    3        0.0024659988
    8    3    7    5        0.0024029589
    8    3    7    6        0.0031881810
    8    3    7    7        0.0009172323
    8    3    7    8        0.0036036705
    8    4    7    4       -0.0001153805
    8    5    7    1        0.0002702735
    8    5    7    2        0.0051716168
    8    5    7    3        0.0031387199
    8    5    7    5       -0.0092385797
    8    5    7    6       -0.0102505869
    8    5    7    7       -0.0036819856
    8    5    7    8       -0.0108745209
    8    6    7    1        0.0002044160
    8    6    7    2       -0.0071074685
    8    6    7    3       -0.0056542589
    8    6    7    5       -0.0038458509
    8    6    7    6       -0.0092324015
    8    6    7    7        0.0257408660
    8    6    7    8       -0.0128611319
    8    7    7    1       -0.0001285991
    8    7    7    2        0.0009426872
    8    7    7    3        0.0031264652
    8    7    7    5       -0.0006229969
    8    7    7    6        0.0034759704
    8    7    7    7        0.0018358536
    8    7    7    8        0.0048130538
    8    8    7    1        0.0006819577
    8    8    7    2       -0.0058461580
    8    8    7    3       -0.0102339335
    8    8    7    5       -0.0172742433
    8    8    7    6       -0.0389057210
    8    8    7    7        0.1983914640
    8    8    7    8       -0.0246755193
    8    1    8    1        0.0009453842
    8    1    8    2        0.0006421528
    8    1    8    3       -0.0000266485
    8    1    8    5       -0.0001743459
    8    1    8    6       -0.0001567818
    8    1    8    7       -0.0001212392
    8    1    8    8       -0.0004523228
    8    2    8    1        0.0006421528
    8    2    8    2        0.0036680638
    8    2    8    3       -0.0013441130
    8    2    8    5        0.0071868159
    8    2    8    6        0.0064852666
    8    2    8    7       -0.0011067936
    8    2    8    8        0.0123252445
    8    3    8    1       -0.0000266485
    8    3    8    2       -0.0013441130
    8    3    8    3        0.0061392613
    8    3    8    5       -0.0154354341
    8    3    8    6       -0.0162621533
    8    3    8    7        0.0035779050
    8    3    8    8       -0.0333076111
    8    4    8    4        0.0014096054
    8    5    8    1       -0.0001743459
    8    5    8    2        0.0071868159
    8    5    8    3       -0.0154354341
    8    5    8    5        0.0597343071
    8    5    8    6        0.0562564167
    8    5    8    7       -0.0109178482
    8    5    8    8        0.1116812408
    8    6    8    1       -0.0001567818
    8    6    8    2        0.0064852666
    8    6    8    3       -0.0162621533
    8    6    8    5        0.0562564167
    8    6    8    6        0.0703210010
    8    6    8    7       -0.0128371257
    8    6    8    8        0.1103416331
    8    7    8    1       -0.0001212392
    8    7    8    2       -0.0011067936
    8    7    8    3        0.0035779050
    8    7    8    5       -0.0109178482
    8    7    8    6       -0.0128371257
    8    7    8    7        0.0048090819
    8    7    8    8       -0.0246755193
    8    8    8    1       -0.0004523228
    8    8    8    2        0.0123252445
    8    8    8    3       -0.0333076111
    8    8    8    5        0.1116812408
    8    8    8    6        0.1103416331
    8    8    8    7       -0.0246755193
    8    8    8    8        0.5152129843
 end_two_electron_integrals

 Parallel integral file used       1 records with       0 large values


 Task  times  cpu:        6.0s     wall:        6.1s


                                NWChem Input Module
                                -------------------


 Summary of allocated global arrays
-----------------------------------
  No active global arrays


MA_summarize_allocated_blocks: starting scan ...
MA_summarize_allocated_blocks: scan completed: 0 heap blocks, 0 stack blocks
MA usage statistics:

	allocation statistics:
					      heap	     stack
					      ----	     -----
	current number of blocks	         0	         0
	maximum number of blocks	        17	        42
	current total bytes		         0	         0
	maximum total bytes		   2110096	 141357496
	maximum total K-bytes		      2111	    141358
	maximum total M-bytes		         3	       142


                                     CITATION
                                     --------
                Please cite the following reference when publishing
                           results obtained with NWChem:

          E. Apra, E. J. Bylaska, W. A. de Jong, N. Govind, K. Kowalski,
       T. P. Straatsma, M. Valiev, H. J. J. van Dam, Y. Alexeev, J. Anchell,
       V. Anisimov, F. W. Aquino, R. Atta-Fynn, J. Autschbach, N. P. Bauman,
     J. C. Becca, D. E. Bernholdt, K. Bhaskaran-Nair, S. Bogatko, P. Borowski,
         J. Boschen, J. Brabec, A. Bruner, E. Cauet, Y. Chen, G. N. Chuev,
      C. J. Cramer, J. Daily, M. J. O. Deegan, T. H. Dunning Jr., M. Dupuis,
   K. G. Dyall, G. I. Fann, S. A. Fischer, A. Fonari, H. Fruchtl, L. Gagliardi,
      J. Garza, N. Gawande, S. Ghosh, K. Glaesemann, A. W. Gotz, J. Hammond,
       V. Helms, E. D. Hermes, K. Hirao, S. Hirata, M. Jacquelin, L. Jensen,
   B. G. Johnson, H. Jonsson, R. A. Kendall, M. Klemm, R. Kobayashi, V. Konkov,
      S. Krishnamoorthy, M. Krishnan, Z. Lin, R. D. Lins, R. J. Littlefield,
      A. J. Logsdail, K. Lopata, W. Ma, A. V. Marenich, J. Martin del Campo,
   D. Mejia-Rodriguez, J. E. Moore, J. M. Mullin, T. Nakajima, D. R. Nascimento,
    J. A. Nichols, P. J. Nichols, J. Nieplocha, A. Otero-de-la-Roza, B. Palmer,
    A. Panyala, T. Pirojsirikul, B. Peng, R. Peverati, J. Pittner, L. Pollack,
   R. M. Richard, P. Sadayappan, G. C. Schatz, W. A. Shelton, D. W. Silverstein,
   D. M. A. Smith, T. A. Soares, D. Song, M. Swart, H. L. Taylor, G. S. Thomas,
            V. Tipparaju, D. G. Truhlar, K. Tsemekhman, T. Van Voorhis,
      A. Vazquez-Mayagoitia, P. Verma, O. Villa, A. Vishnu, K. D. Vogiatzis,
        D. Wang, J. H. Weare, M. J. Williamson, T. L. Windus, K. Wolinski,
        A. T. Wong, Q. Wu, C. Yang, Q. Yu, M. Zacharias, Z. Zhang, Y. Zhao,
                                and R. J. Harrison
                        "NWChem: Past, present, and future
                         J. Chem. Phys. 152, 184102 (2020)
                               doi:10.1063/5.0004997

                                      AUTHORS
                                      -------
  E. Apra, E. J. Bylaska, N. Govind, K. Kowalski, M. Valiev, D. Mejia-Rodriguez,
       A. Kunitsa, N. P. Bauman, A. Panyala, W. A. de Jong, T. P. Straatsma,
        H. J. J. van Dam, D. Wang, T. L. Windus, J. Hammond, J. Autschbach,
    K. Bhaskaran-Nair, J. Brabec, K. Lopata, S. A. Fischer, S. Krishnamoorthy,
     M. Jacquelin, W. Ma, M. Klemm, O. Villa, Y. Chen, V. Anisimov, F. Aquino,
    S. Hirata, M. T. Hackler, Eric Hermes, L. Jensen, J. E. Moore, J. C. Becca,
      V. Konjkov, T. Risthaus, M. Malagoli, A. Marenich, A. Otero-de-la-Roza,
        J. Mullin, P. Nichols, R. Peverati, J. Pittner, Y. Zhao, P.-D. Fan,
        A. Fonari, M. J. Williamson, R. J. Harrison, J. R. Rehr, M. Dupuis,
     D. Silverstein, D. M. A. Smith, J. Nieplocha, V. Tipparaju, M. Krishnan,
     B. E. Van Kuiken, A. Vazquez-Mayagoitia, M. Swart, Q. Wu, T. Van Voorhis,
     A. A. Auer, M. Nooijen, L. D. Crosby, E. Brown, G. Cisneros, G. I. Fann,
   H. Fruchtl, J. Garza, K. Hirao, R. A. Kendall, J. A. Nichols, K. Tsemekhman,
    K. Wolinski, J. Anchell, D. E. Bernholdt, P. Borowski, T. Clark, D. Clerc,
   H. Dachsel, M. J. O. Deegan, K. Dyall, D. Elwood, E. Glendening, M. Gutowski,
   A. C. Hess, J. Jaffe, B. G. Johnson, J. Ju, R. Kobayashi, R. Kutteh, Z. Lin,
   R. Littlefield, X. Long, B. Meng, T. Nakajima, S. Niu, L. Pollack, M. Rosing,
   K. Glaesemann, G. Sandrone, M. Stave, H. Taylor, G. Thomas, J. H. van Lenthe,
                               A. T. Wong, Z. Zhang.

 Total times  cpu:        6.0s     wall:        6.1s
