 argument  1 = input.nw
  NWChem w/ OpenMP: maximum threads =    1



============================== echo of input deck ==============================
 echo
 start H2O
 title "H2O"

 memory total 24 gb

 geometry units bohr
 symmetry c1
        O  0.00000000  0.00000000  0.00000000
        H  0.00000000  2.07388125  0.00000000
        H  1.72558000 -0.64860000  0.00000000
 end

 basis spherical
   * library cc-pVTZ
 end

 mcscf
   active  8
   actelec 10
   multiplicity 1
   maxiter 40
   vectors input h2o.mos
   vectors output h2o.mos
 end

 task mcscf

 scf
   vectors input h2o.mos
   vectors output h2o-trash.mos
   noscf
 end

 tce
   2eorb
   2emet 13
   ccsd
 end

# set tce:print_integrals T
# set tce:qorb 8
# set tce:qela 5
# set tce:qelb 5

 set tce:qducc T
 set tce:nactv 3
 set tce:nonhf T
 set tce:ducc_model 3

 set tce:printtol 0.02

 task tce
================================================================================


                                         
                                         


             Northwest Computational Chemistry Package (NWChem) 7.0.1
             --------------------------------------------------------


                    Environmental Molecular Sciences Laboratory
                       Pacific Northwest National Laboratory
                                Richland, WA 99352

                              Copyright (c) 1994-2020
                       Pacific Northwest National Laboratory
                            Battelle Memorial Institute

             NWChem is an open-source computational chemistry package
                        distributed under the terms of the
                      Educational Community License (ECL) 2.0
             A copy of the license is included with this distribution
                              in the LICENSE.TXT file

                                  ACKNOWLEDGMENT
                                  --------------

            This software and its documentation were developed at the
            EMSL at Pacific Northwest National Laboratory, a multiprogram
            national laboratory, operated for the U.S. Department of Energy
            by Battelle under Contract Number DE-AC05-76RL01830. Support
            for this work was provided by the Department of Energy Office
            of Biological and Environmental Research, Office of Basic
            Energy Sciences, and the Office of Advanced Scientific Computing.


           Job information
           ---------------

    hostname        = WE46210
    program         = /home/baum612/code/nwchem/bin/LINUX64/nwchem
    date            = Tue Feb 20 11:45:43 2024

    compiled        = Fri_Feb_16_11:09:52_2024
    source          = /home/baum612/code/nwchem
    nwchem branch   = 7.0.0
    nwchem revision = nwchem_on_git-4191-g39d87d64de
    ga revision     = 5.8.1
    use scalapack   = F
    input           = input.nw
    prefix          = H2O.
    data base       = ./H2O.db
    status          = startup
    nproc           =        1
    time left       =     -1s



           Memory information
           ------------------

    heap     =  805306366 doubles =   6144.0 Mbytes
    stack    =  805306363 doubles =   6144.0 Mbytes
    global   = 1610612736 doubles =  12288.0 Mbytes (distinct from heap & stack)
    total    = 3221225465 doubles =  24576.0 Mbytes
    verify   = yes
    hardfail = no 


           Directory information
           ---------------------

  0 permanent = .
  0 scratch   = .




                                NWChem Input Module
                                -------------------


                                        H2O
                                        ---
 Turning off AUTOSYM since
 SYMMETRY directive was detected!


          ------
          auto-z
          ------
  no constraints, skipping    0.0000000000000000     
  no constraints, skipping    0.0000000000000000     


                             Geometry "geometry" -> ""
                             -------------------------

 Output coordinates in a.u. (scale by  1.000000000 to convert to a.u.)

  No.       Tag          Charge          X              Y              Z
 ---- ---------------- ---------- -------------- -------------- --------------
    1 O                    8.0000    -0.17255800    -0.14252813     0.00000000
    2 H                    1.0000    -0.17255800     1.93135313     0.00000000
    3 H                    1.0000     1.55302200    -0.79112813     0.00000000

      Atomic Mass 
      ----------- 

      O                 15.994910
      H                  1.007825


 Effective nuclear repulsion energy (a.u.)       8.5074334365

            Nuclear Dipole moment (a.u.) 
            ----------------------------
        X                 Y               Z
 ---------------- ---------------- ----------------
    -0.0000000000     0.0000000000     0.0000000000



                                Z-matrix (autoz)
                                -------- 

 Units are Angstrom for bonds and degrees for angles

      Type          Name      I     J     K     L     M      Value
      ----------- --------  ----- ----- ----- ----- ----- ----------
    1 Stretch                  1     2                       1.09745
    2 Stretch                  1     3                       0.97551
    3 Bend                     2     1     3               110.59992


            XYZ format geometry
            -------------------
     3
 geometry
 O                    -0.09131377    -0.07542264     0.00000000
 H                    -0.09131377     1.02202813     0.00000000
 H                     0.82182391    -0.41864700     0.00000000

 ==============================================================================
                                internuclear distances
 ------------------------------------------------------------------------------
       center one      |      center two      | atomic units |       a.u.
 ------------------------------------------------------------------------------
    3 H                |   1 O                |     1.84345  |     1.84345
 ------------------------------------------------------------------------------
                         number of included internuclear distances:          1
 ==============================================================================





 Summary of "ao basis" -> "" (spherical)
 ------------------------------------------------------------------------------
       Tag                 Description            Shells   Functions and Types
 ---------------- ------------------------------  ------  ---------------------
 *                          cc-pVTZ                   on all atoms 


                      Basis "ao basis" -> "ao basis" (spherical)
                      -----
  O (Oxygen)
  ----------
            Exponent  Coefficients 
       -------------- ---------------------------------------------------------
  1 S  1.53300000E+04  0.000508
  1 S  2.29900000E+03  0.003929
  1 S  5.22400000E+02  0.020243
  1 S  1.47300000E+02  0.079181
  1 S  4.75500000E+01  0.230687
  1 S  1.67600000E+01  0.433118
  1 S  6.20700000E+00  0.350260
  1 S  6.88200000E-01 -0.008154

  2 S  1.53300000E+04 -0.000115
  2 S  2.29900000E+03 -0.000895
  2 S  5.22400000E+02 -0.004636
  2 S  1.47300000E+02 -0.018724
  2 S  4.75500000E+01 -0.058463
  2 S  1.67600000E+01 -0.136463
  2 S  6.20700000E+00 -0.175740
  2 S  6.88200000E-01  0.603418

  3 S  1.75200000E+00  1.000000

  4 S  2.38400000E-01  1.000000

  5 P  3.44600000E+01  0.015928
  5 P  7.74900000E+00  0.099740
  5 P  2.28000000E+00  0.310492

  6 P  7.15600000E-01  1.000000

  7 P  2.14000000E-01  1.000000

  8 D  2.31400000E+00  1.000000

  9 D  6.45000000E-01  1.000000

 10 F  1.42800000E+00  1.000000

  H (Hydrogen)
  ------------
            Exponent  Coefficients 
       -------------- ---------------------------------------------------------
  1 S  3.38700000E+01  0.006068
  1 S  5.09500000E+00  0.045308
  1 S  1.15900000E+00  0.202822

  2 S  3.25800000E-01  1.000000

  3 S  1.02700000E-01  1.000000

  4 P  1.40700000E+00  1.000000

  5 P  3.88000000E-01  1.000000

  6 D  1.05700000E+00  1.000000



 Summary of "ao basis" -> "ao basis" (spherical)
 ------------------------------------------------------------------------------
       Tag                 Description            Shells   Functions and Types
 ---------------- ------------------------------  ------  ---------------------
 O                          cc-pVTZ                 10       30   4s3p2d1f
 H                          cc-pVTZ                  6       14   3s2p1d



                            NWChem Direct MCSCF Module
                            --------------------------


                                        H2O


     -----------------------------------
       Basis functions:             58
       Inactive shells:              0
       Active shells:                8
       Active electrons:            10
       Symmetry:                    a       
       Multiplicity:                 1
       Orbital rotations:          400
     -----------------------------------

     -----------------------------------
       E2 extrapolation:             F
       Conjugacy:                    T
       Micro CI relax:               T
       Canonical orbitals:           T
       Maximum iterations:          40
       Converge threshold:    1.00E-04
       Conjugacy resets:            20
       Initial levelshift:        0.10
     -----------------------------------

 Loading old vectors from job with title :

H2O


   input molecular orbitals = ./h2o.mos
  output molecular orbtials = ./h2o.mos

       No. of determinants:          3136


  Starting Orbital Energies
   -20.553125    -1.318438    -0.707719    -0.571957    -0.520325    -0.030995
    -0.025732    -0.015897     0.304938     0.335386     0.611525     0.679921
     0.815534     0.831317     0.972299     1.130998     1.179686     1.281033
     1.403147     1.956982     2.052511     2.097741     2.145907     2.267350
     2.597429     2.838914     3.350562     3.474292     3.477485     3.527228
     3.555686     3.762762     3.875910     3.907950     3.944930     4.003299
     4.079280     4.215659     4.298572     4.326959     4.547608     4.664133
     4.963062     5.176540     5.531879     5.878133     6.187619     6.526108
     6.811712     6.891058     6.982976     7.032849     7.098333     7.151129
     7.425035     7.583178     7.907908    11.796651

  Orbital Symmetry Irreps
a    a    a    a    a    a    a    a    a    a    a    a    a    a    a   
a    a    a    a    a    a    a    a    a    a    a    a    a    a    a   
a    a    a    a    a    a    a    a    a    a    a    a    a    a    a   
a    a    a    a    a    a    a    a    a    a    a    a    a   

 Integral file          = ./H2O.aoints.0
 Record size in doubles =  65536        No. of integs per rec  =  43688
 Max. records in memory =     49        Max. records in file   = 252469
 No. of bits per label  =      8        No. of bits per value  =     64


 #quartets = 3.213D+04 #integrals = 6.608D+05 #direct =  0.0% #cached =100.0%




          %%%%% MacroIteration   1 %%%%%


          Number of sigma calls:       15
                       o<<<<< (aa):             0.01
                       o<<<<< (bb):             0.02
                       o<<<<< (ab):             0.22
                       o<<<<< (total)           0.25
                       o<<<<< (aa) ff           0.00
                       o<<<<< (aa) gop          0.00
                       o<<<<< (aa) dot          0.00
                       o<<<<< (ab) str          0.00
                       o<<<<< (ab) gath         0.00
                       o<<<<< (ab) dotab        0.00
                       o<<<<< (ab) scat         0.00
                       o<<<<< (ab) sync         0.00
                       o<<<<< Density           0.02
                       o<<<<< Density one       0.00
                       o<<<<< Density two       0.01
                       o<<<<< Density ab        0.01
                       o<<<<< Spin adapt        1.06
                       o<<<<< Symm adapt        0.00

                       o<<<<< (ab) max sync:      0.00

           >>>| Valence CI:            -84.642247456320
           >>>| MCSCF energy:          -76.134814019787
           >>>| Gradient norm:          0.846025492D-02

                              ----- Line search ------

        step       energy         lsg     num-lsg   num-lsh   lsrat    time
      ------- ---------------- --------- --------- --------- ------- --------
       0.0000     -76.13481402 -7.71D-06  0.00D+00  0.00D+00 0.0D+00      3.4

          Number of sigma calls:       14
                       o<<<<< (aa):             0.00
                       o<<<<< (bb):             0.00
                       o<<<<< (ab):             0.20
                       o<<<<< (total)           0.21
                       o<<<<< (aa) ff           0.00
                       o<<<<< (aa) gop          0.00
                       o<<<<< (aa) dot          0.00
                       o<<<<< (ab) str          0.00
                       o<<<<< (ab) gath         0.00
                       o<<<<< (ab) dotab        0.00
                       o<<<<< (ab) scat         0.00
                       o<<<<< (ab) sync         0.00
                       o<<<<< Density           0.02
                       o<<<<< Density one       0.00
                       o<<<<< Density two       0.00
                       o<<<<< Density ab        0.02
                       o<<<<< Spin adapt        1.05
                       o<<<<< Symm adapt        0.00

                       o<<<<< (ab) max sync:      0.00
       1.0000     -76.13481803 -3.12D-07 -3.12D-07  7.40D-06 4.1D-02      5.1
     --- Orbitals canonicalized ---



          %%%%% MacroIteration   2 %%%%%


          Number of sigma calls:       12
                       o<<<<< (aa):             0.01
                       o<<<<< (bb):             0.00
                       o<<<<< (ab):             0.15
                       o<<<<< (total)           0.17
                       o<<<<< (aa) ff           0.00
                       o<<<<< (aa) gop          0.00
                       o<<<<< (aa) dot          0.00
                       o<<<<< (ab) str          0.00
                       o<<<<< (ab) gath         0.00
                       o<<<<< (ab) dotab        0.00
                       o<<<<< (ab) scat         0.00
                       o<<<<< (ab) sync         0.00
                       o<<<<< Density           0.02
                       o<<<<< Density one       0.01
                       o<<<<< Density two       0.00
                       o<<<<< Density ab        0.01
                       o<<<<< Spin adapt        0.83
                       o<<<<< Symm adapt        0.00

                       o<<<<< (ab) max sync:      0.00

           >>>| Valence CI:            -84.642251466846
           >>>| MCSCF energy:          -76.134818030313
           >>>| Gradient norm:          0.735868841D-03
     --- Warning:    2 Hessian diagonals < 0.05 ---
     --- Conjugacy reset ---

                              ----- Line search ------

        step       energy         lsg     num-lsg   num-lsh   lsrat    time
      ------- ---------------- --------- --------- --------- ------- --------
       0.0000     -76.13481803 -9.46D-08  0.00D+00  0.00D+00 0.0D+00      6.7

          Number of sigma calls:       10
                       o<<<<< (aa):             0.00
                       o<<<<< (bb):             0.01
                       o<<<<< (ab):             0.13
                       o<<<<< (total)           0.15
                       o<<<<< (aa) ff           0.00
                       o<<<<< (aa) gop          0.00
                       o<<<<< (aa) dot          0.00
                       o<<<<< (ab) str          0.00
                       o<<<<< (ab) gath         0.00
                       o<<<<< (ab) dotab        0.00
                       o<<<<< (ab) scat         0.00
                       o<<<<< (ab) sync         0.00
                       o<<<<< Density           0.01
                       o<<<<< Density one       0.00
                       o<<<<< Density two       0.01
                       o<<<<< Density ab        0.00
                       o<<<<< Spin adapt        0.79
                       o<<<<< Symm adapt        0.00

                       o<<<<< (ab) max sync:      0.00
       1.0000     -76.13481809 -3.16D-08 -3.16D-08  6.30D-08 3.3D-01      8.0

          Number of sigma calls:        9
                       o<<<<< (aa):             0.00
                       o<<<<< (bb):             0.01
                       o<<<<< (ab):             0.14
                       o<<<<< (total)           0.15
                       o<<<<< (aa) ff           0.00
                       o<<<<< (aa) gop          0.00
                       o<<<<< (aa) dot          0.00
                       o<<<<< (ab) str          0.00
                       o<<<<< (ab) gath         0.00
                       o<<<<< (ab) dotab        0.00
                       o<<<<< (ab) scat         0.00
                       o<<<<< (ab) sync         0.00
                       o<<<<< Density           0.04
                       o<<<<< Density one       0.02
                       o<<<<< Density two       0.01
                       o<<<<< Density ab        0.01
                       o<<<<< Spin adapt        0.67
                       o<<<<< Symm adapt        0.00

                       o<<<<< (ab) max sync:      0.00
       1.5018     -76.13481810  2.52D-11  2.16D-11  6.30D-08 2.7D-04      9.2



          %%%%% MacroIteration   3 %%%%%


          Number of sigma calls:        1
                       o<<<<< (aa):             0.01
                       o<<<<< (bb):             0.00
                       o<<<<< (ab):             0.01
                       o<<<<< (total)           0.02
                       o<<<<< (aa) ff           0.00
                       o<<<<< (aa) gop          0.00
                       o<<<<< (aa) dot          0.00
                       o<<<<< (ab) str          0.00
                       o<<<<< (ab) gath         0.00
                       o<<<<< (ab) dotab        0.00
                       o<<<<< (ab) scat         0.00
                       o<<<<< (ab) sync         0.00
                       o<<<<< Density           0.02
                       o<<<<< Density one       0.01
                       o<<<<< Density two       0.01
                       o<<<<< Density ab        0.00
                       o<<<<< Spin adapt        0.00
                       o<<<<< Symm adapt        0.00

                       o<<<<< (ab) max sync:      0.00

           >>>| Valence CI:            -84.642251537878
           >>>| MCSCF energy:          -76.134818101345
           >>>| Gradient norm:          0.100804811D-03
     --- Warning:    2 Hessian diagonals < 0.05 ---

                              ----- Line search ------

        step       energy         lsg     num-lsg   num-lsh   lsrat    time
      ------- ---------------- --------- --------- --------- ------- --------
       0.0000     -76.13481810 -2.17D-09  0.00D+00  0.00D+00 0.0D+00      9.6

          Number of sigma calls:        8
                       o<<<<< (aa):             0.01
                       o<<<<< (bb):             0.00
                       o<<<<< (ab):             0.11
                       o<<<<< (total)           0.12
                       o<<<<< (aa) ff           0.00
                       o<<<<< (aa) gop          0.00
                       o<<<<< (aa) dot          0.00
                       o<<<<< (ab) str          0.00
                       o<<<<< (ab) gath         0.00
                       o<<<<< (ab) dotab        0.00
                       o<<<<< (ab) scat         0.00
                       o<<<<< (ab) sync         0.00
                       o<<<<< Density           0.05
                       o<<<<< Density one       0.02
                       o<<<<< Density two       0.00
                       o<<<<< Density ab        0.03
                       o<<<<< Spin adapt        0.71
                       o<<<<< Symm adapt        0.00

                       o<<<<< (ab) max sync:      0.00
       1.0000     -76.13481810 -4.61D-10 -4.61D-10  1.71D-09 2.1D-01     10.7

          Number of sigma calls:        7
                       o<<<<< (aa):             0.01
                       o<<<<< (bb):             0.00
                       o<<<<< (ab):             0.09
                       o<<<<< (total)           0.10
                       o<<<<< (aa) ff           0.00
                       o<<<<< (aa) gop          0.00
                       o<<<<< (aa) dot          0.00
                       o<<<<< (ab) str          0.00
                       o<<<<< (ab) gath         0.00
                       o<<<<< (ab) dotab        0.00
                       o<<<<< (ab) scat         0.00
                       o<<<<< (ab) sync         0.00
                       o<<<<< Density           0.03
                       o<<<<< Density one       0.00
                       o<<<<< Density two       0.01
                       o<<<<< Density ab        0.02
                       o<<<<< Spin adapt        0.57
                       o<<<<< Symm adapt        0.00

                       o<<<<< (ab) max sync:      0.00
       1.2700     -76.13481810  2.30D-14  2.02D-12  1.71D-09 1.1D-05     11.8



          %%%%% MacroIteration   4 %%%%%


          Number of sigma calls:        1
                       o<<<<< (aa):             0.00
                       o<<<<< (bb):             0.00
                       o<<<<< (ab):             0.01
                       o<<<<< (total)           0.01
                       o<<<<< (aa) ff           0.00
                       o<<<<< (aa) gop          0.00
                       o<<<<< (aa) dot          0.00
                       o<<<<< (ab) str          0.00
                       o<<<<< (ab) gath         0.00
                       o<<<<< (ab) dotab        0.00
                       o<<<<< (ab) scat         0.00
                       o<<<<< (ab) sync         0.00
                       o<<<<< Density           0.02
                       o<<<<< Density one       0.01
                       o<<<<< Density two       0.00
                       o<<<<< Density ab        0.01
                       o<<<<< Spin adapt        0.00
                       o<<<<< Symm adapt        0.00

                       o<<<<< (ab) max sync:      0.00

           >>>| Valence CI:            -84.642251539256
           >>>| MCSCF energy:          -76.134818102723
           >>>| Gradient norm:          0.243493693D-04




     ==============================
            MCSCF Converged
     ==============================



          Canonical Eigenvalues

              1      
    1  -20.5535
    2   -1.3177
    3   -0.7066
    4   -0.5715
    5   -0.5202
    6   -0.0312
    7   -0.0257
    8   -0.0159
    9    0.3053
   10    0.3354
   11    0.6115
   12    0.6810
   13    0.8158
   14    0.8308
   15    0.9722
   16    1.1296
   17    1.1810
   18    1.2779
   19    1.4036
   20    1.9550
   21    2.0522
   22    2.0969
   23    2.1472
   24    2.2706
   25    2.5980
   26    2.8375
   27    3.3499
   28    3.4726
   29    3.4765
   30    3.5251
   31    3.5562
   32    3.7584
   33    3.8757
   34    3.9070
   35    3.9384
   36    4.0034
   37    4.0792
   38    4.2110
   39    4.2937
   40    4.3236
   41    4.5451
   42    4.6595
   43    4.9620
   44    5.1735
   45    5.5316
   46    5.8749
   47    6.1801
   48    6.5120
   49    6.8078
   50    6.8906
   51    6.9829
   52    7.0309
   53    7.0982
   54    7.1504
   55    7.4219
   56    7.5799
   57    7.8975
   58   11.7686


          Converged CI vector

   Index           Coefficient          Config. Occupation
         1          0.97217516          1  2  3  4  5  1  2  3  4  5
        22         -0.07326259          1  2  3  4  5  1  2  3  4  8
         3         -0.04325167          1  2  3  4  5  1  2  3  5  6
         8         -0.02705058          1  2  3  4  5  1  2  3  5  7
        27          0.02001968          1  2  3  4  5  1  2  3  6  8
         4         -0.02783236          1  2  3  4  5  1  2  4  5  6
         9          0.03736794          1  2  3  4  5  1  2  4  5  7
        38         -0.02174962          1  2  3  4  5  1  2  4  7  8
      1177         -0.07326259          1  2  3  4  8  1  2  3  4  5
      1198         -0.05156712          1  2  3  4  8  1  2  3  4  8
      1179         -0.02521093          1  2  3  4  8  1  2  3  5  6
      1180         -0.02212493          1  2  3  4  8  1  2  4  5  6
      1185          0.02927659          1  2  3  4  8  1  2  4  5  7
       113         -0.04325167          1  2  3  5  6  1  2  3  4  5
       134         -0.02521093          1  2  3  5  6  1  2  3  4  8
       115         -0.05081828          1  2  3  5  6  1  2  3  5  6
       116         -0.03911616          1  2  3  5  6  1  2  4  5  6
       117         -0.02017681          1  2  3  5  6  1  3  4  5  6
       393         -0.02705058          1  2  3  5  7  1  2  3  4  5
       400         -0.02477447          1  2  3  5  7  1  2  3  5  7
       401          0.02721768          1  2  3  5  7  1  2  4  5  7
      1457          0.02001968          1  2  3  6  8  1  2  3  4  5
       169         -0.02783236          1  2  4  5  6  1  2  3  4  5
       190         -0.02212493          1  2  4  5  6  1  2  3  4  8
       171         -0.03911616          1  2  4  5  6  1  2  3  5  6
       172         -0.04573727          1  2  4  5  6  1  2  4  5  6
       173         -0.02218963          1  2  4  5  6  1  3  4  5  6
       449          0.03736794          1  2  4  5  7  1  2  3  4  5
       470          0.02927659          1  2  4  5  7  1  2  3  4  8
       456          0.02721768          1  2  4  5  7  1  2  3  5  7
       457         -0.05153927          1  2  4  5  7  1  2  4  5  7
       458          0.02325968          1  2  4  5  7  1  3  4  5  7
      2073         -0.02174962          1  2  4  7  8  1  2  3  4  5
       227         -0.02017681          1  3  4  5  6  1  2  3  5  6
       228         -0.02218963          1  3  4  5  6  1  2  4  5  6
       229         -0.02364908          1  3  4  5  6  1  3  4  5  6
       513          0.02325968          1  3  4  5  7  1  2  4  5  7
       514         -0.02253267          1  3  4  5  7  1  3  4  5  7

          Number of sigma calls:        1
                       o<<<<< (aa):             0.00
                       o<<<<< (bb):             0.01
                       o<<<<< (ab):             0.01
                       o<<<<< (total)           0.02
                       o<<<<< (aa) ff           0.00
                       o<<<<< (aa) gop          0.00
                       o<<<<< (aa) dot          0.00
                       o<<<<< (ab) str          0.00
                       o<<<<< (ab) gath         0.00
                       o<<<<< (ab) dotab        0.00
                       o<<<<< (ab) scat         0.00
                       o<<<<< (ab) sync         0.00
                       o<<<<< Density           0.02
                       o<<<<< Density one       0.01
                       o<<<<< Density two       0.00
                       o<<<<< Density ab        0.01
                       o<<<<< Spin adapt        0.00
                       o<<<<< Symm adapt        0.00

                       o<<<<< (ab) max sync:      0.00



          Natural orbital occupation numbers

              1      
    1    2.0000
    2    1.9987
    3    1.9812
    4    1.9759
    5    1.9679
    6    0.0331
    7    0.0248
    8    0.0183


          Number of sigma calls:       15
                       o<<<<< (aa):             0.01
                       o<<<<< (bb):             0.01
                       o<<<<< (ab):             0.18
                       o<<<<< (total)           0.20
                       o<<<<< (aa) ff           0.00
                       o<<<<< (aa) gop          0.00
                       o<<<<< (aa) dot          0.00
                       o<<<<< (ab) str          0.00
                       o<<<<< (ab) gath         0.00
                       o<<<<< (ab) dotab        0.00
                       o<<<<< (ab) scat         0.00
                       o<<<<< (ab) sync         0.00
                       o<<<<< Density           0.03
                       o<<<<< Density one       0.01
                       o<<<<< Density two       0.00
                       o<<<<< Density ab        0.02
                       o<<<<< Spin adapt        1.02
                       o<<<<< Symm adapt        0.00

                       o<<<<< (ab) max sync:      0.00


       Final MCSCF results 
       ------------------- 

       Total MCSCF energy =    -76.134818102723
            Gradient norm =      2.4D-05

    CPU time for solution =     13.6s
   Wall time for solution =     22.4s



                        Analysis of MCSCF natural orbitals
                        ----------------------------------

 Vector    1  Occ=1.999989D+00  E=-2.055347D+01  Symmetry=a
              MO Center= -9.1D-02, -7.5D-02, -4.1D-11, r^2= 1.6D-02
   Bfn.  Coefficient  Atom+Function         Bfn.  Coefficient  Atom+Function  
  ----- ------------  ---------------      ----- ------------  ---------------
     1      0.972430  1 O  s          

 Vector    2  Occ=1.998695D+00  E=-1.317663D+00  Symmetry=a
              MO Center= -2.9D-01, -2.1D-01, -1.3D-07, r^2= 4.2D-01
   Bfn.  Coefficient  Atom+Function         Bfn.  Coefficient  Atom+Function  
  ----- ------------  ---------------      ----- ------------  ---------------
     2      0.519938  1 O  s                  4      0.392491  1 O  s          

 Vector    3  Occ=1.981213D+00  E=-7.066490D-01  Symmetry=a
              MO Center= -6.3D-02, -6.0D-02, -5.9D-08, r^2= 6.5D-01
   Bfn.  Coefficient  Atom+Function         Bfn.  Coefficient  Atom+Function  
  ----- ------------  ---------------      ----- ------------  ---------------
    10      0.431521  1 O  pz                13      0.392566  1 O  pz         
     7      0.360065  1 O  pz         

 Vector    4  Occ=1.975896D+00  E=-5.715150D-01  Symmetry=a
              MO Center=  3.4D-01, -1.8D-01, -6.0D-08, r^2= 6.0D-01
   Bfn.  Coefficient  Atom+Function         Bfn.  Coefficient  Atom+Function  
  ----- ------------  ---------------      ----- ------------  ---------------
     8      0.343192  1 O  px                 5      0.285546  1 O  px         
    46      0.263040  3 H  s                 11      0.205569  1 O  px         
    45      0.183488  3 H  s          

 Vector    5  Occ=1.967907D+00  E=-5.202167D-01  Symmetry=a
              MO Center= -4.5D-02,  4.1D-01, -4.1D-08, r^2= 6.8D-01
   Bfn.  Coefficient  Atom+Function         Bfn.  Coefficient  Atom+Function  
  ----- ------------  ---------------      ----- ------------  ---------------
     9      0.340241  1 O  py                 6      0.275084  1 O  py         
    32      0.265690  2 H  s                 12      0.196717  1 O  py         
    31      0.169486  2 H  s          

 Vector    6  Occ=3.313036D-02  E=-3.123242D-02  Symmetry=a
              MO Center= -3.5D-02,  6.0D-01, -5.0D-08, r^2= 6.9D-01
   Bfn.  Coefficient  Atom+Function         Bfn.  Coefficient  Atom+Function  
  ----- ------------  ---------------      ----- ------------  ---------------
    32      0.607575  2 H  s                  6     -0.481874  1 O  py         
     9     -0.463259  1 O  py                 2     -0.283870  1 O  s          
    31      0.273447  2 H  s          

 Vector    7  Occ=2.482695D-02  E=-2.574040D-02  Symmetry=a
              MO Center=  5.0D-01, -2.4D-01, -8.0D-08, r^2= 6.6D-01
   Bfn.  Coefficient  Atom+Function         Bfn.  Coefficient  Atom+Function  
  ----- ------------  ---------------      ----- ------------  ---------------
    46      0.656634  3 H  s                  5     -0.519061  1 O  px         
     8     -0.431670  1 O  px                45      0.295105  3 H  s          
     2     -0.279161  1 O  s                  4     -0.191320  1 O  s          

 Vector    8  Occ=1.834334D-02  E=-1.588923D-02  Symmetry=a
              MO Center= -4.9D-03, -1.7D-02,  4.6D-08, r^2= 1.2D+00
   Bfn.  Coefficient  Atom+Function         Bfn.  Coefficient  Atom+Function  
  ----- ------------  ---------------      ----- ------------  ---------------
    13      0.797224  1 O  pz                 7     -0.634023  1 O  pz         
    10     -0.315041  1 O  pz         

 Vector    9  Occ=0.000000D+00  E= 3.052747D-01  Symmetry=a
              MO Center=  4.6D-01,  9.0D-02,  1.1D-07, r^2= 4.7D+00
   Bfn.  Coefficient  Atom+Function         Bfn.  Coefficient  Atom+Function  
  ----- ------------  ---------------      ----- ------------  ---------------
     4      1.924471  1 O  s                 47     -1.352222  3 H  s          
    33     -0.961375  2 H  s                 11      0.703943  1 O  px         
    51      0.458015  3 H  px                38      0.323190  2 H  py         
    12      0.270728  1 O  py                52     -0.187747  3 H  py         
    46     -0.177846  3 H  s          

 Vector   10  Occ=0.000000D+00  E= 3.353999D-01  Symmetry=a
              MO Center=  3.9D-01,  5.9D-01, -2.3D-08, r^2= 5.5D+00
   Bfn.  Coefficient  Atom+Function         Bfn.  Coefficient  Atom+Function  
  ----- ------------  ---------------      ----- ------------  ---------------
    33      1.976135  2 H  s                 47     -1.823546  3 H  s          
    12     -0.573321  1 O  py                32     -0.571273  2 H  s          
    11      0.405850  1 O  px                46      0.322083  3 H  s          
    51      0.277601  3 H  px                38     -0.254214  2 H  py         

 Vector   11  Occ=0.000000D+00  E= 6.114520D-01  Symmetry=a
              MO Center= -3.1D-02,  2.7D-01,  1.7D-07, r^2= 2.0D+00
   Bfn.  Coefficient  Atom+Function         Bfn.  Coefficient  Atom+Function  
  ----- ------------  ---------------      ----- ------------  ---------------
     4      2.503824  1 O  s                 46     -2.505117  3 H  s          
    11      1.779771  1 O  px                32     -1.114717  2 H  s          
    51      0.688783  3 H  px                38      0.303066  2 H  py         
    37      0.248836  2 H  px                12      0.226923  1 O  py         
    33      0.212897  2 H  s                 21     -0.163847  1 O  d  0       

 Vector   12  Occ=0.000000D+00  E= 6.810335D-01  Symmetry=a
              MO Center= -1.2D-01, -3.7D-01, -6.5D-08, r^2= 2.4D+00
   Bfn.  Coefficient  Atom+Function         Bfn.  Coefficient  Atom+Function  
  ----- ------------  ---------------      ----- ------------  ---------------
    12      2.377991  1 O  py                32     -1.804945  2 H  s          
    46      1.388411  3 H  s                 11     -1.210398  1 O  px         
    47      0.769576  3 H  s                 33     -0.697707  2 H  s          
    38      0.669192  2 H  py                51     -0.417258  3 H  px         
    23     -0.301783  1 O  d  2              52      0.298260  3 H  py         

 Vector   13  Occ=0.000000D+00  E= 8.158088D-01  Symmetry=a
              MO Center= -2.2D-01, -9.2D-02, -4.7D-08, r^2= 2.2D+00
   Bfn.  Coefficient  Atom+Function         Bfn.  Coefficient  Atom+Function  
  ----- ------------  ---------------      ----- ------------  ---------------
     4      1.849294  1 O  s                 11      1.685551  1 O  px         
    46     -1.636236  3 H  s                 32     -1.263636  2 H  s          
    12      1.082716  1 O  py                52     -1.015086  3 H  py         
    37     -0.852694  2 H  px                38      0.490090  2 H  py         
     2      0.190083  1 O  s                 51      0.180233  3 H  px         

 Vector   14  Occ=0.000000D+00  E= 8.308144D-01  Symmetry=a
              MO Center=  3.0D-01,  3.7D-01, -2.4D-08, r^2= 1.8D+00
   Bfn.  Coefficient  Atom+Function         Bfn.  Coefficient  Atom+Function  
  ----- ------------  ---------------      ----- ------------  ---------------
    39      0.838411  2 H  pz                53     -0.760836  3 H  pz         

 Vector   15  Occ=0.000000D+00  E= 9.722247D-01  Symmetry=a
              MO Center=  1.4D-01,  3.7D-02, -4.1D-07, r^2= 2.1D+00
   Bfn.  Coefficient  Atom+Function         Bfn.  Coefficient  Atom+Function  
  ----- ------------  ---------------      ----- ------------  ---------------
    13      1.215373  1 O  pz                53     -1.045624  3 H  pz         
    39     -0.870425  2 H  pz         

 Vector   16  Occ=0.000000D+00  E= 1.129644D+00  Symmetry=a
              MO Center=  2.5D-01,  1.4D-01,  1.4D-08, r^2= 2.3D+00
   Bfn.  Coefficient  Atom+Function         Bfn.  Coefficient  Atom+Function  
  ----- ------------  ---------------      ----- ------------  ---------------
     4      2.259080  1 O  s                 46     -2.130444  3 H  s          
    11      1.472641  1 O  px                12     -1.260390  1 O  py         
    51      1.106409  3 H  px                37     -1.029691  2 H  px         
    52      0.651220  3 H  py                47     -0.405847  3 H  s          
     8      0.322389  1 O  px                 2     -0.306179  1 O  s          

 Vector   17  Occ=0.000000D+00  E= 1.180964D+00  Symmetry=a
              MO Center= -7.4D-02,  9.9D-03,  3.2D-07, r^2= 1.9D+00
   Bfn.  Coefficient  Atom+Function         Bfn.  Coefficient  Atom+Function  
  ----- ------------  ---------------      ----- ------------  ---------------
     4      5.782272  1 O  s                 46     -2.663550  3 H  s          
    32     -1.917364  2 H  s                 51      1.246952  3 H  px         
    11      1.143717  1 O  px                52     -1.070689  3 H  py         
     2     -1.012839  1 O  s                 12      0.931657  1 O  py         
     8      0.852743  1 O  px                38      0.724674  2 H  py         

 Vector   18  Occ=0.000000D+00  E= 1.277873D+00  Symmetry=a
              MO Center=  2.3D-03,  1.2D+00, -1.8D-08, r^2= 1.6D+00
   Bfn.  Coefficient  Atom+Function         Bfn.  Coefficient  Atom+Function  
  ----- ------------  ---------------      ----- ------------  ---------------
     4      3.139246  1 O  s                 38      2.289412  2 H  py         
    32     -1.491955  2 H  s                 12      0.981124  1 O  py         
    46     -0.891897  3 H  s                 33     -0.877640  2 H  s          
    51      0.735286  3 H  px                 9      0.558436  1 O  py         
     2      0.342062  1 O  s                 52     -0.294424  3 H  py         


 Wrote Lagrangian and 1- and 2-particle density matrices to ./H2O.mcpdm


     Multipole analysis of the density
     ---------------------------------

     L   x y z        total        nuclear
     -   - - -        -----        -------
     0   0 0 0     -0.000000     10.000000

     1   1 0 0      0.566075     -0.000000
     1   0 1 0      0.428471      0.000000
     1   0 0 1      0.000001      0.000000

     2   2 0 0     -4.221427      2.679864
     2   1 1 0     -0.829274     -1.365155
     2   1 0 1      0.000001      0.000000
     2   0 2 0     -3.345368      4.518523
     2   0 1 1      0.000000      0.000000
     2   0 0 2     -5.617703      0.000000


  Mulliken analysis of the total density
  --------------------------------------

    Atom       Charge   Shell Charges
 -----------   ------   -------------------------------------------------------
    1 O    8     8.49   1.95  1.01  0.23  0.61  1.27  2.07  1.33  0.00  0.02  0.00
    2 H    1     0.75   0.21  0.39  0.08  0.01  0.05  0.00
    3 H    1     0.76   0.25  0.38  0.05  0.02  0.06  0.01

    Mulliken analysis of the active space density
    ---------------------------------------------

    Atom       Charge   Shell Charges
 -----------   ------   -------------------------------------------------------
    1 O    8     8.49   1.95  1.01  0.23  0.61  1.27  2.07  1.33  0.00  0.02  0.00
    2 H    1     0.75   0.21  0.39  0.08  0.01  0.05  0.00
    3 H    1     0.76   0.25  0.38  0.05  0.02  0.06  0.01

 Parallel integral file used      16 records with       0 large values


 Task  times  cpu:       13.7s     wall:       22.5s


                                NWChem Input Module
                                -------------------


                                 NWChem SCF Module
                                 -----------------


                                        H2O



  ao basis        = "ao basis"
  functions       =    58
  atoms           =     3
  closed shells   =     5
  open shells     =     0
  charge          =   0.00
  wavefunction    = RHF 
  input vectors   = ./h2o.mos
  output vectors  = ./h2o-trash.mos
  use symmetry    = F
  symmetry adapt  = F


 Summary of "ao basis" -> "ao basis" (spherical)
 ------------------------------------------------------------------------------
       Tag                 Description            Shells   Functions and Types
 ---------------- ------------------------------  ------  ---------------------
 O                          cc-pVTZ                 10       30   4s3p2d1f
 H                          cc-pVTZ                  6       14   3s2p1d



 Forming initial guess at      22.6s


 Loading old vectors from job with title :

H2O


 Starting SCF solution at      22.6s



 ----------------------------------------------
         Quadratically convergent ROHF

 Convergence threshold     :          1.000E-04
 Maximum no. of iterations :           30
 Final Fock-matrix accuracy:          1.000E-07
 ----------------------------------------------


 Integral file          = ./H2O.aoints.0
 Record size in doubles =  65536        No. of integs per rec  =  43688
 Max. records in memory =     49        Max. records in file   = 252469
 No. of bits per label  =      8        No. of bits per value  =     64


 #quartets = 3.213D+04 #integrals = 6.608D+05 #direct =  0.0% #cached =100.0%



       Final RHF  results 
       ------------------ 

         Total SCF energy =    -76.034057612586
      One-electron energy =   -121.859599615748
      Two-electron energy =     37.318108566628
 Nuclear repulsion energy =      8.507433436533

        Time for solution =      0.3s


             Final eigenvalues
             -----------------

              1      
    1  -20.5535
    2   -1.3177
    3   -0.7066
    4   -0.5715
    5   -0.5202
    6   -0.0312
    7   -0.0257
    8   -0.0159
    9    0.3053
   10    0.3354
   11    0.6115
   12    0.6810
   13    0.8158
   14    0.8308
   15    0.9722

                       ROHF Final Molecular Orbital Analysis
                       -------------------------------------

 Vector    2  Occ=2.000000D+00  E=-1.317663D+00
              MO Center= -2.9D-01, -2.1D-01, -1.3D-07, r^2= 4.2D-01
   Bfn.  Coefficient  Atom+Function         Bfn.  Coefficient  Atom+Function  
  ----- ------------  ---------------      ----- ------------  ---------------
     2      0.519938  1 O  s                  4      0.392491  1 O  s          

 Vector    3  Occ=2.000000D+00  E=-7.066490D-01
              MO Center= -6.3D-02, -6.0D-02, -5.9D-08, r^2= 6.5D-01
   Bfn.  Coefficient  Atom+Function         Bfn.  Coefficient  Atom+Function  
  ----- ------------  ---------------      ----- ------------  ---------------
    10      0.431521  1 O  pz                13      0.392566  1 O  pz         
     7      0.360065  1 O  pz         

 Vector    4  Occ=2.000000D+00  E=-5.715150D-01
              MO Center=  3.4D-01, -1.8D-01, -6.0D-08, r^2= 6.0D-01
   Bfn.  Coefficient  Atom+Function         Bfn.  Coefficient  Atom+Function  
  ----- ------------  ---------------      ----- ------------  ---------------
     8      0.343192  1 O  px                 5      0.285546  1 O  px         
    46      0.263040  3 H  s                 11      0.205569  1 O  px         
    45      0.183488  3 H  s          

 Vector    5  Occ=2.000000D+00  E=-5.202167D-01
              MO Center= -4.5D-02,  4.1D-01, -4.1D-08, r^2= 6.8D-01
   Bfn.  Coefficient  Atom+Function         Bfn.  Coefficient  Atom+Function  
  ----- ------------  ---------------      ----- ------------  ---------------
     9      0.340241  1 O  py                 6      0.275084  1 O  py         
    32      0.265690  2 H  s                 12      0.196717  1 O  py         
    31      0.169486  2 H  s          

 Vector    6  Occ=0.000000D+00  E=-3.123242D-02
              MO Center= -3.5D-02,  6.0D-01, -5.0D-08, r^2= 6.9D-01
   Bfn.  Coefficient  Atom+Function         Bfn.  Coefficient  Atom+Function  
  ----- ------------  ---------------      ----- ------------  ---------------
    32      0.607575  2 H  s                  6     -0.481874  1 O  py         
     9     -0.463259  1 O  py                 2     -0.283870  1 O  s          
    31      0.273447  2 H  s          

 Vector    7  Occ=0.000000D+00  E=-2.574040D-02
              MO Center=  5.0D-01, -2.4D-01, -8.0D-08, r^2= 6.6D-01
   Bfn.  Coefficient  Atom+Function         Bfn.  Coefficient  Atom+Function  
  ----- ------------  ---------------      ----- ------------  ---------------
    46      0.656634  3 H  s                  5     -0.519061  1 O  px         
     8     -0.431670  1 O  px                45      0.295105  3 H  s          
     2     -0.279161  1 O  s                  4     -0.191320  1 O  s          

 Vector    8  Occ=0.000000D+00  E=-1.588923D-02
              MO Center= -4.9D-03, -1.7D-02,  4.6D-08, r^2= 1.2D+00
   Bfn.  Coefficient  Atom+Function         Bfn.  Coefficient  Atom+Function  
  ----- ------------  ---------------      ----- ------------  ---------------
    13      0.797224  1 O  pz                 7     -0.634023  1 O  pz         
    10     -0.315041  1 O  pz         

 Vector    9  Occ=0.000000D+00  E= 3.052747D-01
              MO Center=  4.6D-01,  9.0D-02,  1.1D-07, r^2= 4.7D+00
   Bfn.  Coefficient  Atom+Function         Bfn.  Coefficient  Atom+Function  
  ----- ------------  ---------------      ----- ------------  ---------------
     4      1.924471  1 O  s                 47     -1.352222  3 H  s          
    33     -0.961375  2 H  s                 11      0.703943  1 O  px         
    51      0.458015  3 H  px                38      0.323190  2 H  py         
    12      0.270728  1 O  py                52     -0.187747  3 H  py         
    46     -0.177846  3 H  s          

 Vector   10  Occ=0.000000D+00  E= 3.353999D-01
              MO Center=  3.9D-01,  5.9D-01, -2.3D-08, r^2= 5.5D+00
   Bfn.  Coefficient  Atom+Function         Bfn.  Coefficient  Atom+Function  
  ----- ------------  ---------------      ----- ------------  ---------------
    33      1.976135  2 H  s                 47     -1.823546  3 H  s          
    12     -0.573321  1 O  py                32     -0.571273  2 H  s          
    11      0.405850  1 O  px                46      0.322083  3 H  s          
    51      0.277601  3 H  px                38     -0.254214  2 H  py         

 Vector   11  Occ=0.000000D+00  E= 6.114520D-01
              MO Center= -3.1D-02,  2.7D-01,  1.7D-07, r^2= 2.0D+00
   Bfn.  Coefficient  Atom+Function         Bfn.  Coefficient  Atom+Function  
  ----- ------------  ---------------      ----- ------------  ---------------
     4      2.503824  1 O  s                 46     -2.505117  3 H  s          
    11      1.779771  1 O  px                32     -1.114717  2 H  s          
    51      0.688783  3 H  px                38      0.303066  2 H  py         
    37      0.248836  2 H  px                12      0.226923  1 O  py         
    33      0.212897  2 H  s                 21     -0.163847  1 O  d  0       

 Vector   12  Occ=0.000000D+00  E= 6.810335D-01
              MO Center= -1.2D-01, -3.7D-01, -6.5D-08, r^2= 2.4D+00
   Bfn.  Coefficient  Atom+Function         Bfn.  Coefficient  Atom+Function  
  ----- ------------  ---------------      ----- ------------  ---------------
    12      2.377991  1 O  py                32     -1.804945  2 H  s          
    46      1.388411  3 H  s                 11     -1.210398  1 O  px         
    47      0.769576  3 H  s                 33     -0.697707  2 H  s          
    38      0.669192  2 H  py                51     -0.417258  3 H  px         
    23     -0.301783  1 O  d  2              52      0.298260  3 H  py         

 Vector   13  Occ=0.000000D+00  E= 8.158088D-01
              MO Center= -2.2D-01, -9.2D-02, -4.7D-08, r^2= 2.2D+00
   Bfn.  Coefficient  Atom+Function         Bfn.  Coefficient  Atom+Function  
  ----- ------------  ---------------      ----- ------------  ---------------
     4      1.849294  1 O  s                 11      1.685551  1 O  px         
    46     -1.636236  3 H  s                 32     -1.263636  2 H  s          
    12      1.082716  1 O  py                52     -1.015086  3 H  py         
    37     -0.852694  2 H  px                38      0.490090  2 H  py         
     2      0.190083  1 O  s                 51      0.180233  3 H  px         

 Vector   14  Occ=0.000000D+00  E= 8.308144D-01
              MO Center=  3.0D-01,  3.7D-01, -2.4D-08, r^2= 1.8D+00
   Bfn.  Coefficient  Atom+Function         Bfn.  Coefficient  Atom+Function  
  ----- ------------  ---------------      ----- ------------  ---------------
    39      0.838411  2 H  pz                53     -0.760836  3 H  pz         

 Vector   15  Occ=0.000000D+00  E= 9.722247D-01
              MO Center=  1.4D-01,  3.7D-02, -4.1D-07, r^2= 2.1D+00
   Bfn.  Coefficient  Atom+Function         Bfn.  Coefficient  Atom+Function  
  ----- ------------  ---------------      ----- ------------  ---------------
    13      1.215373  1 O  pz                53     -1.045624  3 H  pz         
    39     -0.870425  2 H  pz         


 center of mass
 --------------
 x =  -0.07599894 y =  -0.06277302 z =   0.00000000

 moments of inertia (a.u.)
 ------------------
           4.644049482553           1.266669733261           0.000000000000
           1.266669733261           2.833002082974           0.000000000000
           0.000000000000           0.000000000000           7.477051565527

  Mulliken analysis of the total density
  --------------------------------------

    Atom       Charge   Shell Charges
 -----------   ------   -------------------------------------------------------
    1 O    8     8.50   1.95  1.01  0.23  0.61  1.25  2.09  1.34  0.00  0.02  0.00
    2 H    1     0.74   0.21  0.39  0.08  0.01  0.05  0.00
    3 H    1     0.75   0.25  0.38  0.05  0.02  0.06  0.01

       Multipole analysis of the density wrt the origin
       ------------------------------------------------

     L   x y z        total         open         nuclear
     -   - - -        -----         ----         -------
     0   0 0 0     -0.000000      0.000000     10.000000

     1   1 0 0      0.577363      0.000000     -0.000000
     1   0 1 0      0.440403      0.000000      0.000000
     1   0 0 1      0.000001      0.000000      0.000000

     2   2 0 0     -4.198387      0.000000      2.679864
     2   1 1 0     -0.837853      0.000000     -1.365155
     2   1 0 1      0.000001      0.000000      0.000000
     2   0 2 0     -3.306266      0.000000      4.518523
     2   0 1 1      0.000000      0.000000      0.000000
     2   0 0 2     -5.599924      0.000000      0.000000


 Parallel integral file used      16 records with       0 large values

                   NWChem Extensible Many-Electron Theory Module
                   ---------------------------------------------

              ======================================================
                   This portion of the program was automatically
                  generated by a Tensor Contraction Engine (TCE).
                  The development of this portion of the program
                 and TCE was supported by US Department of Energy,
                Office of Science, Office of Basic Energy Science.
                      TCE is a product of Battelle and PNNL.
              Please cite: S.Hirata, J.Phys.Chem.A 107, 9887 (2003).
              ======================================================

                                        H2O


            General Information
            -------------------
      Number of processors :     1
         Wavefunction type : Restricted Hartree-Fock
          No. of electrons :    10
           Alpha electrons :     5
            Beta electrons :     5
           No. of orbitals :   116
            Alpha orbitals :    58
             Beta orbitals :    58
        Alpha frozen cores :     0
         Beta frozen cores :     0
     Alpha frozen virtuals :     0
      Beta frozen virtuals :     0
         Spin multiplicity : singlet 
    Number of AO functions :    58
       Number of AO shells :    22
        Use of symmetry is : off
      Symmetry adaption is : off
         Schwarz screening : 0.10D-09

          Correlation Information
          -----------------------
          Calculation type : Coupled-cluster singles & doubles                           
   Perturbative correction : none                                                        
            Max iterations :      100
        Residual threshold : 0.10D-06
     T(0) DIIS level shift : 0.00D+00
     L(0) DIIS level shift : 0.00D+00
     T(1) DIIS level shift : 0.00D+00
     L(1) DIIS level shift : 0.00D+00
     T(R) DIIS level shift : 0.00D+00
     T(I) DIIS level shift : 0.00D+00
   CC-T/L Amplitude update :  5-th order DIIS
                I/O scheme : Global Array Library
        L-threshold :  0.10D-06
        EOM-threshold :  0.10D-06
 no EOMCCSD initial starts read in
 TCE RESTART OPTIONS
 READ_INT:   F
 WRITE_INT:  F
 READ_TA:    F
 WRITE_TA:   F
 READ_XA:    F
 WRITE_XA:   F
 READ_IN3:   F
 WRITE_IN3:  F
 SLICE:      F
 D4D5:       F
 quantumc:   F
 qrotation:  F
 pwtce:      F
 qducc:      T
 nacto:                         0
 nrotv:                         0
 nrot:                          0

            Memory Information
            ------------------
          Available GA space size is    1610609372 doubles
          Available MA space size is    1610609780 doubles

 Maximum block size        32 doubles

 tile_dim =     27

 Block   Spin    Irrep     Size     Offset   Alpha
 -------------------------------------------------
   1    alpha     a      5 doubles       0       1
   2    beta      a      5 doubles       5       1
   3    alpha     a     26 doubles      10       3
   4    alpha     a     27 doubles      36       4
   5    beta      a     26 doubles      63       3
   6    beta      a     27 doubles      89       4

 Global array virtual files algorithm will be used

 Parallel file system coherency ......... OK

 Integral file          = ./H2O.aoints.0
 Record size in doubles =  65536        No. of integs per rec  =  43688
 Max. records in memory =     49        Max. records in file   = 252469
 No. of bits per label  =      8        No. of bits per value  =     64


 #quartets = 3.213D+04 #integrals = 6.608D+05 #direct =  0.0% #cached =100.0%


 Fock matrix recomputed
 1-e file size   =             3364
 1-e file name   = ./H2O.f1
 Cpu & wall time / sec            0.3            0.3
 4-electron integrals stored in orbital form

 v2    file size   =          3631290
 4-index algorithm nr.  13 is used
 imaxsize =       30
 imaxsize ichop =        0
 Cpu & wall time / sec            4.1            4.2
 T1-number-of-tasks                    2

 t1 file size   =              265
 t1 file name   = ./H2O.t1
 t1 file handle =       -998
 T2-number-of-boxes                    7

 t2 file size   =           122900
 t2 file name   = ./H2O.t2
 t2 file handle =       -996
CCSD iterations
 ---------------------------------------------------------
 Iter          Residuum       Correlation     Cpu    Wall 
 ---------------------------------------------------------
NEW TASK SCHEDULING
CCSD_T1_NTS --- OK
CCSD_T2_NTS --- OK
    1   1.1125483104481  -0.4517484002264     0.6     0.7
    2   2.0044590888664   0.0448218752857     0.6     0.6
    3   3.8024590973398  -0.8980613446910     0.6     0.6
    4   7.7631882917572   0.8515675994523     0.6     0.6
    5   9.9895618280620  -2.2727094972989     0.6     0.6
 MICROCYCLE DIIS UPDATE:                    5                    5
    6   0.0706220081081  -0.2877802395251     0.6     0.6
    7   0.0893284565726  -0.2753031302711     0.6     0.6
    8   0.1614986001512  -0.2984395935147     0.6     0.6
    9   0.3039898949466  -0.2464608403929     0.6     0.6
   10   0.6161730092389  -0.2670358843794     0.6     0.6
 MICROCYCLE DIIS UPDATE:                   10                    5
   11   0.0066373212233  -0.2861889902781     0.6     0.6
   12   0.0059759920505  -0.2868542177534     0.5     0.6
   13   0.0117105469249  -0.2858067175430     0.6     0.6
   14   0.0251780931437  -0.2878031521057     0.6     0.6
   15   0.0550690407072  -0.2842514140849     0.6     0.6
 MICROCYCLE DIIS UPDATE:                   15                    5
   16   0.0003716502682  -0.2865682165624     0.6     0.6
   17   0.0003239131581  -0.2865238752436     0.6     0.6
   18   0.0005675994519  -0.2866099250725     0.6     0.6
   19   0.0011560905921  -0.2864548195871     0.6     0.6
   20   0.0024503696553  -0.2867466705010     0.6     0.6
 MICROCYCLE DIIS UPDATE:                   20                    5
   21   0.0000303405406  -0.2865556638736     0.6     0.6
   22   0.0000306158655  -0.2865582091121     0.6     0.6
   23   0.0000574125984  -0.2865527137170     0.6     0.6
   24   0.0001222954325  -0.2865635985798     0.6     0.6
   25   0.0002662625203  -0.2865431257954     0.6     0.6
 MICROCYCLE DIIS UPDATE:                   25                    5
   26   0.0000043548797  -0.2865567816127     0.6     0.6
   27   0.0000044376681  -0.2865560879233     0.6     0.7
   28   0.0000078829064  -0.2865573513682     0.6     0.6
   29   0.0000161649911  -0.2865550454538     0.6     0.6
   30   0.0000343552659  -0.2865593544626     0.6     0.6
 MICROCYCLE DIIS UPDATE:                   30                    5
   31   0.0000006342829  -0.2865565285029     0.6     0.6
   32   0.0000006429125  -0.2865565734490     0.6     0.7
   33   0.0000012264007  -0.2865564665139     0.6     0.6
   34   0.0000026406376  -0.2865566738857     0.6     0.6
   35   0.0000057917105  -0.2865562881677     0.6     0.6
 MICROCYCLE DIIS UPDATE:                   35                    5
   36   0.0000001082501  -0.2865565454888     0.6     0.6
   37   0.0000001124134  -0.2865565274740     0.6     0.6
   38   0.0000001972134  -0.2865565603369     0.6     0.6
   39   0.0000004019386  -0.2865565002112     0.6     0.6
   40   0.0000008495493  -0.2865566128967     0.6     0.6
 MICROCYCLE DIIS UPDATE:                   40                    5
   41   0.0000000179990  -0.2865565389740     0.6     0.6
 -----------------------------------------------------------------
 Iterations converged
 CCSD correlation energy / hartree =        -0.286556538974028
 CCSD total energy / hartree       =       -76.320614151560264

 Singles contributions

 Doubles contributions
     6a   (alpha)     7a   (alpha) ---     4a   (alpha)     5a   (alpha)        0.0211604711
     6a   (alpha)     7a   (alpha) ---     5a   (alpha)     4a   (alpha)       -0.0211604711
     6a   (alpha)     8a   (alpha) ---     3a   (alpha)     5a   (alpha)        0.0272682937
     6a   (alpha)     8a   (alpha) ---     5a   (alpha)     3a   (alpha)       -0.0272682937
     7a   (alpha)     6a   (alpha) ---     4a   (alpha)     5a   (alpha)       -0.0211604711
     7a   (alpha)     6a   (alpha) ---     5a   (alpha)     4a   (alpha)        0.0211604711
     7a   (alpha)     8a   (alpha) ---     3a   (alpha)     4a   (alpha)        0.0261936404
     7a   (alpha)     8a   (alpha) ---     4a   (alpha)     3a   (alpha)       -0.0261936404
     8a   (alpha)     6a   (alpha) ---     3a   (alpha)     5a   (alpha)       -0.0272682937
     8a   (alpha)     6a   (alpha) ---     5a   (alpha)     3a   (alpha)        0.0272682937
     8a   (alpha)     7a   (alpha) ---     3a   (alpha)     4a   (alpha)       -0.0261936404
     8a   (alpha)     7a   (alpha) ---     4a   (alpha)     3a   (alpha)        0.0261936404
     6a   (alpha)     6a   (beta ) ---     5a   (alpha)     5a   (beta )       -0.1000055400
     6a   (alpha)     7a   (beta ) ---     5a   (alpha)     4a   (beta )       -0.0319690079
     6a   (alpha)     8a   (beta ) ---     5a   (alpha)     3a   (beta )       -0.0377565633
     7a   (alpha)     6a   (beta ) ---     4a   (alpha)     5a   (beta )       -0.0319690079
     7a   (alpha)     7a   (beta ) ---     4a   (alpha)     4a   (beta )       -0.0792986849
     7a   (alpha)     8a   (beta ) ---     4a   (alpha)     3a   (beta )       -0.0360450514
     8a   (alpha)     6a   (beta ) ---     3a   (alpha)     5a   (beta )       -0.0377565633
     8a   (alpha)     7a   (beta ) ---     3a   (alpha)     4a   (beta )       -0.0360450514
     8a   (alpha)     8a   (beta ) ---     3a   (alpha)     3a   (beta )       -0.0525132645
     8a   (alpha)    17a   (beta ) ---     3a   (alpha)     2a   (beta )       -0.0205471383
    17a   (alpha)     8a   (beta ) ---     2a   (alpha)     3a   (beta )       -0.0205471383
 Ground state specification:
 exp(T)|Ref>~(1+T)|Ref>
 ------- a(p)+/a(q) strings ----------

 singles norm

 doubles norm

 Reference string
  0.99503664440028061      :(1a)+ (2a)+ (3a)+ (4a)+ (5a)+ (1b)+ (2b)+ (3b)+ (4b)+ (5b)+ |0>

 Singles strings

 Doubles strings
  -9.9509176966898247E-002 :(6a)+ (6b)+ (5b)  (5a)  (1a)+ (2a)+ (3a)+ (4a)+ (5a)+ (1b)+ (2b)+ (3b)+ (4b)+ (5b)+ |0>
 -------------------------------------
 enrep_tce =    8.5074334365332227     
  EHF(total)         =       -76.03405761
  Shift (HFtot-HFA)  =         0.00000000
 ALL OCCUPIED ORBITALS ARE ACTIVE IN DUCC --> NO SHIFT
 Number of active orbitals                    8
 Number of active alpha electrons                    5
 Number of active beta electrons                    5
  nos                    10
  nvs                   106
 noas                     5
 nobs                     5
 nvas                    53
 nvbs                    53
 nactv                     3
 DUCC MODEL =                     3
 NONHF =  T
 F-T1 correlation    =   -5.3123065175559034E-005
 V-T1-T1 correlation =    1.2613767833550845E-005
 V-T2 correlation    =  -0.28651602967692519     
 Total correlation   =  -0.28655653897426719     
 F-T1(Ext) correlation         =   -5.0490812168917527E-005
 V-T1(Ext)-T1(Ext) correlation =    2.0388307292007369E-006
 V-T2(Ext) correlation         =  -0.19376689052187446     
 Total Ext correlation         =  -0.19381534250331417     
1-BODY TIME =    2.101 SECONDS.
  HHHH TIME =   12.520 SECONDS.
  PPPP TIME =    0.000 SECONDS.
  HHHP TIME =    3.452 SECONDS.
  PPPH TIME =    0.516 SECONDS.
  HPHP TIME =    0.250 SECONDS.
  HHPP TIME =    1.700 SECONDS.
 ONE-BODY UNITARY CHECK
 TWO-BODY UNITARY CHECK
 TWO-BODY ANTISYMMETRY CHECK
 TRANSFORMED ~FOCK~ MATRIX
    1    1       -20.4338600946
    1    2        -1.6631003235
    1    3        -0.0000000093
    1    4         0.0227329665
    1    5         0.0138680952
    1    6         0.0024048632
    1    7         0.0023230552
    1    8        -0.0000000168
    2    1        -1.6631003235
    2    2        -1.2890665100
    2    3        -0.0000001688
    2    4        -0.2520462573
    2    5        -0.2116404347
    2    6         0.0020400825
    2    7         0.0019384159
    2    8        -0.0000000070
    3    1        -0.0000000093
    3    2        -0.0000001688
    3    3        -0.5477922580
    3    4        -0.0000000981
    3    5        -0.0000000657
    3    6        -0.0000000215
    3    7        -0.0000000221
    3    8         0.0113335561
    4    1         0.0227329665
    4    2        -0.2520462573
    4    3        -0.0000000981
    4    4        -0.8020302566
    4    5        -0.0397329252
    4    6         0.0024470362
    4    7         0.0033867071
    4    8        -0.0000000096
    5    1         0.0138680952
    5    2        -0.2116404347
    5    3        -0.0000000657
    5    4        -0.0397329252
    5    5        -0.7381208249
    5    6         0.0044377474
    5    7         0.0020671076
    5    8        -0.0000000079
    6    1         0.0024048632
    6    2         0.0020400825
    6    3        -0.0000000215
    6    4         0.0024470362
    6    5         0.0044377474
    6    6         0.6386862045
    6    7        -0.0030174080
    6    8         0.0000001033
    7    1         0.0023230552
    7    2         0.0019384159
    7    3        -0.0000000221
    7    4         0.0033867071
    7    5         0.0020671076
    7    6        -0.0030174080
    7    7         0.8120254628
    7    8         0.0000001174
    8    1        -0.0000000168
    8    2        -0.0000000070
    8    3         0.0113335561
    8    4        -0.0000000096
    8    5        -0.0000000079
    8    6         0.0000001033
    8    7         0.0000001174
    8    8         1.1303193941
 begin_one_electron_integrals
    1    1       -32.8595401900
    1    2        -1.5837407156
    1    3         0.0000001347
    1    4         0.1534334264
    1    5         0.1271995365
    1    6        -0.2140416573
    1    7        -0.2020376078
    1    8        -0.0000002905
    2    1        -1.5837407156
    2    2        -7.8111518424
    2    3        -0.0000002042
    2    4        -0.2523978070
    2    5        -0.2036912605
    2    6         0.1154937217
    2    7         0.0836848585
    2    8         0.0000000191
    3    1         0.0000001347
    3    2        -0.0000002042
    3    3        -6.9675807816
    3    4        -0.0000000839
    3    5        -0.0000000805
    3    6        -0.0000000234
    3    7        -0.0000001047
    3    8         2.1040745895
    4    1         0.1534334264
    4    2        -0.2523978070
    4    3        -0.0000000839
    4    4        -6.7756381852
    4    5        -0.1235565725
    4    6         0.1432758549
    4    7         1.9713447054
    4    8         0.0000000596
    5    1         0.1271995365
    5    2        -0.2036912605
    5    3        -0.0000000805
    5    4        -0.1235565725
    5    5        -6.5002006703
    5    6         1.9991456584
    5    7        -0.1227344632
    5    8         0.0000000296
    6    1        -0.2140416573
    6    2         0.1154937217
    6    3        -0.0000000234
    6    4         0.1432758549
    6    5         1.9991456584
    6    6        -6.0759872616
    6    7         0.0559799314
    6    8        -0.0000003499
    7    1        -0.2020376078
    7    2         0.0836848585
    7    3        -0.0000001047
    7    4         1.9713447054
    7    5        -0.1227344632
    7    6         0.0559799314
    7    7        -6.1407469557
    7    8        -0.0000004498
    8    1        -0.0000002905
    8    2         0.0000000191
    8    3         2.1040745895
    8    4         0.0000000596
    8    5         0.0000000296
    8    6        -0.0000003499
    8    7        -0.0000004498
    8    8        -5.4787495748
 end_one_electron_integrals
 begin_two_electron_integrals
    1    1    1    1        4.8275890430
    1    1    1    2       -0.1219937831
    1    1    1    3       -0.0000001101
    1    1    1    4       -0.0960888886
    1    1    1    5       -0.0825706958
    1    1    1    6        0.1699589221
    1    1    1    7        0.1653961303
    1    1    1    8        0.0000002236
    1    2    1    1       -0.1219937831
    1    2    1    2        0.0168104573
    1    2    1    3        0.0000000016
    1    2    1    4        0.0005098970
    1    2    1    5        0.0003917568
    1    2    1    6       -0.0041533557
    1    2    1    7       -0.0036090830
    1    2    1    8       -0.0000000053
    1    3    1    1       -0.0000001101
    1    3    1    2        0.0000000016
    1    3    1    3        0.0239677422
    1    3    1    4        0.0000000024
    1    3    1    5        0.0000000025
    1    3    1    6       -0.0000000040
    1    3    1    7       -0.0000000025
    1    3    1    8       -0.0372805171
    1    4    1    1       -0.0960888886
    1    4    1    2        0.0005098970
    1    4    1    3        0.0000000024
    1    4    1    4        0.0193308212
    1    4    1    5        0.0028754022
    1    4    1    6       -0.0062899181
    1    4    1    7       -0.0328435864
    1    4    1    8       -0.0000000106
    1    5    1    1       -0.0825706958
    1    5    1    2        0.0003917568
    1    5    1    3        0.0000000025
    1    5    1    4        0.0028754022
    1    5    1    5        0.0175122939
    1    5    1    6       -0.0296436265
    1    5    1    7       -0.0019688488
    1    5    1    8       -0.0000000084
    1    6    1    1        0.1699589221
    1    6    1    2       -0.0041533557
    1    6    1    3       -0.0000000040
    1    6    1    4       -0.0062899181
    1    6    1    5       -0.0296436265
    1    6    1    6        0.0492325329
    1    6    1    7        0.0058829000
    1    6    1    8        0.0000000158
    1    7    1    1        0.1653961303
    1    7    1    2       -0.0036090830
    1    7    1    3       -0.0000000025
    1    7    1    4       -0.0328435864
    1    7    1    5       -0.0019688488
    1    7    1    6        0.0058829000
    1    7    1    7        0.0543835835
    1    7    1    8        0.0000000163
    1    8    1    1        0.0000002236
    1    8    1    2       -0.0000000053
    1    8    1    3       -0.0372805171
    1    8    1    4       -0.0000000106
    1    8    1    5       -0.0000000084
    1    8    1    6        0.0000000158
    1    8    1    7        0.0000000163
    1    8    1    8        0.0533582002
    1    1    2    1       -0.1219937831
    1    1    2    2        1.0593510462
    1    1    2    3        0.0000000073
    1    1    2    4       -0.0080247969
    1    1    2    5       -0.0071354711
    1    1    2    6       -0.0231906700
    1    1    2    7       -0.0157702576
    1    1    2    8       -0.0000000108
    1    2    2    1        0.0196823084
    1    2    2    2        0.0188079064
    1    2    2    3       -0.0000000025
    1    2    2    4       -0.0027518053
    1    2    2    5       -0.0023691192
    1    2    2    6        0.0027836491
    1    2    2    7        0.0030595892
    1    2    2    8        0.0000000041
    1    3    2    1        0.0000000013
    1    3    2    2       -0.0000000136
    1    3    2    3        0.0212761159
    1    3    2    4       -0.0000000019
    1    3    2    5       -0.0000000012
    1    3    2    6        0.0000000027
    1    3    2    7        0.0000000032
    1    3    2    8       -0.0196059624
    1    4    2    1        0.0003246450
    1    4    2    2       -0.0128669396
    1    4    2    3       -0.0000000024
    1    4    2    4        0.0138864457
    1    4    2    5       -0.0004070599
    1    4    2    6        0.0014536516
    1    4    2    7       -0.0148726882
    1    4    2    8        0.0000000008
    1    5    2    1        0.0002734185
    1    5    2    2       -0.0110934754
    1    5    2    3       -0.0000000016
    1    5    2    4       -0.0003458458
    1    5    2    5        0.0130350619
    1    5    2    6       -0.0142337251
    1    5    2    7        0.0032850882
    1    5    2    8        0.0000000012
    1    6    2    1       -0.0041434724
    1    6    2    2        0.0201568430
    1    6    2    3        0.0000000029
    1    6    2    4        0.0010907208
    1    6    2    5       -0.0232798119
    1    6    2    6        0.0221968300
    1    6    2    7       -0.0051666269
    1    6    2    8       -0.0000000021
    1    7    2    1       -0.0035729887
    1    7    2    2        0.0203527115
    1    7    2    3        0.0000000046
    1    7    2    4       -0.0257878491
    1    7    2    5        0.0045402677
    1    7    2    6       -0.0055205786
    1    7    2    7        0.0241501062
    1    7    2    8       -0.0000000016
    1    8    2    1       -0.0000000049
    1    8    2    2        0.0000000275
    1    8    2    3       -0.0363706602
    1    8    2    4       -0.0000000006
    1    8    2    5        0.0000000004
    1    8    2    6       -0.0000000025
    1    8    2    7       -0.0000000015
    1    8    2    8        0.0265938841
    1    1    3    1       -0.0000001101
    1    1    3    2        0.0000000073
    1    1    3    3        1.0251689052
    1    1    3    4       -0.0000000073
    1    1    3    5        0.0000000024
    1    1    3    6       -0.0000000026
    1    1    3    7        0.0000000172
    1    1    3    8       -0.5082909168
    1    2    3    1        0.0000000013
    1    2    3    2       -0.0000000023
    1    2    3    3        0.0148190140
    1    2    3    4       -0.0000000018
    1    2    3    5       -0.0000000013
    1    2    3    6        0.0000000024
    1    2    3    7        0.0000000028
    1    2    3    8       -0.0108161443
    1    3    3    1        0.0262346179
    1    3    3    2        0.0207359671
    1    3    3    3        0.0000000079
    1    3    3    4        0.0048371582
    1    3    3    5        0.0042665077
    1    3    3    6       -0.0069201723
    1    3    3    7       -0.0066214071
    1    3    3    8       -0.0000000104
    1    4    3    1        0.0000000017
    1    4    3    2       -0.0000000025
    1    4    3    3       -0.0030584981
    1    4    3    4        0.0000000041
    1    4    3    5       -0.0000000002
    1    4    3    6        0.0000000007
    1    4    3    7       -0.0000000035
    1    4    3    8        0.0029455199
    1    5    3    1        0.0000000021
    1    5    3    2       -0.0000000017
    1    5    3    3       -0.0026291437
    1    5    3    5        0.0000000038
    1    5    3    6       -0.0000000034
    1    5    3    7        0.0000000009
    1    5    3    8        0.0023876349
    1    6    3    1       -0.0000000043
    1    6    3    2        0.0000000037
    1    6    3    3        0.0041004263
    1    6    3    4        0.0000000005
    1    6    3    5       -0.0000000058
    1    6    3    6        0.0000000051
    1    6    3    7       -0.0000000014
    1    6    3    8       -0.0049640414
    1    7    3    1       -0.0000000025
    1    7    3    2        0.0000000054
    1    7    3    3        0.0034356762
    1    7    3    4       -0.0000000067
    1    7    3    5        0.0000000017
    1    7    3    6       -0.0000000021
    1    7    3    7        0.0000000051
    1    7    3    8       -0.0047091689
    1    8    3    1       -0.0374682353
    1    8    3    2       -0.0358352615
    1    8    3    3       -0.0000000114
    1    8    3    4       -0.0076891412
    1    8    3    5       -0.0068651636
    1    8    3    6        0.0091652148
    1    8    3    7        0.0087221188
    1    8    3    8        0.0000000118
    1    1    4    1       -0.0960888886
    1    1    4    2       -0.0080247969
    1    1    4    3       -0.0000000073
    1    1    4    4        0.9000902343
    1    1    4    5        0.0209770140
    1    1    4    6       -0.0363529660
    1    1    4    7       -0.4643039294
    1    1    4    8       -0.0000000443
    1    2    4    1        0.0003246450
    1    2    4    2       -0.0027626319
    1    2    4    3       -0.0000000017
    1    2    4    4        0.0104788036
    1    2    4    5       -0.0006159464
    1    2    4    6        0.0014525820
    1    2    4    7       -0.0075516857
    1    2    4    8        0.0000000017
    1    3    4    1        0.0000000017
    1    3    4    2       -0.0000000020
    1    3    4    3        0.0048555436
    1    3    4    4       -0.0000000024
    1    3    4    5       -0.0000000005
    1    3    4    6        0.0000000009
    1    3    4    7        0.0000000026
    1    3    4    8       -0.0033158660
    1    4    4    1        0.0206329217
    1    4    4    2        0.0134855478
    1    4    4    3        0.0000000042
    1    4    4    4        0.0063130882
    1    4    4    5        0.0027796184
    1    4    4    6       -0.0042569871
    1    4    4    7       -0.0052240953
    1    4    4    8       -0.0000000037
    1    5    4    1        0.0029403204
    1    5    4    2       -0.0002587040
    1    5    4    4       -0.0019081469
    1    5    4    5        0.0031398114
    1    5    4    6       -0.0028919252
    1    5    4    7        0.0024180178
    1    5    4    8        0.0000000006
    1    6    4    1       -0.0061992909
    1    6    4    2        0.0010645072
    1    6    4    3        0.0000000010
    1    6    4    4        0.0039011691
    1    6    4    5       -0.0048014559
    1    6    4    6        0.0043480722
    1    6    4    7       -0.0042857634
    1    6    4    8       -0.0000000008
    1    7    4    1       -0.0325069140
    1    7    4    2       -0.0253509862
    1    7    4    3       -0.0000000076
    1    7    4    4       -0.0153855219
    1    7    4    5       -0.0034666154
    1    7    4    6        0.0053930633
    1    7    4    7        0.0050628341
    1    7    4    8        0.0000000040
    1    8    4    1       -0.0000000105
    1    8    4    2       -0.0000000006
    1    8    4    3       -0.0077689338
    1    8    4    4        0.0000000003
    1    8    4    5       -0.0000000001
    1    8    4    6       -0.0000000001
    1    8    4    7       -0.0000000039
    1    8    4    8        0.0037588190
    1    1    5    1       -0.0825706958
    1    1    5    2       -0.0071354711
    1    1    5    3        0.0000000024
    1    1    5    4        0.0209770140
    1    1    5    5        0.8570342638
    1    1    5    6       -0.4557074898
    1    1    5    7        0.0253674595
    1    1    5    8       -0.0000000296
    1    2    5    1        0.0002734185
    1    2    5    2       -0.0023898786
    1    2    5    3       -0.0000000012
    1    2    5    4       -0.0006201608
    1    2    5    5        0.0100269759
    1    2    5    6       -0.0074402013
    1    2    5    7        0.0024589655
    1    2    5    8        0.0000000017
    1    3    5    1        0.0000000021
    1    3    5    2       -0.0000000013
    1    3    5    3        0.0042852404
    1    3    5    4       -0.0000000005
    1    3    5    5       -0.0000000022
    1    3    5    6        0.0000000022
    1    3    5    7        0.0000000006
    1    3    5    8       -0.0029805221
    1    4    5    1        0.0029403204
    1    4    5    2       -0.0003211167
    1    4    5    3       -0.0000000002
    1    4    5    4        0.0027958693
    1    4    5    5       -0.0019339412
    1    4    5    6        0.0021959247
    1    4    5    7       -0.0028540176
    1    4    5    8        0.0000000004
    1    5    5    1        0.0186479985
    1    5    5    2        0.0126018031
    1    5    5    3        0.0000000038
    1    5    5    4        0.0031205489
    1    5    5    5        0.0051777933
    1    5    5    6       -0.0052225070
    1    5    5    7       -0.0037447462
    1    5    5    8       -0.0000000036
    1    6    5    1       -0.0291690515
    1    6    5    2       -0.0228001794
    1    6    5    3       -0.0000000059
    1    6    5    4       -0.0048339552
    1    6    5    5       -0.0117226478
    1    6    5    6        0.0043501709
[...]
    8    1    3    6        0.0094965437
    8    1    3    7        0.0090378416
    8    1    3    8        0.0000000123
    8    2    3    1       -0.0196059624
    8    2    3    2       -0.0512866413
    8    2    3    3       -0.0000000247
    8    2    3    4       -0.0054186014
    8    2    3    5       -0.0048800142
    8    2    3    6        0.0122856624
    8    2    3    7        0.0113558727
    8    2    3    8        0.0000000280
    8    3    3    1       -0.0000000104
    8    3    3    2       -0.0000000255
    8    3    3    3       -0.2004786688
    8    3    3    4       -0.0000000036
    8    3    3    5       -0.0000000055
    8    3    3    6        0.0000000087
    8    3    3    7        0.0000000037
    8    3    3    8        0.1601625309
    8    4    3    1       -0.0033158660
    8    4    3    2       -0.0005069814
    8    4    3    3       -0.0000000033
    8    4    3    4       -0.0054431385
    8    4    3    5       -0.0004281477
    8    4    3    6        0.0027630907
    8    4    3    7        0.0169029004
    8    4    3    8        0.0000000157
    8    5    3    1       -0.0029805221
    8    5    3    2       -0.0000539983
    8    5    3    3       -0.0000000017
    8    5    3    4       -0.0003363080
    8    5    3    5       -0.0045614760
    8    5    3    6        0.0157369618
    8    5    3    7        0.0006005327
    8    5    3    8        0.0000000111
    8    6    3    1        0.0070905191
    8    6    3    2        0.0256927533
    8    6    3    3        0.0000000503
    8    6    3    4        0.0071366462
    8    6    3    5        0.0263586641
    8    6    3    6       -0.0185646995
    8    6    3    7       -0.0025192471
    8    6    3    8       -0.0000000272
    8    7    3    1        0.0068810858
    8    7    3    2        0.0243924499
    8    7    3    3        0.0000000570
    8    7    3    4        0.0284965515
    8    7    3    5        0.0034939720
    8    7    3    6       -0.0026811996
    8    7    3    7       -0.0179323273
    8    7    3    8       -0.0000000302
    8    8    3    1        0.0000000150
    8    8    3    2        0.0000000643
    8    8    3    3        0.6513835826
    8    8    3    4        0.0000000171
    8    8    3    5        0.0000000168
    8    8    3    6       -0.0000000146
    8    8    3    7       -0.0000000084
    8    8    3    8       -0.1844441807
    8    1    4    1       -0.0000000106
    8    1    4    2       -0.0000000006
    8    1    4    3       -0.0076891412
    8    1    4    4        0.0000000003
    8    1    4    5       -0.0000000001
    8    1    4    7       -0.0000000046
    8    1    4    8        0.0039894176
    8    2    4    1        0.0000000008
    8    2    4    2        0.0000000018
    8    2    4    3       -0.0050046521
    8    2    4    4        0.0000000002
    8    2    4    5       -0.0000000002
    8    2    4    6       -0.0000000021
    8    2    4    7        0.0000000046
    8    2    4    8        0.0041691305
    8    3    4    1        0.0029455199
    8    3    4    2        0.0042333447
    8    3    4    3       -0.0000000020
    8    3    4    4       -0.1424888411
    8    3    4    5       -0.0039006027
    8    3    4    6        0.0088178691
    8    3    4    7        0.1200796544
    8    3    4    8        0.0000000157
    8    4    4    1       -0.0000000037
    8    4    4    2        0.0000000072
    8    4    4    3       -0.0047942571
    8    4    4    4        0.0000000240
    8    4    4    5       -0.0000000016
    8    4    4    6        0.0000000038
    8    4    4    7        0.0000000323
    8    4    4    8        0.0168479422
    8    5    4    1        0.0000000004
    8    5    4    2       -0.0000000023
    8    5    4    3       -0.0003480836
    8    5    4    4       -0.0000000031
    8    5    4    5       -0.0000000021
    8    5    4    6        0.0000000010
    8    5    4    7        0.0000000016
    8    5    4    8        0.0016998378
    8    6    4    1       -0.0000000005
    8    6    4    2       -0.0000000056
    8    6    4    3        0.0072995784
    8    6    4    4        0.0000000314
    8    6    4    5        0.0000000029
    8    6    4    6       -0.0000000059
    8    6    4    7       -0.0000000183
    8    6    4    8       -0.0007244057
    8    7    4    1        0.0000000057
    8    7    4    2        0.0000000202
    8    7    4    3        0.0278574683
    8    7    4    4        0.0000000800
    8    7    4    5        0.0000000015
    8    7    4    6       -0.0000000040
    8    7    4    7       -0.0000000115
    8    7    4    8       -0.0066729543
    8    8    4    1       -0.0048331346
    8    8    4    2        0.0068096631
    8    8    4    3        0.0000000171
    8    8    4    4        0.5654999932
    8    8    4    5        0.0095765144
    8    8    4    6       -0.0117700602
    8    8    4    7       -0.1544868016
    8    8    4    8       -0.0000000103
    8    1    5    1       -0.0000000084
    8    1    5    2        0.0000000004
    8    1    5    3       -0.0068651636
    8    1    5    4       -0.0000000001
    8    1    5    5        0.0000000018
    8    1    5    6       -0.0000000042
    8    1    5    7        0.0000000006
    8    1    5    8        0.0035508697
    8    2    5    1        0.0000000012
    8    2    5    2        0.0000000046
    8    2    5    3       -0.0045288008
    8    2    5    4       -0.0000000001
    8    2    5    5        0.0000000008
    8    2    5    6        0.0000000039
    8    2    5    7       -0.0000000029
    8    2    5    8        0.0040557156
    8    3    5    1        0.0023876349
    8    3    5    2        0.0033806931
    8    3    5    3       -0.0000000042
    8    3    5    4       -0.0039348498
    8    3    5    5       -0.1329924204
    8    3    5    6        0.1179834921
    8    3    5    7       -0.0071039186
    8    3    5    8        0.0000000111
    8    4    5    1        0.0000000006
    8    4    5    2       -0.0000000023
    8    4    5    3       -0.0004431546
    8    4    5    4       -0.0000000019
    8    4    5    5       -0.0000000039
    8    4    5    6        0.0000000040
    8    4    5    7       -0.0000000012
    8    4    5    8        0.0016998378
    8    5    5    1       -0.0000000036
    8    5    5    2        0.0000000021
    8    5    5    3       -0.0038791412
    8    5    5    4       -0.0000000017
    8    5    5    5        0.0000000142
    8    5    5    6        0.0000000186
    8    5    5    7        0.0000000011
    8    5    5    8        0.0166852058
    8    6    5    1        0.0000000053
    8    6    5    2        0.0000000130
    8    6    5    3        0.0256417019
    8    6    5    4        0.0000000028
    8    6    5    5        0.0000000504
    8    6    5    6       -0.0000000177
    8    6    5    7       -0.0000000038
    8    6    5    8       -0.0061206906
    8    7    5    1       -0.0000000014
    8    7    5    2       -0.0000000093
    8    7    5    3        0.0037351458
    8    7    5    4        0.0000000016
    8    7    5    5        0.0000000312
    8    7    5    6       -0.0000000250
    8    7    5    7       -0.0000000029
    8    7    5    8        0.0003216677
    8    8    5    1       -0.0039871774
    8    8    5    2        0.0060815112
    8    8    5    3        0.0000000168
    8    8    5    4        0.0095765144
    8    8    5    5        0.5474630604
    8    8    5    6       -0.1574071663
    8    8    5    7        0.0092566577
    8    8    5    8       -0.0000000071
    8    1    6    1        0.0000000158
    8    1    6    2       -0.0000000025
    8    1    6    3        0.0091652148
    8    1    6    4       -0.0000000001
    8    1    6    5       -0.0000000037
    8    1    6    6        0.0000000066
    8    1    6    8       -0.0110407261
    8    2    6    1       -0.0000000021
    8    2    6    2       -0.0000000091
    8    2    6    3        0.0126614212
    8    2    6    4       -0.0000000018
    8    2    6    5        0.0000000034
    8    2    6    6       -0.0000000017
    8    2    6    7        0.0000000031
    8    2    6    8       -0.0087998578
    8    3    6    1       -0.0049640414
    8    3    6    2        0.0113027880
    8    3    6    3        0.0000000147
    8    3    6    4        0.0078114401
    8    3    6    5        0.1138105189
    8    3    6    6       -0.1657813674
    8    3    6    7        0.0039884251
    8    3    6    8       -0.0000000272
    8    4    6    1       -0.0000000008
    8    4    6    2       -0.0000000003
    8    4    6    3        0.0024427582
    8    4    6    4        0.0000000054
    8    4    6    5        0.0000000017
    8    4    6    6       -0.0000000097
    8    4    6    7       -0.0000000002
    8    4    6    8       -0.0007244057
    8    5    6    1        0.0000000043
    8    5    6    2        0.0000000027
    8    5    6    3        0.0160271654
    8    5    6    4        0.0000000005
    8    5    6    5        0.0000000243
    8    5    6    6        0.0000000062
    8    5    6    7       -0.0000000040
    8    5    6    8       -0.0061206906
    8    6    6    1       -0.0000000078
    8    6    6    2       -0.0000000097
    8    6    6    3       -0.0187298116
    8    6    6    4       -0.0000000058
    8    6    6    5       -0.0000000184
    8    6    6    6        0.0000000526
    8    6    6    7        0.0000000013
    8    6    6    8        0.0287229926
    8    7    6    1        0.0000000031
    8    7    6    2        0.0000000052
    8    7    6    3       -0.0028926505
    8    7    6    4       -0.0000000042
    8    7    6    5       -0.0000000250
    8    7    6    6        0.0000000337
    8    7    6    7        0.0000000050
    8    7    6    8        0.0060564097
    8    8    6    1        0.0071200232
    8    8    6    2       -0.0134104179
    8    8    6    3       -0.0000000146
    8    8    6    4       -0.0117700602
    8    8    6    5       -0.1574071663
    8    8    6    6        0.5725977829
    8    8    6    7       -0.0018080675
    8    8    6    8        0.0000000523
    8    1    7    1        0.0000000163
    8    1    7    2       -0.0000000015
    8    1    7    3        0.0087221188
    8    1    7    4       -0.0000000039
    8    1    7    5        0.0000000005
    8    1    7    7        0.0000000066
    8    1    7    8       -0.0106435225
    8    2    7    1       -0.0000000016
    8    2    7    2       -0.0000000048
    8    2    7    3        0.0117798961
    8    2    7    4        0.0000000029
    8    2    7    5       -0.0000000026
    8    2    7    6        0.0000000032
    8    2    7    7       -0.0000000023
    8    2    7    8       -0.0081090262
    8    3    7    1       -0.0047091689
    8    3    7    2        0.0093073248
    8    3    7    3        0.0000000114
    8    3    7    4        0.1150524912
    8    3    7    5       -0.0075401666
    8    3    7    6        0.0040583542
    8    3    7    7       -0.1741320837
    8    3    7    8       -0.0000000302
    8    4    7    1        0.0000000040
    8    4    7    2        0.0000000018
    8    4    7    3        0.0171491040
    8    4    7    4        0.0000000370
    8    4    7    5       -0.0000000020
    8    4    7    6        0.0000000002
    8    4    7    7        0.0000000154
    8    4    7    8       -0.0066729543
    8    5    7    1       -0.0000000010
    8    5    7    2       -0.0000000015
    8    5    7    3        0.0002869612
    8    5    7    4       -0.0000000006
    8    5    7    5        0.0000000028
    8    5    7    6       -0.0000000044
    8    5    7    7       -0.0000000066
    8    5    7    8        0.0003216677
    8    6    7    1        0.0000000028
    8    6    7    2        0.0000000046
    8    6    7    3       -0.0026938613
    8    6    7    4       -0.0000000183
    8    6    7    5       -0.0000000041
    8    6    7    6        0.0000000013
    8    6    7    7        0.0000000324
    8    6    7    8        0.0060564097
    8    7    7    1       -0.0000000096
    8    7    7    2       -0.0000000106
    8    7    7    3       -0.0180783334
    8    7    7    4       -0.0000000123
    8    7    7    5       -0.0000000028
    8    7    7    6        0.0000000050
    8    7    7    7        0.0000000807
    8    7    7    8        0.0302756052
    8    8    7    1        0.0066427838
    8    8    7    2       -0.0100008488
    8    8    7    3       -0.0000000084
    8    8    7    4       -0.1544868016
    8    8    7    5        0.0092566577
    8    8    7    6       -0.0018080675
    8    8    7    7        0.5892846005
    8    8    7    8        0.0000000595
    8    1    8    1        0.0533582002
    8    1    8    2        0.0265938841
    8    1    8    3        0.0000000118
    8    1    8    4        0.0037588190
    8    1    8    5        0.0033568188
    8    1    8    6       -0.0108874118
    8    1    8    7       -0.0104948649
    8    1    8    8       -0.0000000212
    8    2    8    1        0.0265938841
    8    2    8    2        0.0508207156
    8    2    8    3        0.0000000255
    8    2    8    4        0.0039433085
    8    2    8    5        0.0038317102
    8    2    8    6       -0.0095536227
    8    2    8    7       -0.0088182766
    8    2    8    8       -0.0000000392
    8    3    8    1        0.0000000118
    8    3    8    2        0.0000000255
    8    3    8    3        0.1544000233
    8    3    8    4        0.0000000125
    8    3    8    5        0.0000000087
    8    3    8    6       -0.0000000273
    8    3    8    7       -0.0000000304
    8    3    8    8       -0.1844441807
    8    4    8    1        0.0037588190
    8    4    8    2        0.0039433085
    8    4    8    3        0.0000000125
    8    4    8    4        0.0163926436
    8    4    8    5        0.0016097093
    8    4    8    6       -0.0006852581
    8    4    8    7       -0.0069050630
    8    4    8    8       -0.0000000103
    8    5    8    1        0.0033568188
    8    5    8    2        0.0038317102
    8    5    8    3        0.0000000087
    8    5    8    4        0.0016097093
    8    5    8    5        0.0169774747
    8    5    8    6       -0.0063349508
    8    5    8    7        0.0003761418
    8    5    8    8       -0.0000000071
    8    6    8    1       -0.0108874118
    8    6    8    2       -0.0095536227
    8    6    8    3       -0.0000000273
    8    6    8    4       -0.0006852581
    8    6    8    5       -0.0063349508
    8    6    8    6        0.0287229926
    8    6    8    7        0.0060564097
    8    6    8    8        0.0000000523
    8    7    8    1       -0.0104948649
    8    7    8    2       -0.0088182766
    8    7    8    3       -0.0000000304
    8    7    8    4       -0.0069050630
    8    7    8    5        0.0003761418
    8    7    8    6        0.0060564097
    8    7    8    7        0.0302756052
    8    7    8    8        0.0000000595
    8    8    8    1       -0.0000000212
    8    8    8    2       -0.0000000392
    8    8    8    3       -0.1844441807
    8    8    8    4       -0.0000000103
    8    8    8    5       -0.0000000071
    8    8    8    6        0.0000000523
    8    8    8    7        0.0000000595
    8    8    8    8        0.6135333568
 end_two_electron_integrals

 Parallel integral file used      16 records with       0 large values


 Task  times  cpu:       84.0s     wall:       89.0s


                                NWChem Input Module
                                -------------------


 Summary of allocated global arrays
-----------------------------------
  No active global arrays


MA_summarize_allocated_blocks: starting scan ...
MA_summarize_allocated_blocks: scan completed: 0 heap blocks, 0 stack blocks
MA usage statistics:

	allocation statistics:
					      heap	     stack
					      ----	     -----
	current number of blocks	         0	         0
	maximum number of blocks	        18	        42
	current total bytes		         0	         0
	maximum total bytes		  25775928	4725685688
	maximum total K-bytes		     25776	   4725686
	maximum total M-bytes		        26	      4726


                                     CITATION
                                     --------
                Please cite the following reference when publishing
                           results obtained with NWChem:

          E. Apra, E. J. Bylaska, W. A. de Jong, N. Govind, K. Kowalski,
       T. P. Straatsma, M. Valiev, H. J. J. van Dam, Y. Alexeev, J. Anchell,
       V. Anisimov, F. W. Aquino, R. Atta-Fynn, J. Autschbach, N. P. Bauman,
     J. C. Becca, D. E. Bernholdt, K. Bhaskaran-Nair, S. Bogatko, P. Borowski,
         J. Boschen, J. Brabec, A. Bruner, E. Cauet, Y. Chen, G. N. Chuev,
      C. J. Cramer, J. Daily, M. J. O. Deegan, T. H. Dunning Jr., M. Dupuis,
   K. G. Dyall, G. I. Fann, S. A. Fischer, A. Fonari, H. Fruchtl, L. Gagliardi,
      J. Garza, N. Gawande, S. Ghosh, K. Glaesemann, A. W. Gotz, J. Hammond,
       V. Helms, E. D. Hermes, K. Hirao, S. Hirata, M. Jacquelin, L. Jensen,
   B. G. Johnson, H. Jonsson, R. A. Kendall, M. Klemm, R. Kobayashi, V. Konkov,
      S. Krishnamoorthy, M. Krishnan, Z. Lin, R. D. Lins, R. J. Littlefield,
      A. J. Logsdail, K. Lopata, W. Ma, A. V. Marenich, J. Martin del Campo,
   D. Mejia-Rodriguez, J. E. Moore, J. M. Mullin, T. Nakajima, D. R. Nascimento,
    J. A. Nichols, P. J. Nichols, J. Nieplocha, A. Otero-de-la-Roza, B. Palmer,
    A. Panyala, T. Pirojsirikul, B. Peng, R. Peverati, J. Pittner, L. Pollack,
   R. M. Richard, P. Sadayappan, G. C. Schatz, W. A. Shelton, D. W. Silverstein,
   D. M. A. Smith, T. A. Soares, D. Song, M. Swart, H. L. Taylor, G. S. Thomas,
            V. Tipparaju, D. G. Truhlar, K. Tsemekhman, T. Van Voorhis,
      A. Vazquez-Mayagoitia, P. Verma, O. Villa, A. Vishnu, K. D. Vogiatzis,
        D. Wang, J. H. Weare, M. J. Williamson, T. L. Windus, K. Wolinski,
        A. T. Wong, Q. Wu, C. Yang, Q. Yu, M. Zacharias, Z. Zhang, Y. Zhao,
                                and R. J. Harrison
                        "NWChem: Past, present, and future
                         J. Chem. Phys. 152, 184102 (2020)
                               doi:10.1063/5.0004997

                                      AUTHORS
                                      -------
  E. Apra, E. J. Bylaska, N. Govind, K. Kowalski, M. Valiev, D. Mejia-Rodriguez,
       A. Kunitsa, N. P. Bauman, A. Panyala, W. A. de Jong, T. P. Straatsma,
        H. J. J. van Dam, D. Wang, T. L. Windus, J. Hammond, J. Autschbach,
    K. Bhaskaran-Nair, J. Brabec, K. Lopata, S. A. Fischer, S. Krishnamoorthy,
     M. Jacquelin, W. Ma, M. Klemm, O. Villa, Y. Chen, V. Anisimov, F. Aquino,
    S. Hirata, M. T. Hackler, Eric Hermes, L. Jensen, J. E. Moore, J. C. Becca,
      V. Konjkov, T. Risthaus, M. Malagoli, A. Marenich, A. Otero-de-la-Roza,
        J. Mullin, P. Nichols, R. Peverati, J. Pittner, Y. Zhao, P.-D. Fan,
        A. Fonari, M. J. Williamson, R. J. Harrison, J. R. Rehr, M. Dupuis,
     D. Silverstein, D. M. A. Smith, J. Nieplocha, V. Tipparaju, M. Krishnan,
     B. E. Van Kuiken, A. Vazquez-Mayagoitia, M. Swart, Q. Wu, T. Van Voorhis,
     A. A. Auer, M. Nooijen, L. D. Crosby, E. Brown, G. Cisneros, G. I. Fann,
   H. Fruchtl, J. Garza, K. Hirao, R. A. Kendall, J. A. Nichols, K. Tsemekhman,
    K. Wolinski, J. Anchell, D. E. Bernholdt, P. Borowski, T. Clark, D. Clerc,
   H. Dachsel, M. J. O. Deegan, K. Dyall, D. Elwood, E. Glendening, M. Gutowski,
   A. C. Hess, J. Jaffe, B. G. Johnson, J. Ju, R. Kobayashi, R. Kutteh, Z. Lin,
   R. Littlefield, X. Long, B. Meng, T. Nakajima, S. Niu, L. Pollack, M. Rosing,
   K. Glaesemann, G. Sandrone, M. Stave, H. Taylor, G. Thomas, J. H. van Lenthe,
                               A. T. Wong, Z. Zhang.

 Total times  cpu:       97.7s     wall:      111.6s
