 argument  1 = input.nw
  NWChem w/ OpenMP: maximum threads =    1



============================== echo of input deck ==============================
 echo
 start H2O
 title "H2O"

 memory total 24 gb

 geometry units bohr
 symmetry c1
        O  0.00000000  0.00000000  0.00000000
        H  0.00000000  3.871245  0.00000000
        H  1.72558000 -0.64860000  0.00000000
 end

 basis spherical
   * library cc-pVTZ
 end

 mcscf
   active  8
   actelec 10
   multiplicity 1
   maxiter 40
   vectors input h2o.mos
   vectors output h2o.mos
 end

 task mcscf

 scf
   vectors input h2o.mos
   vectors output h2o-trash.mos
   noscf
 end

 tce
   2eorb
   2emet 13
   ccsd
   maxiter 300
 end

# set tce:print_integrals T
# set tce:qorb 8
# set tce:qela 5
# set tce:qelb 5

 set tce:qducc T
 set tce:nactv 3
 set tce:nonhf T
 set tce:ducc_model 3

 set tce:printtol 0.02

 task tce
================================================================================


                                         
                                         


             Northwest Computational Chemistry Package (NWChem) 7.0.1
             --------------------------------------------------------


                    Environmental Molecular Sciences Laboratory
                       Pacific Northwest National Laboratory
                                Richland, WA 99352

                              Copyright (c) 1994-2020
                       Pacific Northwest National Laboratory
                            Battelle Memorial Institute

             NWChem is an open-source computational chemistry package
                        distributed under the terms of the
                      Educational Community License (ECL) 2.0
             A copy of the license is included with this distribution
                              in the LICENSE.TXT file

                                  ACKNOWLEDGMENT
                                  --------------

            This software and its documentation were developed at the
            EMSL at Pacific Northwest National Laboratory, a multiprogram
            national laboratory, operated for the U.S. Department of Energy
            by Battelle under Contract Number DE-AC05-76RL01830. Support
            for this work was provided by the Department of Energy Office
            of Biological and Environmental Research, Office of Basic
            Energy Sciences, and the Office of Advanced Scientific Computing.


           Job information
           ---------------

    hostname        = WE46210
    program         = /home/baum612/code/nwchem/bin/LINUX64/nwchem
    date            = Mon Mar 11 11:19:00 2024

    compiled        = Fri_Feb_16_11:09:52_2024
    source          = /home/baum612/code/nwchem
    nwchem branch   = 7.0.0
    nwchem revision = nwchem_on_git-4191-g39d87d64de
    ga revision     = 5.8.1
    use scalapack   = F
    input           = input.nw
    prefix          = H2O.
    data base       = ./H2O.db
    status          = startup
    nproc           =        1
    time left       =     -1s



           Memory information
           ------------------

    heap     =  805306362 doubles =   6144.0 Mbytes
    stack    =  805306367 doubles =   6144.0 Mbytes
    global   = 1610612736 doubles =  12288.0 Mbytes (distinct from heap & stack)
    total    = 3221225465 doubles =  24576.0 Mbytes
    verify   = yes
    hardfail = no 


           Directory information
           ---------------------

  0 permanent = .
  0 scratch   = .




                                NWChem Input Module
                                -------------------


                                        H2O
                                        ---
 Turning off AUTOSYM since
 SYMMETRY directive was detected!


          ------
          auto-z
          ------
  autoz: The atoms group into disjoint clusters
 cluster   1:    1    3
 cluster   2:    2
 Connecting clusters   1   2 via atoms    1    2 r = 2.05
  autoz: regenerating connections with new bonds
  no constraints, skipping    0.0000000000000000     
  no constraints, skipping    0.0000000000000000     


                             Geometry "geometry" -> ""
                             -------------------------

 Output coordinates in a.u. (scale by  1.000000000 to convert to a.u.)

  No.       Tag          Charge          X              Y              Z
 ---- ---------------- ---------- -------------- -------------- --------------
    1 O                    8.0000    -0.17255800    -0.32226450     0.00000000
    2 H                    1.0000    -0.17255800     3.54898050     0.00000000
    3 H                    1.0000     1.55302200    -0.97086450     0.00000000

      Atomic Mass 
      ----------- 

      O                 15.994910
      H                  1.007825


 Effective nuclear repulsion energy (a.u.)       6.6129028698

            Nuclear Dipole moment (a.u.) 
            ----------------------------
        X                 Y               Z
 ---------------- ---------------- ----------------
    -0.0000000000     0.0000000000     0.0000000000



                                Z-matrix (autoz)
                                -------- 

 Units are Angstrom for bonds and degrees for angles

      Type          Name      I     J     K     L     M      Value
      ----------- --------  ----- ----- ----- ----- ----- ----------
    1 Stretch                  1     2                       2.04857
    2 Stretch                  1     3                       0.97551
    3 Bend                     2     1     3               110.59992


            XYZ format geometry
            -------------------
     3
 geometry
 O                    -0.09131377    -0.17053504     0.00000000
 H                    -0.09131377     1.87803974     0.00000000
 H                     0.82182391    -0.51375941     0.00000000

 ==============================================================================
                                internuclear distances
 ------------------------------------------------------------------------------
       center one      |      center two      | atomic units |       a.u.
 ------------------------------------------------------------------------------
    3 H                |   1 O                |     1.84345  |     1.84345
 ------------------------------------------------------------------------------
                         number of included internuclear distances:          1
 ==============================================================================





 Summary of "ao basis" -> "" (spherical)
 ------------------------------------------------------------------------------
       Tag                 Description            Shells   Functions and Types
 ---------------- ------------------------------  ------  ---------------------
 *                          cc-pVTZ                   on all atoms 


                      Basis "ao basis" -> "ao basis" (spherical)
                      -----
  O (Oxygen)
  ----------
            Exponent  Coefficients 
       -------------- ---------------------------------------------------------
  1 S  1.53300000E+04  0.000508
  1 S  2.29900000E+03  0.003929
  1 S  5.22400000E+02  0.020243
  1 S  1.47300000E+02  0.079181
  1 S  4.75500000E+01  0.230687
  1 S  1.67600000E+01  0.433118
  1 S  6.20700000E+00  0.350260
  1 S  6.88200000E-01 -0.008154

  2 S  1.53300000E+04 -0.000115
  2 S  2.29900000E+03 -0.000895
  2 S  5.22400000E+02 -0.004636
  2 S  1.47300000E+02 -0.018724
  2 S  4.75500000E+01 -0.058463
  2 S  1.67600000E+01 -0.136463
  2 S  6.20700000E+00 -0.175740
  2 S  6.88200000E-01  0.603418

  3 S  1.75200000E+00  1.000000

  4 S  2.38400000E-01  1.000000

  5 P  3.44600000E+01  0.015928
  5 P  7.74900000E+00  0.099740
  5 P  2.28000000E+00  0.310492

  6 P  7.15600000E-01  1.000000

  7 P  2.14000000E-01  1.000000

  8 D  2.31400000E+00  1.000000

  9 D  6.45000000E-01  1.000000

 10 F  1.42800000E+00  1.000000

  H (Hydrogen)
  ------------
            Exponent  Coefficients 
       -------------- ---------------------------------------------------------
  1 S  3.38700000E+01  0.006068
  1 S  5.09500000E+00  0.045308
  1 S  1.15900000E+00  0.202822

  2 S  3.25800000E-01  1.000000

  3 S  1.02700000E-01  1.000000

  4 P  1.40700000E+00  1.000000

  5 P  3.88000000E-01  1.000000

  6 D  1.05700000E+00  1.000000



 Summary of "ao basis" -> "ao basis" (spherical)
 ------------------------------------------------------------------------------
       Tag                 Description            Shells   Functions and Types
 ---------------- ------------------------------  ------  ---------------------
 O                          cc-pVTZ                 10       30   4s3p2d1f
 H                          cc-pVTZ                  6       14   3s2p1d



                            NWChem Direct MCSCF Module
                            --------------------------


                                        H2O


     -----------------------------------
       Basis functions:             58
       Inactive shells:              0
       Active shells:                8
       Active electrons:            10
       Symmetry:                    a       
       Multiplicity:                 1
       Orbital rotations:          400
     -----------------------------------

     -----------------------------------
       E2 extrapolation:             F
       Conjugacy:                    T
       Micro CI relax:               T
       Canonical orbitals:           T
       Maximum iterations:          40
       Converge threshold:    1.00E-04
       Conjugacy resets:            20
       Initial levelshift:        0.10
     -----------------------------------

 Loading old vectors from job with title :

H2O


   input molecular orbitals = ./h2o.mos
  output molecular orbtials = ./h2o.mos

       No. of determinants:          3136


  Starting Orbital Energies
   -20.607181    -1.302718    -0.667855    -0.543463    -0.427943    -0.140466
    -0.026284    -0.013334     0.296668     0.383844     0.613368     0.772342
     0.783996     0.844746     0.879592     0.925197     0.968111     1.318623
     1.363117     1.730247     1.826187     2.029867     2.042513     2.170252
     2.606376     2.774948     3.431882     3.434256     3.446261     3.446984
     3.473749     3.513626     3.559135     3.615880     3.761976     3.877085
     3.929681     3.966644     4.030966     4.094413     4.192479     4.401806
     4.455711     4.729840     5.140189     5.550488     5.578775     5.802620
     5.826584     6.722170     6.786851     6.824644     6.837544     6.983312
     7.061274     7.075522     7.532648    10.845162

  Orbital Symmetry Irreps
a    a    a    a    a    a    a    a    a    a    a    a    a    a    a   
a    a    a    a    a    a    a    a    a    a    a    a    a    a    a   
a    a    a    a    a    a    a    a    a    a    a    a    a    a    a   
a    a    a    a    a    a    a    a    a    a    a    a    a   

 Integral file          = ./H2O.aoints.0
 Record size in doubles =  65536        No. of integs per rec  =  43688
 Max. records in memory =     49        Max. records in file   = 248739
 No. of bits per label  =      8        No. of bits per value  =     64


 #quartets = 3.206D+04 #integrals = 6.491D+05 #direct =  0.0% #cached =100.0%




          %%%%% MacroIteration   1 %%%%%


          Number of sigma calls:       24
                       o<<<<< (aa):             0.00
                       o<<<<< (bb):             0.01
                       o<<<<< (ab):             0.08
                       o<<<<< (total)           0.09
                       o<<<<< (aa) ff           0.00
                       o<<<<< (aa) gop          0.00
                       o<<<<< (aa) dot          0.00
                       o<<<<< (ab) str          0.00
                       o<<<<< (ab) gath         0.00
                       o<<<<< (ab) dotab        0.00
                       o<<<<< (ab) scat         0.00
                       o<<<<< (ab) sync         0.00
                       o<<<<< Density           0.01
                       o<<<<< Density one       0.00
                       o<<<<< Density two       0.00
                       o<<<<< Density ab        0.01
                       o<<<<< Spin adapt        0.52
                       o<<<<< Symm adapt        0.00

                       o<<<<< (ab) max sync:      0.00

           >>>| Valence CI:            -82.598476948488
           >>>| MCSCF energy:          -75.985574078705
           >>>| Gradient norm:          0.160971913D-01

                              ----- Line search ------

        step       energy         lsg     num-lsg   num-lsh   lsrat    time
      ------- ---------------- --------- --------- --------- ------- --------
       0.0000     -75.98557408 -5.54D-05  0.00D+00  0.00D+00 0.0D+00      1.2

          Number of sigma calls:       23
                       o<<<<< (aa):             0.00
                       o<<<<< (bb):             0.01
                       o<<<<< (ab):             0.06
                       o<<<<< (total)           0.07
                       o<<<<< (aa) ff           0.00
                       o<<<<< (aa) gop          0.00
                       o<<<<< (aa) dot          0.00
                       o<<<<< (ab) str          0.00
                       o<<<<< (ab) gath         0.00
                       o<<<<< (ab) dotab        0.00
                       o<<<<< (ab) scat         0.00
                       o<<<<< (ab) sync         0.00
                       o<<<<< Density           0.01
                       o<<<<< Density one       0.00
                       o<<<<< Density two       0.00
                       o<<<<< Density ab        0.01
                       o<<<<< Spin adapt        0.55
                       o<<<<< Symm adapt        0.00

                       o<<<<< (ab) max sync:      0.00
       1.0000     -75.98560647 -9.31D-06 -9.34D-06  4.61D-05 1.7D-01      1.9

          Number of sigma calls:       20
                       o<<<<< (aa):             0.00
                       o<<<<< (bb):             0.00
                       o<<<<< (ab):             0.06
                       o<<<<< (total)           0.06
                       o<<<<< (aa) ff           0.00
                       o<<<<< (aa) gop          0.00
                       o<<<<< (aa) dot          0.00
                       o<<<<< (ab) str          0.00
                       o<<<<< (ab) gath         0.00
                       o<<<<< (ab) dotab        0.00
                       o<<<<< (ab) scat         0.00
                       o<<<<< (ab) sync         0.00
                       o<<<<< Density           0.01
                       o<<<<< Density one       0.00
                       o<<<<< Density two       0.00
                       o<<<<< Density ab        0.01
                       o<<<<< Spin adapt        0.41
                       o<<<<< Symm adapt        0.00

                       o<<<<< (ab) max sync:      0.00
       1.2019     -75.98560741  4.59D-08  4.47D-08  4.63D-05 8.3D-04      2.5
     --- Orbitals canonicalized ---



          %%%%% MacroIteration   2 %%%%%


          Number of sigma calls:       22
                       o<<<<< (aa):             0.00
                       o<<<<< (bb):             0.00
                       o<<<<< (ab):             0.06
                       o<<<<< (total)           0.07
                       o<<<<< (aa) ff           0.00
                       o<<<<< (aa) gop          0.00
                       o<<<<< (aa) dot          0.00
                       o<<<<< (ab) str          0.00
                       o<<<<< (ab) gath         0.00
                       o<<<<< (ab) dotab        0.00
                       o<<<<< (ab) scat         0.00
                       o<<<<< (ab) sync         0.00
                       o<<<<< Density           0.01
                       o<<<<< Density one       0.00
                       o<<<<< Density two       0.00
                       o<<<<< Density ab        0.01
                       o<<<<< Spin adapt        0.51
                       o<<<<< Symm adapt        0.00

                       o<<<<< (ab) max sync:      0.00

           >>>| Valence CI:            -82.598510276367
           >>>| MCSCF energy:          -75.985607406583
           >>>| Gradient norm:          0.266125746D-02
     --- Warning:    3 Hessian diagonals < 0.05 ---
     --- Conjugacy reset ---

                              ----- Line search ------

        step       energy         lsg     num-lsg   num-lsh   lsrat    time
      ------- ---------------- --------- --------- --------- ------- --------
       0.0000     -75.98560741 -2.04D-06  0.00D+00  0.00D+00 0.0D+00      3.3

          Number of sigma calls:       19
                       o<<<<< (aa):             0.00
                       o<<<<< (bb):             0.00
                       o<<<<< (ab):             0.05
                       o<<<<< (total)           0.06
                       o<<<<< (aa) ff           0.00
                       o<<<<< (aa) gop          0.00
                       o<<<<< (aa) dot          0.00
                       o<<<<< (ab) str          0.00
                       o<<<<< (ab) gath         0.00
                       o<<<<< (ab) dotab        0.00
                       o<<<<< (ab) scat         0.00
                       o<<<<< (ab) sync         0.00
                       o<<<<< Density           0.01
                       o<<<<< Density one       0.00
                       o<<<<< Density two       0.00
                       o<<<<< Density ab        0.01
                       o<<<<< Spin adapt        0.38
                       o<<<<< Symm adapt        0.00

                       o<<<<< (ab) max sync:      0.00
       1.0000     -75.98560861 -3.75D-07 -3.75D-07  1.66D-06 1.8D-01      3.9

          Number of sigma calls:       16
                       o<<<<< (aa):             0.00
                       o<<<<< (bb):             0.00
                       o<<<<< (ab):             0.06
                       o<<<<< (total)           0.06
                       o<<<<< (aa) ff           0.00
                       o<<<<< (aa) gop          0.00
                       o<<<<< (aa) dot          0.00
                       o<<<<< (ab) str          0.00
                       o<<<<< (ab) gath         0.00
                       o<<<<< (ab) dotab        0.00
                       o<<<<< (ab) scat         0.00
                       o<<<<< (ab) sync         0.00
                       o<<<<< Density           0.00
                       o<<<<< Density one       0.00
                       o<<<<< Density two       0.00
                       o<<<<< Density ab        0.00
                       o<<<<< Spin adapt        0.36
                       o<<<<< Symm adapt        0.00

                       o<<<<< (ab) max sync:      0.00
       1.2257     -75.98560866  1.90D-10  1.82D-10  1.66D-06 9.3D-05      4.4



          %%%%% MacroIteration   3 %%%%%


          Number of sigma calls:        1
                       o<<<<< (aa):             0.00
                       o<<<<< (bb):             0.00
                       o<<<<< (ab):             0.00
                       o<<<<< (total)           0.00
                       o<<<<< (aa) ff           0.00
                       o<<<<< (aa) gop          0.00
                       o<<<<< (aa) dot          0.00
                       o<<<<< (ab) str          0.00
                       o<<<<< (ab) gath         0.00
                       o<<<<< (ab) dotab        0.00
                       o<<<<< (ab) scat         0.00
                       o<<<<< (ab) sync         0.00
                       o<<<<< Density           0.00
                       o<<<<< Density one       0.00
                       o<<<<< Density two       0.00
                       o<<<<< Density ab        0.00
                       o<<<<< Spin adapt        0.00
                       o<<<<< Symm adapt        0.00

                       o<<<<< (ab) max sync:      0.00

           >>>| Valence CI:            -82.598511525311
           >>>| MCSCF energy:          -75.985608655528
           >>>| Gradient norm:          0.632901038D-03
     --- Warning:    3 Hessian diagonals < 0.05 ---

                              ----- Line search ------

        step       energy         lsg     num-lsg   num-lsh   lsrat    time
      ------- ---------------- --------- --------- --------- ------- --------
       0.0000     -75.98560866 -8.10D-08  0.00D+00  0.00D+00 0.0D+00      4.5

          Number of sigma calls:       15
                       o<<<<< (aa):             0.00
                       o<<<<< (bb):             0.00
                       o<<<<< (ab):             0.04
                       o<<<<< (total)           0.04
                       o<<<<< (aa) ff           0.00
                       o<<<<< (aa) gop          0.00
                       o<<<<< (aa) dot          0.00
                       o<<<<< (ab) str          0.00
                       o<<<<< (ab) gath         0.00
                       o<<<<< (ab) dotab        0.00
                       o<<<<< (ab) scat         0.00
                       o<<<<< (ab) sync         0.00
                       o<<<<< Density           0.02
                       o<<<<< Density one       0.00
                       o<<<<< Density two       0.00
                       o<<<<< Density ab        0.01
                       o<<<<< Spin adapt        0.41
                       o<<<<< Symm adapt        0.00

                       o<<<<< (ab) max sync:      0.00
       1.0000     -75.98560870 -1.33D-08 -1.33D-08  6.77D-08 1.6D-01      5.1

          Number of sigma calls:       12
                       o<<<<< (aa):             0.00
                       o<<<<< (bb):             0.00
                       o<<<<< (ab):             0.04
                       o<<<<< (total)           0.04
                       o<<<<< (aa) ff           0.00
                       o<<<<< (aa) gop          0.00
                       o<<<<< (aa) dot          0.00
                       o<<<<< (ab) str          0.00
                       o<<<<< (ab) gath         0.00
                       o<<<<< (ab) dotab        0.00
                       o<<<<< (ab) scat         0.00
                       o<<<<< (ab) sync         0.00
                       o<<<<< Density           0.00
                       o<<<<< Density one       0.00
                       o<<<<< Density two       0.00
                       o<<<<< Density ab        0.00
                       o<<<<< Spin adapt        0.30
                       o<<<<< Symm adapt        0.00

                       o<<<<< (ab) max sync:      0.00
       1.1963     -75.98560870 -4.45D-13 -2.49D-12  6.77D-08 5.5D-06      5.5



          %%%%% MacroIteration   4 %%%%%


          Number of sigma calls:        1
                       o<<<<< (aa):             0.00
                       o<<<<< (bb):             0.00
                       o<<<<< (ab):             0.00
                       o<<<<< (total)           0.00
                       o<<<<< (aa) ff           0.00
                       o<<<<< (aa) gop          0.00
                       o<<<<< (aa) dot          0.00
                       o<<<<< (ab) str          0.00
                       o<<<<< (ab) gath         0.00
                       o<<<<< (ab) dotab        0.00
                       o<<<<< (ab) scat         0.00
                       o<<<<< (ab) sync         0.00
                       o<<<<< Density           0.00
                       o<<<<< Density one       0.00
                       o<<<<< Density two       0.00
                       o<<<<< Density ab        0.00
                       o<<<<< Spin adapt        0.00
                       o<<<<< Symm adapt        0.00

                       o<<<<< (ab) max sync:      0.00

           >>>| Valence CI:            -82.598511573750
           >>>| MCSCF energy:          -75.985608703966
           >>>| Gradient norm:          0.121262350D-03
     --- Warning:    3 Hessian diagonals < 0.05 ---

                              ----- Line search ------

        step       energy         lsg     num-lsg   num-lsh   lsrat    time
      ------- ---------------- --------- --------- --------- ------- --------
       0.0000     -75.98560870 -3.53D-09  0.00D+00  0.00D+00 0.0D+00      5.6

          Number of sigma calls:       12
                       o<<<<< (aa):             0.00
                       o<<<<< (bb):             0.00
                       o<<<<< (ab):             0.06
                       o<<<<< (total)           0.07
                       o<<<<< (aa) ff           0.00
                       o<<<<< (aa) gop          0.00
                       o<<<<< (aa) dot          0.00
                       o<<<<< (ab) str          0.00
                       o<<<<< (ab) gath         0.00
                       o<<<<< (ab) dotab        0.00
                       o<<<<< (ab) scat         0.00
                       o<<<<< (ab) sync         0.00
                       o<<<<< Density           0.02
                       o<<<<< Density one       0.01
                       o<<<<< Density two       0.00
                       o<<<<< Density ab        0.01
                       o<<<<< Spin adapt        0.38
                       o<<<<< Symm adapt        0.00

                       o<<<<< (ab) max sync:      0.00
       1.0000     -75.98560871 -8.47D-10 -8.47D-10  2.68D-09 2.4D-01      6.2

          Number of sigma calls:       11
                       o<<<<< (aa):             0.00
                       o<<<<< (bb):             0.00
                       o<<<<< (ab):             0.04
                       o<<<<< (total)           0.04
                       o<<<<< (aa) ff           0.00
                       o<<<<< (aa) gop          0.00
                       o<<<<< (aa) dot          0.00
                       o<<<<< (ab) str          0.00
                       o<<<<< (ab) gath         0.00
                       o<<<<< (ab) dotab        0.00
                       o<<<<< (ab) scat         0.00
                       o<<<<< (ab) sync         0.00
                       o<<<<< Density           0.01
                       o<<<<< Density one       0.00
                       o<<<<< Density two       0.00
                       o<<<<< Density ab        0.01
                       o<<<<< Spin adapt        0.29
                       o<<<<< Symm adapt        0.00

                       o<<<<< (ab) max sync:      0.00
       1.3156     -75.98560871 -5.35D-14 -4.06D-13  2.68D-09 1.5D-05      6.7



          %%%%% MacroIteration   5 %%%%%


          Number of sigma calls:        1
                       o<<<<< (aa):             0.00
                       o<<<<< (bb):             0.00
                       o<<<<< (ab):             0.00
                       o<<<<< (total)           0.00
                       o<<<<< (aa) ff           0.00
                       o<<<<< (aa) gop          0.00
                       o<<<<< (aa) dot          0.00
                       o<<<<< (ab) str          0.00
                       o<<<<< (ab) gath         0.00
                       o<<<<< (ab) dotab        0.00
                       o<<<<< (ab) scat         0.00
                       o<<<<< (ab) sync         0.00
                       o<<<<< Density           0.01
                       o<<<<< Density one       0.00
                       o<<<<< Density two       0.00
                       o<<<<< Density ab        0.01
                       o<<<<< Spin adapt        0.00
                       o<<<<< Symm adapt        0.00

                       o<<<<< (ab) max sync:      0.00

           >>>| Valence CI:            -82.598511576072
           >>>| MCSCF energy:          -75.985608706289
           >>>| Gradient norm:          0.856758710D-05




     ==============================
            MCSCF Converged
     ==============================



          Canonical Eigenvalues

              1      
    1  -20.6084
    2   -1.3037
    3   -0.6689
    4   -0.5447
    5   -0.4194
    6   -0.1490
    7   -0.0263
    8   -0.0132
    9    0.2943
   10    0.3870
   11    0.6149
   12    0.7726
   13    0.7761
   14    0.8385
   15    0.8755
   16    0.9220
   17    0.9682
   18    1.3135
   19    1.3597
   20    1.7270
   21    1.8099
   22    2.0295
   23    2.0408
   24    2.1676
   25    2.5984
   26    2.7717
   27    3.4345
   28    3.4412
   29    3.4487
   30    3.4493
   31    3.4756
   32    3.5051
   33    3.5548
   34    3.5996
   35    3.7524
   36    3.8760
   37    3.9257
   38    3.9648
   39    4.0276
   40    4.0899
   41    4.1774
   42    4.4002
   43    4.4497
   44    4.7276
   45    5.1410
   46    5.5474
   47    5.5710
   48    5.8008
   49    5.8198
   50    6.7171
   51    6.7782
   52    6.8203
   53    6.8363
   54    6.9680
   55    7.0593
   56    7.0602
   57    7.5273
   58   10.8377


          Converged CI vector

   Index           Coefficient          Config. Occupation
         1         -0.84519924          1  2  3  4  5  1  2  3  4  5
         2         -0.18448008          1  2  3  4  5  1  2  3  4  6
        23         -0.05310671          1  2  3  4  5  1  2  3  5  8
         9         -0.03413927          1  2  3  4  5  1  2  4  5  7
        41         -0.02419639          1  2  3  4  5  1  2  5  7  8
        57         -0.18448008          1  2  3  4  6  1  2  3  4  5
        58          0.42944326          1  2  3  4  6  1  2  3  4  6
        83          0.03198312          1  2  3  4  6  1  2  3  6  8
        60         -0.02450814          1  2  3  4  6  1  2  4  5  6
        69          0.02184848          1  2  3  4  6  1  2  4  6  7
      1233         -0.05310671          1  2  3  5  8  1  2  3  4  5
      1255          0.04731938          1  2  3  5  8  1  2  3  5  8
      1241          0.02978346          1  2  3  5  8  1  2  4  5  7
      1458          0.03198312          1  2  3  6  8  1  2  3  4  6
      1483         -0.02666800          1  2  3  6  8  1  2  3  6  8
       170         -0.02450814          1  2  4  5  6  1  2  3  4  6
       449         -0.03413927          1  2  4  5  7  1  2  3  4  5
       471          0.02978346          1  2  4  5  7  1  2  3  5  8
       457          0.06312802          1  2  4  5  7  1  2  4  5  7
       458          0.02654569          1  2  4  5  7  1  3  4  5  7
       674          0.02184848          1  2  4  6  7  1  2  3  4  6
       685         -0.03386303          1  2  4  6  7  1  2  4  6  7
      2241         -0.02419639          1  2  5  7  8  1  2  3  4  5
       513          0.02654569          1  3  4  5  7  1  2  4  5  7
       514          0.02495318          1  3  4  5  7  1  3  4  5  7

          Number of sigma calls:        1
                       o<<<<< (aa):             0.00
                       o<<<<< (bb):             0.00
                       o<<<<< (ab):             0.00
                       o<<<<< (total)           0.00
                       o<<<<< (aa) ff           0.00
                       o<<<<< (aa) gop          0.00
                       o<<<<< (aa) dot          0.00
                       o<<<<< (ab) str          0.00
                       o<<<<< (ab) gath         0.00
                       o<<<<< (ab) dotab        0.00
                       o<<<<< (ab) scat         0.00
                       o<<<<< (ab) sync         0.00
                       o<<<<< Density           0.01
                       o<<<<< Density one       0.00
                       o<<<<< Density two       0.00
                       o<<<<< Density ab        0.00
                       o<<<<< Spin adapt        0.00
                       o<<<<< Symm adapt        0.00

                       o<<<<< (ab) max sync:      0.00



          Natural orbital occupation numbers

              1      
    1    2.0000
    2    1.9985
    3    1.9840
    4    1.9743
    5    1.5645
    6    0.4363
    7    0.0267
    8    0.0156


          Number of sigma calls:       23
                       o<<<<< (aa):             0.00
                       o<<<<< (bb):             0.01
                       o<<<<< (ab):             0.08
                       o<<<<< (total)           0.08
                       o<<<<< (aa) ff           0.00
                       o<<<<< (aa) gop          0.00
                       o<<<<< (aa) dot          0.00
                       o<<<<< (ab) str          0.00
                       o<<<<< (ab) gath         0.00
                       o<<<<< (ab) dotab        0.00
                       o<<<<< (ab) scat         0.00
                       o<<<<< (ab) sync         0.00
                       o<<<<< Density           0.00
                       o<<<<< Density one       0.00
                       o<<<<< Density two       0.00
                       o<<<<< Density ab        0.00
                       o<<<<< Spin adapt        0.54
                       o<<<<< Symm adapt        0.00

                       o<<<<< (ab) max sync:      0.00


       Final MCSCF results 
       ------------------- 

       Total MCSCF energy =    -75.985608706289
            Gradient norm =      8.6D-06

    CPU time for solution =      7.5s
   Wall time for solution =     13.5s



                        Analysis of MCSCF natural orbitals
                        ----------------------------------

 Vector    1  Occ=1.999992D+00  E=-2.060835D+01  Symmetry=a
              MO Center= -9.1D-02, -1.7D-01, -4.8D-09, r^2= 1.5D-02
   Bfn.  Coefficient  Atom+Function         Bfn.  Coefficient  Atom+Function  
  ----- ------------  ---------------      ----- ------------  ---------------
     1      0.974517  1 O  s          

 Vector    2  Occ=1.998489D+00  E=-1.303668D+00  Symmetry=a
              MO Center= -2.7D-01, -1.3D-01,  3.3D-06, r^2= 4.3D-01
   Bfn.  Coefficient  Atom+Function         Bfn.  Coefficient  Atom+Function  
  ----- ------------  ---------------      ----- ------------  ---------------
     2      0.551723  1 O  s                  4      0.403414  1 O  s          
     3      0.153794  1 O  s          

 Vector    3  Occ=1.984039D+00  E=-6.688593D-01  Symmetry=a
              MO Center= -6.2D-02, -1.8D-01, -3.3D-06, r^2= 6.2D-01
   Bfn.  Coefficient  Atom+Function         Bfn.  Coefficient  Atom+Function  
  ----- ------------  ---------------      ----- ------------  ---------------
    10      0.446524  1 O  pz                13      0.381032  1 O  pz         
     7      0.369666  1 O  pz         

 Vector    4  Occ=1.974324D+00  E=-5.447399D-01  Symmetry=a
              MO Center=  3.3D-01, -3.2D-01, -4.6D-08, r^2= 5.8D-01
   Bfn.  Coefficient  Atom+Function         Bfn.  Coefficient  Atom+Function  
  ----- ------------  ---------------      ----- ------------  ---------------
     8      0.335916  1 O  px                 5      0.280189  1 O  px         
    46      0.279824  3 H  s                 45      0.188184  3 H  s          
    11      0.183695  1 O  px         

 Vector    5  Occ=1.564495D+00  E=-4.193965D-01  Symmetry=a
              MO Center= -6.3D-02,  7.7D-01, -3.3D-09, r^2= 1.7D+00
   Bfn.  Coefficient  Atom+Function         Bfn.  Coefficient  Atom+Function  
  ----- ------------  ---------------      ----- ------------  ---------------
     9      0.308961  1 O  py                32      0.310054  2 H  s          
    33      0.254004  2 H  s                  6      0.242332  1 O  py         
    12      0.218123  1 O  py                31      0.150475  2 H  s          

 Vector    6  Occ=4.363370D-01  E=-1.489771D-01  Symmetry=a
              MO Center= -7.6D-02,  9.4D-01, -1.0D-09, r^2= 1.7D+00
   Bfn.  Coefficient  Atom+Function         Bfn.  Coefficient  Atom+Function  
  ----- ------------  ---------------      ----- ------------  ---------------
    32      0.418695  2 H  s                  9     -0.371215  1 O  py         
     6     -0.287717  1 O  py                33      0.270223  2 H  s          
    12     -0.192973  1 O  py                31      0.190392  2 H  s          

 Vector    7  Occ=2.670655D-02  E=-2.626471D-02  Symmetry=a
              MO Center=  5.1D-01, -3.8D-01, -1.7D-07, r^2= 6.1D-01
   Bfn.  Coefficient  Atom+Function         Bfn.  Coefficient  Atom+Function  
  ----- ------------  ---------------      ----- ------------  ---------------
    46      0.693191  3 H  s                  5     -0.484999  1 O  px         
     8     -0.423895  1 O  px                45      0.340508  3 H  s          
     2     -0.287041  1 O  s                  4     -0.250251  1 O  s          
     6      0.157654  1 O  py         

 Vector    8  Occ=1.561807D-02  E=-1.324398D-02  Symmetry=a
              MO Center=  4.0D-02, -2.1D-01, -4.3D-06, r^2= 1.2D+00
   Bfn.  Coefficient  Atom+Function         Bfn.  Coefficient  Atom+Function  
  ----- ------------  ---------------      ----- ------------  ---------------
    13      0.820284  1 O  pz                 7     -0.634659  1 O  pz         
    10     -0.287674  1 O  pz                53      0.159923  3 H  pz         

 Vector    9  Occ=0.000000D+00  E= 2.943473D-01  Symmetry=a
              MO Center=  1.1D+00, -6.9D-01,  1.3D-06, r^2= 3.6D+00
   Bfn.  Coefficient  Atom+Function         Bfn.  Coefficient  Atom+Function  
  ----- ------------  ---------------      ----- ------------  ---------------
    47      1.984515  3 H  s                  4     -1.274410  1 O  s          
    11     -0.579919  1 O  px                51     -0.430910  3 H  px         
    46     -0.256899  3 H  s                 52      0.173640  3 H  py         
    12      0.160286  1 O  py         

 Vector   10  Occ=0.000000D+00  E= 3.870252D-01  Symmetry=a
              MO Center= -1.2D-01,  2.1D+00,  5.2D-08, r^2= 3.2D+00
   Bfn.  Coefficient  Atom+Function         Bfn.  Coefficient  Atom+Function  
  ----- ------------  ---------------      ----- ------------  ---------------
    33      1.772083  2 H  s                 32     -1.317925  2 H  s          
    47     -0.437148  3 H  s                 12     -0.313645  1 O  py         
    46      0.282173  3 H  s                  4     -0.250790  1 O  s          

 Vector   11  Occ=0.000000D+00  E= 6.149261D-01  Symmetry=a
              MO Center= -4.7D-01,  5.3D-01, -1.2D-07, r^2= 2.3D+00
   Bfn.  Coefficient  Atom+Function         Bfn.  Coefficient  Atom+Function  
  ----- ------------  ---------------      ----- ------------  ---------------
    46      2.579995  3 H  s                  4     -2.089018  1 O  s          
    11     -2.067407  1 O  px                51     -0.788450  3 H  px         
    12      0.657685  1 O  py                37     -0.419094  2 H  px         
    47      0.338380  3 H  s                 52      0.228481  3 H  py         
    23     -0.180047  1 O  d  2              33     -0.177460  2 H  s          

 Vector   12  Occ=0.000000D+00  E= 7.725876D-01  Symmetry=a
              MO Center=  4.9D-02,  1.4D+00,  1.3D-06, r^2= 1.9D+00
   Bfn.  Coefficient  Atom+Function         Bfn.  Coefficient  Atom+Function  
  ----- ------------  ---------------      ----- ------------  ---------------
    39      0.931092  2 H  pz                53     -0.531751  3 H  pz         
    13      0.255373  1 O  pz         

 Vector   13  Occ=0.000000D+00  E= 7.760721D-01  Symmetry=a
              MO Center=  1.3D-02,  6.2D-01, -1.0D-06, r^2= 2.5D+00
   Bfn.  Coefficient  Atom+Function         Bfn.  Coefficient  Atom+Function  
  ----- ------------  ---------------      ----- ------------  ---------------
    12      0.834712  1 O  py                46      0.651135  3 H  s          
     9     -0.528021  1 O  py                38     -0.468345  2 H  py         
     4     -0.397364  1 O  s                 52      0.327510  3 H  py         
    11     -0.295023  1 O  px                32     -0.278720  2 H  s          
    37      0.247685  2 H  px                 6     -0.191791  1 O  py         

 Vector   14  Occ=0.000000D+00  E= 8.385439D-01  Symmetry=a
              MO Center=  7.1D-02,  6.9D-01,  7.5D-08, r^2= 2.9D+00
   Bfn.  Coefficient  Atom+Function         Bfn.  Coefficient  Atom+Function  
  ----- ------------  ---------------      ----- ------------  ---------------
     4      1.432918  1 O  s                 46     -1.430163  3 H  s          
    11      1.280703  1 O  px                52     -0.832330  3 H  py         
    37     -0.574316  2 H  px                38     -0.488785  2 H  py         
    47     -0.365982  3 H  s                 33      0.349435  2 H  s          
    32     -0.261806  2 H  s                 51      0.248046  3 H  px         

 Vector   15  Occ=0.000000D+00  E= 8.754826D-01  Symmetry=a
              MO Center=  1.1D-01,  7.0D-01, -1.8D-07, r^2= 2.9D+00
   Bfn.  Coefficient  Atom+Function         Bfn.  Coefficient  Atom+Function  
  ----- ------------  ---------------      ----- ------------  ---------------
    37      0.723571  2 H  px                11     -0.489298  1 O  px         
    52     -0.406957  3 H  py                47     -0.399240  3 H  s          
    38     -0.389602  2 H  py                 4      0.368521  1 O  s          
     2     -0.348707  1 O  s                 12     -0.345461  1 O  py         
    46      0.340078  3 H  s                  9      0.302206  1 O  py         

 Vector   16  Occ=0.000000D+00  E= 9.219850D-01  Symmetry=a
              MO Center=  3.5D-01,  2.5D-02, -3.4D-07, r^2= 2.5D+00
   Bfn.  Coefficient  Atom+Function         Bfn.  Coefficient  Atom+Function  
  ----- ------------  ---------------      ----- ------------  ---------------
    53      1.139272  3 H  pz                13     -0.913981  1 O  pz         
    39      0.512074  2 H  pz         

 Vector   17  Occ=0.000000D+00  E= 9.681943D-01  Symmetry=a
              MO Center=  5.4D-02, -4.8D-01,  1.6D-06, r^2= 2.4D+00
   Bfn.  Coefficient  Atom+Function         Bfn.  Coefficient  Atom+Function  
  ----- ------------  ---------------      ----- ------------  ---------------
     4      2.655053  1 O  s                 46     -1.766252  3 H  s          
    12     -1.492260  1 O  py                51      1.100174  3 H  px         
    11      0.778007  1 O  px                47     -0.765010  3 H  s          
     2     -0.611605  1 O  s                 52      0.568487  3 H  py         
     8      0.450488  1 O  px                38     -0.449590  2 H  py         

 Vector   18  Occ=0.000000D+00  E= 1.313486D+00  Symmetry=a
              MO Center= -7.6D-02,  4.8D-01,  2.2D-06, r^2= 2.2D+00
   Bfn.  Coefficient  Atom+Function         Bfn.  Coefficient  Atom+Function  
  ----- ------------  ---------------      ----- ------------  ---------------
     4      3.681555  1 O  s                 46     -2.121339  3 H  s          
    51      1.098048  3 H  px                11      1.046067  1 O  px         
    52     -0.865361  3 H  py                 2     -0.850875  1 O  s          
    38      0.778242  2 H  py                 8      0.650552  1 O  px         
    12      0.607743  1 O  py                47     -0.555374  3 H  s          


 Wrote Lagrangian and 1- and 2-particle density matrices to ./H2O.mcpdm


     Multipole analysis of the density
     ---------------------------------

     L   x y z        total        nuclear
     -   - - -        -----        -------
     0   0 0 0     -0.000000     10.000000

     1   1 0 0      0.570834     -0.000000
     1   0 1 0     -0.037640      0.000000
     1   0 0 1      0.000000      0.000000

     2   2 0 0     -4.472409      2.679864
     2   1 1 0     -0.656307     -1.675304
     2   1 0 1     -0.000000      0.000000
     2   0 2 0     -3.826627     14.368676
     2   0 1 1     -0.000000      0.000000
     2   0 0 2     -5.938803      0.000000


  Mulliken analysis of the total density
  --------------------------------------

    Atom       Charge   Shell Charges
 -----------   ------   -------------------------------------------------------
    1 O    8     8.28   1.95  1.06  0.25  0.64  1.21  1.95  1.20  0.00  0.01  0.00
    2 H    1     0.96   0.16  0.46  0.33 -0.00  0.00  0.00
    3 H    1     0.76   0.25  0.39  0.04  0.02  0.05  0.01

    Mulliken analysis of the active space density
    ---------------------------------------------

    Atom       Charge   Shell Charges
 -----------   ------   -------------------------------------------------------
    1 O    8     8.28   1.95  1.06  0.25  0.64  1.21  1.95  1.20  0.00  0.01  0.00
    2 H    1     0.96   0.16  0.46  0.33 -0.00  0.00  0.00
    3 H    1     0.76   0.25  0.39  0.04  0.02  0.05  0.01

 Parallel integral file used      15 records with       0 large values


 Task  times  cpu:        7.5s     wall:       13.6s


                                NWChem Input Module
                                -------------------


                                 NWChem SCF Module
                                 -----------------


                                        H2O



  ao basis        = "ao basis"
  functions       =    58
  atoms           =     3
  closed shells   =     5
  open shells     =     0
  charge          =   0.00
  wavefunction    = RHF 
  input vectors   = ./h2o.mos
  output vectors  = ./h2o-trash.mos
  use symmetry    = F
  symmetry adapt  = F


 Summary of "ao basis" -> "ao basis" (spherical)
 ------------------------------------------------------------------------------
       Tag                 Description            Shells   Functions and Types
 ---------------- ------------------------------  ------  ---------------------
 O                          cc-pVTZ                 10       30   4s3p2d1f
 H                          cc-pVTZ                  6       14   3s2p1d



 Forming initial guess at      13.6s


 Loading old vectors from job with title :

H2O


 Starting SCF solution at      13.6s



 ----------------------------------------------
         Quadratically convergent ROHF

 Convergence threshold     :          1.000E-04
 Maximum no. of iterations :           30
 Final Fock-matrix accuracy:          1.000E-07
 ----------------------------------------------


 Integral file          = ./H2O.aoints.0
 Record size in doubles =  65536        No. of integs per rec  =  43688
 Max. records in memory =     49        Max. records in file   = 248777
 No. of bits per label  =      8        No. of bits per value  =     64


 #quartets = 3.198D+04 #integrals = 6.432D+05 #direct =  0.0% #cached =100.0%



       Final RHF  results 
       ------------------ 

         Total SCF energy =    -75.797611206433
      One-electron energy =   -117.797142059885
      Two-electron energy =     35.386627983669
 Nuclear repulsion energy =      6.612902869783

        Time for solution =      0.1s


             Final eigenvalues
             -----------------

              1      
    1  -20.6084
    2   -1.3037
    3   -0.6689
    4   -0.5447
    5   -0.4194
    6   -0.1490
    7   -0.0263
    8   -0.0132
    9    0.2943
   10    0.3870
   11    0.6149
   12    0.7726
   13    0.7761
   14    0.8385
   15    0.8755

                       ROHF Final Molecular Orbital Analysis
                       -------------------------------------

 Vector    2  Occ=2.000000D+00  E=-1.303668D+00
              MO Center= -2.7D-01, -1.3D-01,  3.3D-06, r^2= 4.3D-01
   Bfn.  Coefficient  Atom+Function         Bfn.  Coefficient  Atom+Function  
  ----- ------------  ---------------      ----- ------------  ---------------
     2      0.551723  1 O  s                  4      0.403414  1 O  s          
     3      0.153794  1 O  s          

 Vector    3  Occ=2.000000D+00  E=-6.688593D-01
              MO Center= -6.2D-02, -1.8D-01, -3.3D-06, r^2= 6.2D-01
   Bfn.  Coefficient  Atom+Function         Bfn.  Coefficient  Atom+Function  
  ----- ------------  ---------------      ----- ------------  ---------------
    10      0.446524  1 O  pz                13      0.381032  1 O  pz         
     7      0.369666  1 O  pz         

 Vector    4  Occ=2.000000D+00  E=-5.447399D-01
              MO Center=  3.3D-01, -3.2D-01, -4.6D-08, r^2= 5.8D-01
   Bfn.  Coefficient  Atom+Function         Bfn.  Coefficient  Atom+Function  
  ----- ------------  ---------------      ----- ------------  ---------------
     8      0.335916  1 O  px                 5      0.280189  1 O  px         
    46      0.279824  3 H  s                 45      0.188184  3 H  s          
    11      0.183695  1 O  px         

 Vector    5  Occ=2.000000D+00  E=-4.193965D-01
              MO Center= -6.3D-02,  7.7D-01, -3.3D-09, r^2= 1.7D+00
   Bfn.  Coefficient  Atom+Function         Bfn.  Coefficient  Atom+Function  
  ----- ------------  ---------------      ----- ------------  ---------------
     9      0.308961  1 O  py                32      0.310054  2 H  s          
    33      0.254004  2 H  s                  6      0.242332  1 O  py         
    12      0.218123  1 O  py                31      0.150475  2 H  s          

 Vector    6  Occ=0.000000D+00  E=-1.489771D-01
              MO Center= -7.6D-02,  9.4D-01, -1.0D-09, r^2= 1.7D+00
   Bfn.  Coefficient  Atom+Function         Bfn.  Coefficient  Atom+Function  
  ----- ------------  ---------------      ----- ------------  ---------------
    32      0.418695  2 H  s                  9     -0.371215  1 O  py         
     6     -0.287717  1 O  py                33      0.270223  2 H  s          
    12     -0.192973  1 O  py                31      0.190392  2 H  s          

 Vector    7  Occ=0.000000D+00  E=-2.626471D-02
              MO Center=  5.1D-01, -3.8D-01, -1.7D-07, r^2= 6.1D-01
   Bfn.  Coefficient  Atom+Function         Bfn.  Coefficient  Atom+Function  
  ----- ------------  ---------------      ----- ------------  ---------------
    46      0.693191  3 H  s                  5     -0.484999  1 O  px         
     8     -0.423895  1 O  px                45      0.340508  3 H  s          
     2     -0.287041  1 O  s                  4     -0.250251  1 O  s          
     6      0.157654  1 O  py         

 Vector    8  Occ=0.000000D+00  E=-1.324398D-02
              MO Center=  4.0D-02, -2.1D-01, -4.3D-06, r^2= 1.2D+00
   Bfn.  Coefficient  Atom+Function         Bfn.  Coefficient  Atom+Function  
  ----- ------------  ---------------      ----- ------------  ---------------
    13      0.820284  1 O  pz                 7     -0.634659  1 O  pz         
    10     -0.287674  1 O  pz                53      0.159923  3 H  pz         

 Vector    9  Occ=0.000000D+00  E= 2.943473D-01
              MO Center=  1.1D+00, -6.9D-01,  1.3D-06, r^2= 3.6D+00
   Bfn.  Coefficient  Atom+Function         Bfn.  Coefficient  Atom+Function  
  ----- ------------  ---------------      ----- ------------  ---------------
    47      1.984515  3 H  s                  4     -1.274410  1 O  s          
    11     -0.579919  1 O  px                51     -0.430910  3 H  px         
    46     -0.256899  3 H  s                 52      0.173640  3 H  py         
    12      0.160286  1 O  py         

 Vector   10  Occ=0.000000D+00  E= 3.870252D-01
              MO Center= -1.2D-01,  2.1D+00,  5.2D-08, r^2= 3.2D+00
   Bfn.  Coefficient  Atom+Function         Bfn.  Coefficient  Atom+Function  
  ----- ------------  ---------------      ----- ------------  ---------------
    33      1.772083  2 H  s                 32     -1.317925  2 H  s          
    47     -0.437148  3 H  s                 12     -0.313645  1 O  py         
    46      0.282173  3 H  s                  4     -0.250790  1 O  s          

 Vector   11  Occ=0.000000D+00  E= 6.149261D-01
              MO Center= -4.7D-01,  5.3D-01, -1.2D-07, r^2= 2.3D+00
   Bfn.  Coefficient  Atom+Function         Bfn.  Coefficient  Atom+Function  
  ----- ------------  ---------------      ----- ------------  ---------------
    46      2.579995  3 H  s                  4     -2.089018  1 O  s          
    11     -2.067407  1 O  px                51     -0.788450  3 H  px         
    12      0.657685  1 O  py                37     -0.419094  2 H  px         
    47      0.338380  3 H  s                 52      0.228481  3 H  py         
    23     -0.180047  1 O  d  2              33     -0.177460  2 H  s          

 Vector   12  Occ=0.000000D+00  E= 7.725876D-01
              MO Center=  4.9D-02,  1.4D+00,  1.3D-06, r^2= 1.9D+00
   Bfn.  Coefficient  Atom+Function         Bfn.  Coefficient  Atom+Function  
  ----- ------------  ---------------      ----- ------------  ---------------
    39      0.931092  2 H  pz                53     -0.531751  3 H  pz         
    13      0.255373  1 O  pz         

 Vector   13  Occ=0.000000D+00  E= 7.760721D-01
              MO Center=  1.3D-02,  6.2D-01, -1.0D-06, r^2= 2.5D+00
   Bfn.  Coefficient  Atom+Function         Bfn.  Coefficient  Atom+Function  
  ----- ------------  ---------------      ----- ------------  ---------------
    12      0.834712  1 O  py                46      0.651135  3 H  s          
     9     -0.528021  1 O  py                38     -0.468345  2 H  py         
     4     -0.397364  1 O  s                 52      0.327510  3 H  py         
    11     -0.295023  1 O  px                32     -0.278720  2 H  s          
    37      0.247685  2 H  px                 6     -0.191791  1 O  py         

 Vector   14  Occ=0.000000D+00  E= 8.385439D-01
              MO Center=  7.1D-02,  6.9D-01,  7.5D-08, r^2= 2.9D+00
   Bfn.  Coefficient  Atom+Function         Bfn.  Coefficient  Atom+Function  
  ----- ------------  ---------------      ----- ------------  ---------------
     4      1.432918  1 O  s                 46     -1.430163  3 H  s          
    11      1.280703  1 O  px                52     -0.832330  3 H  py         
    37     -0.574316  2 H  px                38     -0.488785  2 H  py         
    47     -0.365982  3 H  s                 33      0.349435  2 H  s          
    32     -0.261806  2 H  s                 51      0.248046  3 H  px         

 Vector   15  Occ=0.000000D+00  E= 8.754826D-01
              MO Center=  1.1D-01,  7.0D-01, -1.8D-07, r^2= 2.9D+00
   Bfn.  Coefficient  Atom+Function         Bfn.  Coefficient  Atom+Function  
  ----- ------------  ---------------      ----- ------------  ---------------
    37      0.723571  2 H  px                11     -0.489298  1 O  px         
    52     -0.406957  3 H  py                47     -0.399240  3 H  s          
    38     -0.389602  2 H  py                 4      0.368521  1 O  s          
     2     -0.348707  1 O  s                 12     -0.345461  1 O  py         
    46      0.340078  3 H  s                  9      0.302206  1 O  py         


 center of mass
 --------------
 x =  -0.07599894 y =  -0.14193351 z =   0.00000000

 moments of inertia (a.u.)
 ------------------
          14.942091084884           1.441579521852           0.000000000000
           1.441579521852           2.833002082974           0.000000000000
           0.000000000000           0.000000000000          17.775093167857

  Mulliken analysis of the total density
  --------------------------------------

    Atom       Charge   Shell Charges
 -----------   ------   -------------------------------------------------------
    1 O    8     8.32   1.95  1.06  0.25  0.65  1.19  1.95  1.25  0.00  0.01  0.00
    2 H    1     0.93   0.15  0.44  0.34 -0.00  0.00  0.00
    3 H    1     0.76   0.25  0.39  0.03  0.02  0.06  0.01

       Multipole analysis of the density wrt the origin
       ------------------------------------------------

     L   x y z        total         open         nuclear
     -   - - -        -----         ----         -------
     0   0 0 0     -0.000000      0.000000     10.000000

     1   1 0 0      0.573331      0.000000     -0.000000
     1   0 1 0      0.093956      0.000000      0.000000
     1   0 0 1      0.000000      0.000000      0.000000

     2   2 0 0     -4.507554      0.000000      2.679864
     2   1 1 0     -0.745095      0.000000     -1.675304
     2   1 0 1     -0.000000      0.000000      0.000000
     2   0 2 0     -3.173320      0.000000     14.368676
     2   0 1 1     -0.000000      0.000000      0.000000
     2   0 0 2     -5.969977      0.000000      0.000000


 Parallel integral file used      15 records with       0 large values

                   NWChem Extensible Many-Electron Theory Module
                   ---------------------------------------------

              ======================================================
                   This portion of the program was automatically
                  generated by a Tensor Contraction Engine (TCE).
                  The development of this portion of the program
                 and TCE was supported by US Department of Energy,
                Office of Science, Office of Basic Energy Science.
                      TCE is a product of Battelle and PNNL.
              Please cite: S.Hirata, J.Phys.Chem.A 107, 9887 (2003).
              ======================================================

                                        H2O


            General Information
            -------------------
      Number of processors :     1
         Wavefunction type : Restricted Hartree-Fock
          No. of electrons :    10
           Alpha electrons :     5
            Beta electrons :     5
           No. of orbitals :   116
            Alpha orbitals :    58
             Beta orbitals :    58
        Alpha frozen cores :     0
         Beta frozen cores :     0
     Alpha frozen virtuals :     0
      Beta frozen virtuals :     0
         Spin multiplicity : singlet 
    Number of AO functions :    58
       Number of AO shells :    22
        Use of symmetry is : off
      Symmetry adaption is : off
         Schwarz screening : 0.10D-09

          Correlation Information
          -----------------------
          Calculation type : Coupled-cluster singles & doubles                           
   Perturbative correction : none                                                        
            Max iterations :      300
        Residual threshold : 0.10D-06
     T(0) DIIS level shift : 0.00D+00
     L(0) DIIS level shift : 0.00D+00
     T(1) DIIS level shift : 0.00D+00
     L(1) DIIS level shift : 0.00D+00
     T(R) DIIS level shift : 0.00D+00
     T(I) DIIS level shift : 0.00D+00
   CC-T/L Amplitude update :  5-th order DIIS
                I/O scheme : Global Array Library
        L-threshold :  0.10D-06
        EOM-threshold :  0.10D-06
 no EOMCCSD initial starts read in
 TCE RESTART OPTIONS
 READ_INT:   F
 WRITE_INT:  F
 READ_TA:    F
 WRITE_TA:   F
 READ_XA:    F
 WRITE_XA:   F
 READ_IN3:   F
 WRITE_IN3:  F
 SLICE:      F
 D4D5:       F
 quantumc:   F
 qrotation:  F
 pwtce:      F
 qducc:      T
 nacto:                         0
 nrotv:                         0
 nrot:                          0

            Memory Information
            ------------------
          Available GA space size is    1610609372 doubles
          Available MA space size is    1610609772 doubles

 Maximum block size        32 doubles

 tile_dim =     27

 Block   Spin    Irrep     Size     Offset   Alpha
 -------------------------------------------------
   1    alpha     a      5 doubles       0       1
   2    beta      a      5 doubles       5       1
   3    alpha     a     26 doubles      10       3
   4    alpha     a     27 doubles      36       4
   5    beta      a     26 doubles      63       3
   6    beta      a     27 doubles      89       4

 Global array virtual files algorithm will be used

 Parallel file system coherency ......... OK

 Integral file          = ./H2O.aoints.0
 Record size in doubles =  65536        No. of integs per rec  =  43688
 Max. records in memory =     49        Max. records in file   = 248777
 No. of bits per label  =      8        No. of bits per value  =     64


 #quartets = 3.210D+04 #integrals = 6.582D+05 #direct =  0.0% #cached =100.0%


 Fock matrix recomputed
 1-e file size   =             3364
 1-e file name   = ./H2O.f1
 Cpu & wall time / sec            0.1            0.1
 4-electron integrals stored in orbital form

 v2    file size   =          3631290
 4-index algorithm nr.  13 is used
 imaxsize =       30
 imaxsize ichop =        0
 Cpu & wall time / sec            1.2            1.2
 T1-number-of-tasks                    2

 t1 file size   =              265
 t1 file name   = ./H2O.t1
 t1 file handle =       -998
 T2-number-of-boxes                    7

 t2 file size   =           122900
 t2 file name   = ./H2O.t2
 t2 file handle =       -996
CCSD iterations
 ---------------------------------------------------------
 Iter          Residuum       Correlation     Cpu    Wall 
 ---------------------------------------------------------
NEW TASK SCHEDULING
CCSD_T1_NTS --- OK
CCSD_T2_NTS --- OK
    1   1.0320922004638  -0.5126342024082     0.2     0.2
    2   1.8242181314275  -0.0081165085753     0.2     0.2
    3   3.3929568192065  -0.9443510748544     0.2     0.2
    4   6.5195855156168   0.7370414656337     0.2     0.2
    5  11.4307510410119  -2.6205990330893     0.2     0.2
 MICROCYCLE DIIS UPDATE:                    5                    5
    6   0.0756553230170  -0.3441028231549     0.2     0.2
    7   0.0931593856777  -0.3514515457377     0.2     0.2
    8   0.1831280408806  -0.3379111015515     0.3     0.3
    9   0.3775290919695  -0.3205150646575     0.2     0.3
   10   0.8115867270608  -0.1527753606782     0.2     0.2
 MICROCYCLE DIIS UPDATE:                   10                    5
   11   0.0110877501606  -0.3537031150697     0.2     0.2
   12   0.0123224767367  -0.3520508353913     0.2     0.2
   13   0.0261803957691  -0.3556314080627     0.2     0.3
   14   0.0618146202770  -0.3494092247149     0.3     0.3
   15   0.1495546680222  -0.3616294383045     0.2     0.2
 MICROCYCLE DIIS UPDATE:                   15                    5
   16   0.0007151715214  -0.3536776813375     0.2     0.2
   17   0.0004535400078  -0.3536752111920     0.2     0.3
   18   0.0006656488927  -0.3536745652112     0.2     0.2
   19   0.0014785525872  -0.3537335872995     0.2     0.2
   20   0.0035437023718  -0.3536027051993     0.2     0.2
 MICROCYCLE DIIS UPDATE:                   20                    5
   21   0.0000551882067  -0.3536996486465     0.1     0.2
   22   0.0000594502860  -0.3536942362830     0.2     0.2
   23   0.0001229138640  -0.3537049880201     0.2     0.2
   24   0.0002882503694  -0.3536860434567     0.2     0.2
   25   0.0006975285841  -0.3537263672573     0.2     0.2
 MICROCYCLE DIIS UPDATE:                   25                    5
   26   0.0000117940400  -0.3536995969085     0.2     0.2
   27   0.0000106566993  -0.3536997093701     0.2     0.2
   28   0.0000180083945  -0.3536988724337     0.2     0.2
   29   0.0000411622345  -0.3537009703746     0.2     0.2
   30   0.0000993411180  -0.3536963133505     0.2     0.2
 MICROCYCLE DIIS UPDATE:                   30                    5
   31   0.0000024534712  -0.3536995925926     0.2     0.2
   32   0.0000025445467  -0.3536993393901     0.2     0.2
   33   0.0000052390036  -0.3536997900731     0.2     0.2
   34   0.0000123266128  -0.3536989779512     0.2     0.2
   35   0.0000299765522  -0.3537006749742     0.2     0.2
 MICROCYCLE DIIS UPDATE:                   35                    5
   36   0.0000005422618  -0.3536995370970     0.2     0.2
   37   0.0000005128602  -0.3536995533339     0.2     0.2
   38   0.0000008899027  -0.3536995062530     0.3     0.3
   39   0.0000020427141  -0.3536996218936     0.3     0.3
   40   0.0000049188671  -0.3536993699802     0.3     0.3
 MICROCYCLE DIIS UPDATE:                   40                    5
   41   0.0000001183396  -0.3536995484305     0.2     0.3
   42   0.0000001189795  -0.3536995366390     0.2     0.3
   43   0.0000002444226  -0.3536995563456     0.2     0.2
   44   0.0000005785589  -0.3536995197270     0.2     0.3
   45   0.0000014141004  -0.3536995957197     0.2     0.2
 MICROCYCLE DIIS UPDATE:                   45                    5
   46   0.0000000256577  -0.3536995443967     0.2     0.2
 -----------------------------------------------------------------
 Iterations converged
 CCSD correlation energy / hartree =        -0.353699544396714
 CCSD total energy / hartree       =       -76.151310750829808

 Singles contributions
     6a   (alpha) ---     5a   (alpha)       -0.0481921767

 Doubles contributions
     7a   (alpha)     8a   (alpha) ---     3a   (alpha)     4a   (alpha)        0.0268945615
     7a   (alpha)     8a   (alpha) ---     4a   (alpha)     3a   (alpha)       -0.0268945615
     8a   (alpha)     7a   (alpha) ---     3a   (alpha)     4a   (alpha)       -0.0268945615
     8a   (alpha)     7a   (alpha) ---     4a   (alpha)     3a   (alpha)        0.0268945615
     6a   (alpha)     6a   (beta ) ---     3a   (alpha)     3a   (beta )       -0.0202893792
     6a   (alpha)     6a   (beta ) ---     5a   (alpha)     5a   (beta )       -0.4299126939
     6a   (alpha)     7a   (beta ) ---     5a   (alpha)     4a   (beta )       -0.0273522779
     6a   (alpha)     8a   (beta ) ---     5a   (alpha)     3a   (beta )       -0.0284232680
     7a   (alpha)     6a   (beta ) ---     4a   (alpha)     5a   (beta )       -0.0273522779
     7a   (alpha)     7a   (beta ) ---     4a   (alpha)     4a   (beta )       -0.0842582005
     7a   (alpha)     8a   (beta ) ---     4a   (alpha)     3a   (beta )       -0.0363322831
     8a   (alpha)     6a   (beta ) ---     3a   (alpha)     5a   (beta )       -0.0284232680
     8a   (alpha)     7a   (beta ) ---     3a   (alpha)     4a   (beta )       -0.0363322831
     8a   (alpha)     8a   (beta ) ---     3a   (alpha)     3a   (beta )       -0.0514427846
 Ground state specification:
 exp(T)|Ref>~(1+T)|Ref>
 ------- a(p)+/a(q) strings ----------

 singles norm

 doubles norm

 Reference string
  0.91869829255418456      :(1a)+ (2a)+ (3a)+ (4a)+ (5a)+ (1b)+ (2b)+ (3b)+ (4b)+ (5b)+ |0>

 Singles strings

 Doubles strings
 -0.39496005780081817      :(6a)+ (6b)+ (5b)  (5a)  (1a)+ (2a)+ (3a)+ (4a)+ (5a)+ (1b)+ (2b)+ (3b)+ (4b)+ (5b)+ |0>
 -------------------------------------
 enrep_tce =    6.6129028697831158     
  EHF(total)         =       -75.79761121
  Shift (HFtot-HFA)  =         0.00000000
 ALL OCCUPIED ORBITALS ARE ACTIVE IN DUCC --> NO SHIFT
 Number of active orbitals                    8
 Number of active alpha electrons                    5
 Number of active beta electrons                    5
  nos                    10
  nvs                   106
 noas                     5
 nobs                     5
 nvas                    53
 nvbs                    53
 nactv                     3
 DUCC MODEL =                     3
 NONHF =  T
 F-T1 correlation    =   -3.0572398410221961E-003
 V-T1-T1 correlation =    4.4495751838657857E-004
 V-T2 correlation    =  -0.35108726207400598     
 Total correlation   =  -0.35369954439664159     
 F-T1(Ext) correlation         =   -7.6127471279732620E-004
 V-T1(Ext)-T1(Ext) correlation =    1.6158222898334471E-005
 V-T2(Ext) correlation         =  -0.18946447367156311     
 Total Ext correlation         =  -0.19020959016146211     
1-BODY TIME =    0.648 SECONDS.
  HHHH TIME =    3.411 SECONDS.
  PPPP TIME =    0.000 SECONDS.
  HHHP TIME =    0.937 SECONDS.
  PPPH TIME =    0.233 SECONDS.
  HPHP TIME =    0.086 SECONDS.
  HHPP TIME =    0.511 SECONDS.
 ONE-BODY UNITARY CHECK
 TWO-BODY UNITARY CHECK
 TWO-BODY ANTISYMMETRY CHECK
 TRANSFORMED ~FOCK~ MATRIX
    1    1       -20.5837222881
    1    2        -1.0718638260
    1    3         0.0000013315
    1    4         0.0115809415
    1    5        -0.0039721115
    1    6         0.0006979125
    1    7         0.0028408865
    1    8        -0.0000000415
    2    1        -1.0718638260
    2    2        -1.2736482799
    2    3         0.0000029477
    2    4        -0.2571236896
    2    5        -0.0214503590
    2    6        -0.0103632811
    2    7         0.0039880796
    2    8        -0.0000000578
    3    1         0.0000013315
    3    2         0.0000029477
    3    3        -0.5802886355
    3    4         0.0000011751
    3    5         0.0000001163
    3    6         0.0000000488
    3    7        -0.0000000275
    3    8         0.0162503168
    4    1         0.0115809415
    4    2        -0.2571236896
    4    3         0.0000011751
    4    4        -0.8342610367
    4    5         0.0022777984
    4    6         0.0027574032
    4    7         0.0113326260
    4    8         0.0000000219
    5    1        -0.0039721115
    5    2        -0.0214503590
    5    3         0.0000001163
    5    4         0.0022777984
    5    5        -0.4464206456
    5    6         0.0426841479
    5    7        -0.0005758067
    5    8         0.0000000740
    6    1         0.0006979125
    6    2        -0.0103632811
    6    3         0.0000000488
    6    4         0.0027574032
    6    5         0.0426841479
    6    6         0.0022388223
    6    7        -0.0062017147
    6    8         0.0000000863
    7    1         0.0028408865
    7    2         0.0039880796
    7    3        -0.0000000275
    7    4         0.0113326260
    7    5        -0.0005758067
    7    6        -0.0062017147
    7    7         0.7492982660
    7    8        -0.0000000059
    8    1        -0.0000000415
    8    2        -0.0000000578
    8    3         0.0162503168
    8    4         0.0000000219
    8    5         0.0000000740
    8    6         0.0000000863
    8    7        -0.0000000059
    8    8         1.1266742868
 begin_one_electron_integrals
    1    1       -32.7126394646
    1    2        -0.7825274275
    1    3        -0.0000011314
    1    4         0.1321008250
    1    5        -0.0310021018
    1    6        -0.0599292042
    1    7        -0.2052185532
    1    8         0.0000028376
    2    1        -0.7825274275
    2    2        -7.6481762923
    2    3         0.0000033875
    2    4        -0.2667072761
    2    5         0.1181830524
    2    6         0.2057338297
    2    7         0.1117962999
    2    8         0.0000011501
    3    1        -0.0000011314
    3    2         0.0000033875
    3    3        -6.8802877244
    3    4         0.0000013620
    3    5        -0.0000005065
    3    6        -0.0000009521
    3    7        -0.0000010990
    3    8         1.9901081433
    4    1         0.1321008250
    4    2        -0.2667072761
    4    3         0.0000013620
    4    4        -6.6474009065
    4    5        -0.0555766256
    4    6        -0.0273506265
    4    7         1.8417739032
    4    8         0.0000016320
    5    1        -0.0310021018
    5    2         0.1181830524
    5    3        -0.0000005065
    5    4        -0.0555766256
    5    5        -4.9859253796
    5    6         2.1554485667
    5    7         0.0144029087
    5    8         0.0000014476
    6    1        -0.0599292042
    6    2         0.2057338297
    6    3        -0.0000009521
    6    4        -0.0273506265
    6    5         2.1554485667
    6    6        -4.9614520667
    6    7         0.0201657439
    6    8         0.0000006558
    7    1        -0.2052185532
    7    2         0.1117962999
    7    3        -0.0000010990
    7    4         1.8417739032
    7    5         0.0144029087
    7    6         0.0201657439
    7    7        -5.9301510069
    7    8         0.0000000619
    8    1         0.0000028376
    8    2         0.0000011501
    8    3         1.9901081433
    8    4         0.0000016320
    8    5         0.0000014476
    8    6         0.0000006558
    8    7         0.0000000619
    8    8        -5.2492907325
 end_one_electron_integrals
 begin_two_electron_integrals
    1    1    1    1        4.8115296681
    1    1    1    2       -0.2574352740
    1    1    1    3        0.0000019081
    1    1    1    4       -0.0890778913
    1    1    1    5        0.0183338076
    1    1    1    6        0.0412869394
    1    1    1    7        0.1695301489
    1    1    1    8       -0.0000023320
    1    2    1    1       -0.2574352740
    1    2    1    2        0.0307007839
    1    2    1    3       -0.0000000797
    1    2    1    4        0.0030453710
    1    2    1    5       -0.0022131491
    1    2    1    6       -0.0038014224
    1    2    1    7       -0.0093564628
    1    2    1    8        0.0000000907
    1    3    1    1        0.0000019081
    1    3    1    2       -0.0000000797
    1    3    1    3        0.0264159372
    1    3    1    4       -0.0000000346
    1    3    1    5        0.0000000135
    1    3    1    6        0.0000000246
    1    3    1    7        0.0000000861
    1    3    1    8       -0.0396310334
    1    4    1    1       -0.0890778913
    1    4    1    2        0.0030453710
    1    4    1    3       -0.0000000346
    1    4    1    4        0.0201667982
    1    4    1    5        0.0002432385
    1    4    1    6       -0.0006652802
    1    4    1    7       -0.0331467616
    1    4    1    8        0.0000000234
    1    5    1    1        0.0183338076
    1    5    1    2       -0.0022131491
    1    5    1    3        0.0000000135
    1    5    1    4        0.0002432385
    1    5    1    5        0.0131993158
    1    5    1    6       -0.0159268636
    1    5    1    7        0.0001853956
    1    5    1    8       -0.0000000256
    1    6    1    1        0.0412869394
    1    6    1    2       -0.0038014224
    1    6    1    3        0.0000000246
    1    6    1    4       -0.0006652802
    1    6    1    5       -0.0159268636
    1    6    1    6        0.0199183042
    1    6    1    7        0.0011259470
    1    6    1    8       -0.0000000215
    1    7    1    1        0.1695301489
    1    7    1    2       -0.0093564628
    1    7    1    3        0.0000000861
    1    7    1    4       -0.0331467616
    1    7    1    5        0.0001853956
    1    7    1    6        0.0011259470
    1    7    1    7        0.0526428691
    1    7    1    8       -0.0000000762
    1    8    1    1       -0.0000023320
    1    8    1    2        0.0000000907
    1    8    1    3       -0.0396310334
    1    8    1    4        0.0000000234
    1    8    1    5       -0.0000000256
    1    8    1    6       -0.0000000215
    1    8    1    7       -0.0000000762
    1    8    1    8        0.0540371186
    1    1    2    1       -0.2574352740
    1    1    2    2        1.0821656104
    1    1    2    3       -0.0000002003
    1    1    2    4       -0.0043469169
    1    1    2    5       -0.0361437311
    1    1    2    6       -0.0414349251
    1    1    2    7       -0.0255309695
    1    1    2    8       -0.0000001900
    1    2    2    1        0.0338899252
    1    2    2    2        0.0065695094
    1    2    2    3        0.0000000928
    1    2    2    4       -0.0042389200
    1    2    2    5       -0.0006428747
    1    2    2    6        0.0002309595
    1    2    2    7        0.0054011444
    1    2    2    8       -0.0000000948
    1    3    2    1       -0.0000000757
    1    3    2    2        0.0000002792
    1    3    2    3        0.0262876083
    1    3    2    4        0.0000000420
    1    3    2    5       -0.0000000034
    1    3    2    6       -0.0000000138
    1    3    2    7       -0.0000000624
    1    3    2    8       -0.0208753726
    1    4    2    1        0.0029138531
    1    4    2    2       -0.0141045325
    1    4    2    3        0.0000000509
    1    4    2    4        0.0169152658
    1    4    2    5        0.0009427035
    1    4    2    6        0.0011030490
    1    4    2    7       -0.0162512668
    1    4    2    8       -0.0000000423
    1    5    2    1       -0.0023499435
    1    5    2    2        0.0002089796
    1    5    2    3        0.0000000064
    1    5    2    4        0.0005465264
    1    5    2    5        0.0130177274
    1    5    2    6       -0.0140250000
    1    5    2    7       -0.0002344016
    1    5    2    8       -0.0000000093
    1    6    2    1       -0.0038651763
    1    6    2    2        0.0031135439
    1    6    2    3       -0.0000000051
    1    6    2    4        0.0006815622
    1    6    2    5       -0.0162122514
    1    6    2    6        0.0166855764
    1    6    2    7       -0.0013385327
    1    6    2    8        0.0000000094
    1    7    2    1       -0.0093686303
    1    7    2    2        0.0227947495
    1    7    2    3       -0.0000000791
    1    7    2    4       -0.0264681557
    1    7    2    5       -0.0011392214
    1    7    2    6       -0.0021328732
    1    7    2    7        0.0235585161
    1    7    2    8        0.0000000561
    1    8    2    1        0.0000000900
    1    8    2    2       -0.0000003949
    1    8    2    3       -0.0387039242
    1    8    2    4       -0.0000000850
    1    8    2    5       -0.0000000030
    1    8    2    6        0.0000000247
    1    8    2    7        0.0000000980
    1    8    2    8        0.0266876010
    1    1    3    1        0.0000019081
    1    1    3    2       -0.0000002003
    1    1    3    3        1.0495163443
    1    1    3    4       -0.0000000345
    1    1    3    5        0.0000001619
    1    1    3    6        0.0000001994
    1    1    3    7        0.0000002939
    1    1    3    8       -0.4977639162
    1    2    3    1       -0.0000000757
    1    2    3    2        0.0000000932
    1    2    3    3        0.0043887445
    1    2    3    4        0.0000000410
    1    2    3    5       -0.0000000001
    1    2    3    6       -0.0000000101
    1    2    3    7       -0.0000000627
    1    2    3    8       -0.0011364595
    1    3    3    1        0.0290370057
    1    3    3    2        0.0258377446
    1    3    3    3       -0.0000001990
    1    3    3    4        0.0053441871
    1    3    3    5       -0.0006579118
    1    3    3    6       -0.0020277407
    1    3    3    7       -0.0078514501
    1    3    3    8        0.0000001572
    1    4    3    1       -0.0000000333
    1    4    3    2        0.0000000490
    1    4    3    3       -0.0025660395
    1    4    3    4       -0.0000000818
    1    4    3    5       -0.0000000045
    1    4    3    6       -0.0000000051
    1    4    3    7        0.0000000790
    1    4    3    8        0.0033485442
    1    5    3    1        0.0000000137
    1    5    3    2        0.0000000057
    1    5    3    3        0.0015069036
    1    5    3    4       -0.0000000028
    1    5    3    5       -0.0000000621
    1    5    3    6        0.0000000661
    1    5    3    7        0.0000000016
    1    5    3    8       -0.0014346099
    1    6    3    1        0.0000000233
    1    6    3    2       -0.0000000048
    1    6    3    3        0.0019589322
    1    6    3    4       -0.0000000034
    1    6    3    5        0.0000000757
    1    6    3    6       -0.0000000782
    1    6    3    7        0.0000000072
    1    6    3    8       -0.0012339885
    1    7    3    1        0.0000000848
    1    7    3    2       -0.0000000786
    1    7    3    3        0.0032291463
    1    7    3    4        0.0000001227
    1    7    3    5        0.0000000048
    1    7    3    6        0.0000000094
    1    7    3    7       -0.0000001142
    1    7    3    8       -0.0054709180
    1    8    3    1       -0.0400009889
    1    8    3    2       -0.0381984137
    1    8    3    3        0.0000002985
    1    8    3    4       -0.0073617027
    1    8    3    5        0.0008683641
    1    8    3    6        0.0025988963
    1    8    3    7        0.0097029526
    1    8    3    8       -0.0000002007
    1    1    4    1       -0.0890778913
    1    1    4    2       -0.0043469169
    1    1    4    3       -0.0000000345
[...]
    8    2    3    1       -0.0208753726
    8    2    3    2       -0.0510344424
    8    2    3    3        0.0000002979
    8    2    3    4       -0.0025775714
    8    2    3    5        0.0020461125
    8    2    3    6        0.0049543436
    8    2    3    7        0.0112312065
    8    2    3    8       -0.0000002886
    8    3    3    1        0.0000001572
    8    3    3    2        0.0000004540
    8    3    3    3       -0.2000621979
    8    3    3    4        0.0000000045
    8    3    3    5       -0.0000000550
    8    3    3    6       -0.0000000997
    8    3    3    7       -0.0000001735
    8    3    3    8        0.1569280059
    8    4    3    1       -0.0023503996
    8    4    3    2        0.0055427340
    8    4    3    3       -0.0000001905
    8    4    3    4       -0.0020096172
    8    4    3    5       -0.0001681755
    8    4    3    6        0.0002325727
    8    4    3    7        0.0157342060
    8    4    3    8        0.0000000298
    8    5    3    1        0.0006038611
    8    5    3    2        0.0039177599
    8    5    3    3       -0.0000001693
    8    5    3    4        0.0002017284
    8    5    3    5       -0.0057820792
    8    5    3    6        0.0071533789
    8    5    3    7       -0.0000904516
    8    5    3    8        0.0000000712
    8    6    3    1        0.0020091393
    8    6    3    2        0.0091057396
    8    6    3    3       -0.0000001617
    8    6    3    4        0.0014378674
    8    6    3    5        0.0088293036
    8    6    3    6       -0.0111826654
    8    6    3    7       -0.0007433337
    8    6    3    8        0.0000000459
    8    7    3    1        0.0074458632
    8    7    3    2        0.0247741510
    8    7    3    3       -0.0000002899
    8    7    3    4        0.0280349303
    8    7    3    5       -0.0000021354
    8    7    3    6       -0.0007766768
    8    7    3    7       -0.0167413836
    8    7    3    8        0.0000000574
    8    8    3    1       -0.0000001804
    8    8    3    2       -0.0000009557
    8    8    3    3        0.6545965797
    8    8    3    4       -0.0000002236
    8    8    3    5        0.0000000843
    8    8    3    6        0.0000001227
    8    8    3    7        0.0000002251
    8    8    3    8       -0.1731779143
    8    1    4    1        0.0000000234
    8    1    4    2       -0.0000000850
    8    1    4    3       -0.0073617027
    8    1    4    4       -0.0000000799
    8    1    4    5       -0.0000000018
    8    1    4    6        0.0000000051
    8    1    4    7        0.0000000531
    8    1    4    8        0.0023792014
    8    2    4    1       -0.0000000423
    8    2    4    2       -0.0000000494
    8    2    4    3       -0.0024442007
    8    2    4    4       -0.0000000669
    8    2    4    5        0.0000000022
    8    2    4    6        0.0000000111
    8    2    4    7        0.0000001071
    8    2    4    8        0.0031096441
    8    3    4    1        0.0033485442
    8    3    4    2        0.0094042100
    8    3    4    3       -0.0000000010
    8    3    4    4       -0.1326906662
    8    3    4    5       -0.0031430679
    8    3    4    6       -0.0005840310
    8    3    4    7        0.1175966258
    8    3    4    8        0.0000000298
    8    4    4    1        0.0000000380
    8    4    4    2        0.0000000183
    8    4    4    3       -0.0018294476
    8    4    4    4       -0.0000001826
    8    4    4    5       -0.0000000069
    8    4    4    6       -0.0000000075
    8    4    4    7        0.0000000259
    8    4    4    8        0.0191205632
    8    5    4    1        0.0000000045
    8    5    4    2        0.0000000133
    8    5    4    3        0.0001345756
    8    5    4    4       -0.0000001069
    8    5    4    5       -0.0000000072
    8    5    4    6        0.0000000064
    8    5    4    7        0.0000000631
    8    5    4    8        0.0006695154
    8    6    4    1        0.0000000043
    8    6    4    2        0.0000000201
    8    6    4    3        0.0015183881
    8    6    4    4       -0.0000000598
    8    6    4    5        0.0000000017
    8    6    4    6       -0.0000000084
    8    6    4    7        0.0000000177
    8    6    4    8        0.0005823005
    8    7    4    1       -0.0000000621
    8    7    4    2       -0.0000000541
    8    7    4    3        0.0274191792
    8    7    4    4       -0.0000000972
    8    7    4    5        0.0000000121
    8    7    4    6        0.0000000022
    8    7    4    7        0.0000000281
    8    7    4    8       -0.0020462555
    8    8    4    1       -0.0046078654
    8    8    4    2        0.0107452931
    8    8    4    3       -0.0000002236
    8    8    4    4        0.5718200873
    8    8    4    5        0.0056320235
    8    8    4    6        0.0031755000
    8    8    4    7       -0.1383373523
    8    8    4    8       -0.0000002008
    8    1    5    1       -0.0000000256
    8    1    5    2       -0.0000000030
    8    1    5    3        0.0008683641
    8    1    5    4       -0.0000000020
    8    1    5    5       -0.0000000300
    8    1    5    6        0.0000000296
    8    1    5    7        0.0000000024
    8    1    5    8       -0.0008227962
    8    2    5    1       -0.0000000093
    8    2    5    2       -0.0000000071
    8    2    5    3        0.0023638735
    8    2    5    4        0.0000000025
    8    2    5    5       -0.0000000774
    8    2    5    6        0.0000000361
    8    2    5    7        0.0000000042
    8    2    5    8       -0.0008641705
    8    3    5    1       -0.0014346099
    8    3    5    2        0.0089282054
    8    3    5    3       -0.0000000558
    8    3    5    4       -0.0032447799
    8    3    5    5       -0.0970287866
    8    3    5    6        0.0922976227
    8    3    5    7        0.0013666950
    8    3    5    8        0.0000000712
    8    4    5    1        0.0000000001
    8    4    5    2        0.0000000126
    8    4    5    3       -0.0002258321
    8    4    5    4       -0.0000000068
    8    4    5    5       -0.0000000766
    8    4    5    6        0.0000000866
    8    4    5    7        0.0000000070
    8    4    5    8        0.0006695154
    8    5    5    1        0.0000000340
    8    5    5    2        0.0000000027
    8    5    5    3       -0.0050184736
    8    5    5    4       -0.0000000073
    8    5    5    5       -0.0000001014
    8    5    5    6        0.0000000687
    8    5    5    7       -0.0000000120
    8    5    5    8        0.0105473427
    8    6    5    1       -0.0000000402
    8    6    5    2       -0.0000000247
    8    6    5    3        0.0078961292
    8    6    5    4        0.0000000013
    8    6    5    5        0.0000000344
    8    6    5    6        0.0000001130
    8    6    5    7        0.0000000150
    8    6    5    8       -0.0079689508
    8    7    5    1        0.0000000006
    8    7    5    2        0.0000000013
    8    7    5    3        0.0000837813
    8    7    5    4        0.0000000126
    8    7    5    5       -0.0000000118
    8    7    5    6        0.0000000166
    8    7    5    7       -0.0000000101
    8    7    5    8        0.0004974860
    8    8    5    1        0.0019717362
    8    8    5    2       -0.0139134217
    8    8    5    3        0.0000000843
    8    8    5    4        0.0056320235
    8    8    5    5        0.4332747701
    8    8    5    6       -0.1894758098
    8    8    5    7       -0.0010203467
    8    8    5    8       -0.0000001556
    8    1    6    1       -0.0000000215
    8    1    6    2        0.0000000247
    8    1    6    3        0.0025988963
    8    1    6    4        0.0000000052
    8    1    6    5        0.0000000266
    8    1    6    6       -0.0000000374
    8    1    6    7       -0.0000000087
    8    1    6    8       -0.0029687218
    8    2    6    1        0.0000000094
    8    2    6    2        0.0000000653
    8    2    6    3        0.0057562966
    8    2    6    4        0.0000000116
    8    2    6    5        0.0000000478
    8    2    6    6       -0.0000000777
    8    2    6    7       -0.0000000113
    8    2    6    8       -0.0033082041
    8    3    6    1       -0.0012339885
    8    3    6    2        0.0137073826
    8    3    6    3       -0.0000000900
    8    3    6    4       -0.0008952467
    8    3    6    5        0.0939415413
    8    3    6    6       -0.1103149371
    8    3    6    7        0.0019606677
    8    3    6    8        0.0000000459
    8    4    6    1        0.0000000014
    8    4    6    2        0.0000000162
    8    4    6    3        0.0001321416
    8    4    6    4       -0.0000000074
    8    4    6    5        0.0000000848
    8    4    6    6       -0.0000000849
    8    4    6    7        0.0000000010
    8    4    6    8        0.0005823005
    8    5    6    1       -0.0000000366
    8    5    6    2       -0.0000000012
    8    5    6    3        0.0095883675
    8    5    6    4        0.0000000094
    8    5    6    5        0.0000000616
    8    5    6    6       -0.0000000615
    8    5    6    7        0.0000000110
    8    5    6    8       -0.0079689508
    8    6    6    1        0.0000000454
    8    6    6    2        0.0000000384
    8    6    6    3       -0.0099554181
    8    6    6    4       -0.0000000081
    8    6    6    5        0.0000001136
    8    6    6    6        0.0000000362
    8    6    6    7       -0.0000000178
    8    6    6    8        0.0099670008
    8    7    6    1       -0.0000000066
    8    7    6    2       -0.0000000237
    8    7    6    3       -0.0008952243
    8    7    6    4        0.0000000027
    8    7    6    5        0.0000000123
    8    7    6    6       -0.0000000128
    8    7    6    7       -0.0000000093
    8    7    6    8        0.0018384977
    8    8    6    1        0.0022715029
    8    8    6    2       -0.0178857330
    8    8    6    3        0.0000001227
    8    8    6    4        0.0031755000
    8    8    6    5       -0.1894758098
    8    8    6    6        0.4332905370
    8    8    6    7       -0.0005635558
    8    8    6    8       -0.0000001449
    8    1    7    1       -0.0000000762
    8    1    7    2        0.0000000980
    8    1    7    3        0.0097029526
    8    1    7    4        0.0000000441
    8    1    7    5        0.0000000019
    8    1    7    6       -0.0000000087
    8    1    7    7       -0.0000001100
    8    1    7    8       -0.0102705392
    8    2    7    1        0.0000000561
    8    2    7    2        0.0000001696
    8    2    7    3        0.0115520968
    8    2    7    4        0.0000001277
    8    2    7    5        0.0000000021
    8    2    7    6       -0.0000000105
    8    2    7    7       -0.0000000251
    8    2    7    8       -0.0054865505
    8    3    7    1       -0.0054709180
    8    3    7    2        0.0074767248
    8    3    7    3       -0.0000001536
    8    3    7    4        0.1109997781
    8    3    7    5        0.0009908903
    8    3    7    6        0.0020816211
    8    3    7    7       -0.1560023266
    8    3    7    8        0.0000000574
    8    4    7    1       -0.0000000528
    8    4    7    2        0.0000000084
    8    4    7    3        0.0162984493
    8    4    7    4        0.0000000204
    8    4    7    5        0.0000000065
    8    4    7    6       -0.0000000007
    8    4    7    7       -0.0000001656
    8    4    7    8       -0.0020462555
    8    5    7    1       -0.0000000059
    8    5    7    2       -0.0000000058
    8    5    7    3       -0.0000981168
    8    5    7    4        0.0000000611
    8    5    7    5       -0.0000000193
    8    5    7    6        0.0000000159
    8    5    7    7       -0.0000001129
    8    5    7    8        0.0004974860
    8    6    7    1       -0.0000000079
    8    6    7    2       -0.0000000195
    8    6    7    3       -0.0008252392
    8    6    7    4        0.0000000159
    8    6    7    5        0.0000000172
    8    6    7    6       -0.0000000178
    8    6    7    7       -0.0000000610
    8    6    7    8        0.0018384977
    8    7    7    1        0.0000000904
    8    7    7    2        0.0000000833
    8    7    7    3       -0.0170843762
    8    7    7    4        0.0000000213
    8    7    7    5       -0.0000000099
    8    7    7    6       -0.0000000093
    8    7    7    7       -0.0000000909
    8    7    7    8        0.0298559678
    8    8    7    1        0.0068601571
    8    8    7    2       -0.0116449311
    8    8    7    3        0.0000002251
    8    8    7    4       -0.1383373523
    8    8    7    5       -0.0010203467
    8    8    7    6       -0.0005635558
    8    8    7    7        0.5863115823
    8    8    7    8       -0.0000002370
    8    1    8    1        0.0540371186
    8    1    8    2        0.0266876010
    8    1    8    3       -0.0000002007
    8    1    8    4        0.0022596002
    8    1    8    5       -0.0009052116
    8    1    8    6       -0.0029282256
    8    1    8    7       -0.0101228446
    8    1    8    8        0.0000002724
    8    2    8    1        0.0266876010
    8    2    8    2        0.0498542541
    8    2    8    3       -0.0000002023
    8    2    8    4        0.0027400122
    8    2    8    5       -0.0011920152
    8    2    8    6       -0.0034538110
    8    2    8    7       -0.0063963360
    8    2    8    8        0.0000002767
    8    3    8    1       -0.0000002007
    8    3    8    2       -0.0000002023
    8    3    8    3        0.1486172671
    8    3    8    4        0.0000000415
    8    3    8    5        0.0000000646
    8    3    8    6        0.0000000422
    8    3    8    7        0.0000000490
    8    3    8    8       -0.1731779143
    8    4    8    1        0.0022596002
    8    4    8    2        0.0027400122
    8    4    8    3        0.0000000415
    8    4    8    4        0.0185108004
    8    4    8    5        0.0006932373
    8    4    8    6        0.0006248698
    8    4    8    7       -0.0020013377
    8    4    8    8       -0.0000002008
    8    5    8    1       -0.0009052116
    8    5    8    2       -0.0011920152
    8    5    8    3        0.0000000646
    8    5    8    4        0.0006932373
    8    5    8    5        0.0122581739
    8    5    8    6       -0.0087964843
    8    5    8    7        0.0005831247
    8    5    8    8       -0.0000001556
    8    6    8    1       -0.0029282256
    8    6    8    2       -0.0034538110
    8    6    8    3        0.0000000422
    8    6    8    4        0.0006248698
    8    6    8    5       -0.0087964843
    8    6    8    6        0.0099670008
    8    6    8    7        0.0018384977
    8    6    8    8       -0.0000001449
    8    7    8    1       -0.0101228446
    8    7    8    2       -0.0063963360
    8    7    8    3        0.0000000490
    8    7    8    4       -0.0020013377
    8    7    8    5        0.0005831247
    8    7    8    6        0.0018384977
    8    7    8    7        0.0298559678
    8    7    8    8       -0.0000002370
    8    8    8    1        0.0000002724
    8    8    8    2        0.0000002767
    8    8    8    3       -0.1731779143
    8    8    8    4       -0.0000002008
    8    8    8    5       -0.0000001556
    8    8    8    6       -0.0000001449
    8    8    8    7       -0.0000002370
    8    8    8    8        0.6052728465
 end_two_electron_integrals

 Parallel integral file used      16 records with       0 large values


 Task  times  cpu:       29.8s     wall:       31.5s


                                NWChem Input Module
                                -------------------


 Summary of allocated global arrays
-----------------------------------
  No active global arrays


MA_summarize_allocated_blocks: starting scan ...
MA_summarize_allocated_blocks: scan completed: 0 heap blocks, 0 stack blocks
MA usage statistics:

	allocation statistics:
					      heap	     stack
					      ----	     -----
	current number of blocks	         0	         0
	maximum number of blocks	        18	        42
	current total bytes		         0	         0
	maximum total bytes		  25775960	4725685720
	maximum total K-bytes		     25776	   4725686
	maximum total M-bytes		        26	      4726


                                     CITATION
                                     --------
                Please cite the following reference when publishing
                           results obtained with NWChem:

          E. Apra, E. J. Bylaska, W. A. de Jong, N. Govind, K. Kowalski,
       T. P. Straatsma, M. Valiev, H. J. J. van Dam, Y. Alexeev, J. Anchell,
       V. Anisimov, F. W. Aquino, R. Atta-Fynn, J. Autschbach, N. P. Bauman,
     J. C. Becca, D. E. Bernholdt, K. Bhaskaran-Nair, S. Bogatko, P. Borowski,
         J. Boschen, J. Brabec, A. Bruner, E. Cauet, Y. Chen, G. N. Chuev,
      C. J. Cramer, J. Daily, M. J. O. Deegan, T. H. Dunning Jr., M. Dupuis,
   K. G. Dyall, G. I. Fann, S. A. Fischer, A. Fonari, H. Fruchtl, L. Gagliardi,
      J. Garza, N. Gawande, S. Ghosh, K. Glaesemann, A. W. Gotz, J. Hammond,
       V. Helms, E. D. Hermes, K. Hirao, S. Hirata, M. Jacquelin, L. Jensen,
   B. G. Johnson, H. Jonsson, R. A. Kendall, M. Klemm, R. Kobayashi, V. Konkov,
      S. Krishnamoorthy, M. Krishnan, Z. Lin, R. D. Lins, R. J. Littlefield,
      A. J. Logsdail, K. Lopata, W. Ma, A. V. Marenich, J. Martin del Campo,
   D. Mejia-Rodriguez, J. E. Moore, J. M. Mullin, T. Nakajima, D. R. Nascimento,
    J. A. Nichols, P. J. Nichols, J. Nieplocha, A. Otero-de-la-Roza, B. Palmer,
    A. Panyala, T. Pirojsirikul, B. Peng, R. Peverati, J. Pittner, L. Pollack,
   R. M. Richard, P. Sadayappan, G. C. Schatz, W. A. Shelton, D. W. Silverstein,
   D. M. A. Smith, T. A. Soares, D. Song, M. Swart, H. L. Taylor, G. S. Thomas,
            V. Tipparaju, D. G. Truhlar, K. Tsemekhman, T. Van Voorhis,
      A. Vazquez-Mayagoitia, P. Verma, O. Villa, A. Vishnu, K. D. Vogiatzis,
        D. Wang, J. H. Weare, M. J. Williamson, T. L. Windus, K. Wolinski,
        A. T. Wong, Q. Wu, C. Yang, Q. Yu, M. Zacharias, Z. Zhang, Y. Zhao,
                                and R. J. Harrison
                        "NWChem: Past, present, and future
                         J. Chem. Phys. 152, 184102 (2020)
                               doi:10.1063/5.0004997

                                      AUTHORS
                                      -------
  E. Apra, E. J. Bylaska, N. Govind, K. Kowalski, M. Valiev, D. Mejia-Rodriguez,
       A. Kunitsa, N. P. Bauman, A. Panyala, W. A. de Jong, T. P. Straatsma,
        H. J. J. van Dam, D. Wang, T. L. Windus, J. Hammond, J. Autschbach,
    K. Bhaskaran-Nair, J. Brabec, K. Lopata, S. A. Fischer, S. Krishnamoorthy,
     M. Jacquelin, W. Ma, M. Klemm, O. Villa, Y. Chen, V. Anisimov, F. Aquino,
    S. Hirata, M. T. Hackler, Eric Hermes, L. Jensen, J. E. Moore, J. C. Becca,
      V. Konjkov, T. Risthaus, M. Malagoli, A. Marenich, A. Otero-de-la-Roza,
        J. Mullin, P. Nichols, R. Peverati, J. Pittner, Y. Zhao, P.-D. Fan,
        A. Fonari, M. J. Williamson, R. J. Harrison, J. R. Rehr, M. Dupuis,
     D. Silverstein, D. M. A. Smith, J. Nieplocha, V. Tipparaju, M. Krishnan,
     B. E. Van Kuiken, A. Vazquez-Mayagoitia, M. Swart, Q. Wu, T. Van Voorhis,
     A. A. Auer, M. Nooijen, L. D. Crosby, E. Brown, G. Cisneros, G. I. Fann,
   H. Fruchtl, J. Garza, K. Hirao, R. A. Kendall, J. A. Nichols, K. Tsemekhman,
    K. Wolinski, J. Anchell, D. E. Bernholdt, P. Borowski, T. Clark, D. Clerc,
   H. Dachsel, M. J. O. Deegan, K. Dyall, D. Elwood, E. Glendening, M. Gutowski,
   A. C. Hess, J. Jaffe, B. G. Johnson, J. Ju, R. Kobayashi, R. Kutteh, Z. Lin,
   R. Littlefield, X. Long, B. Meng, T. Nakajima, S. Niu, L. Pollack, M. Rosing,
   K. Glaesemann, G. Sandrone, M. Stave, H. Taylor, G. Thomas, J. H. van Lenthe,
                               A. T. Wong, Z. Zhang.

 Total times  cpu:       37.3s     wall:       45.1s
