 argument  1 = input.nw
  NWChem w/ OpenMP: maximum threads =    1
 


============================== echo of input deck ==============================

echo
start H8
title "H8"

memory total 120 gb

geometry units bohr
symmetry c1
H 0 0 0
H 0 0 1.80
H 0 0 3.60
H 0 0 5.40
H 0 0 7.20
H 0 0 9.00
H 0 0 10.80
H 0 0 12.60
end

basis spherical
  * library cc-pVTZ
end

scf
thresh 1e-8
end

tce
  2eorb
  2emet 13
  ccsd
  thresh 1e-8
  maxiter 300
end

set tce:print_integrals T
set tce:qorb 8
set tce:qela 4
set tce:qelb 4

# set tce:qducc T
# set tce:nactv 4
# set tce:nonhf T
# set tce:ducc_model 6

set tce:printtol 0.02

task tce
================================================================================


                                         
                                         
 
 
             Northwest Computational Chemistry Package (NWChem) 7.2.3
             --------------------------------------------------------
 
 
                    Environmental Molecular Sciences Laboratory
                       Pacific Northwest National Laboratory
                                Richland, WA 99352
 
                              Copyright (c) 1994-2022
                       Pacific Northwest National Laboratory
                            Battelle Memorial Institute
 
             NWChem is an open-source computational chemistry package
                        distributed under the terms of the
                      Educational Community License (ECL) 2.0
             A copy of the license is included with this distribution
                              in the LICENSE.TXT file
 
                                  ACKNOWLEDGMENT
                                  --------------

            This software and its documentation were developed at the
            EMSL at Pacific Northwest National Laboratory, a multiprogram
            national laboratory, operated for the U.S. Department of Energy
            by Battelle under Contract Number DE-AC05-76RL01830. Support
            for this work was provided by the Department of Energy Office
            of Biological and Environmental Research, Office of Basic
            Energy Sciences, and the Office of Advanced Scientific Computing.


           Job information
           ---------------

    hostname        = koothan
    program         = /hpc/home/baum612/code/nwchem/bin/LINUX64/nwchem
    date            = Fri Nov 15 13:13:38 2024

    compiled        = Wed_Nov_13_16:23:19_2024
    source          = /hpc/home/baum612/code/nwchem
    nwchem branch   = 7.2.3
    nwchem revision = v7.2.0-beta1-1280-g0779ca2e41
    ga revision     = 5.8.0
    use scalapack   = T
    input           = input.nw
    prefix          = H8.
    data base       = ./H8.db
    status          = startup
    nproc           =        1
    time left       =     -1s



           Memory information
           ------------------

    heap     =   4026531840 doubles =    30720.0 Mbytes
    stack    =   4026531837 doubles =    30720.0 Mbytes
    global   =   8053063680 doubles =    61440.0 Mbytes (distinct from heap & stack)
    total    =  16106127357 doubles =   122880.0 Mbytes
    verify   = yes
    hardfail = no 


           Directory information
           ---------------------
 
  0 permanent = .
  0 scratch   = .
 
 
 
 
                                NWChem Input Module
                                -------------------
 
 
                                        H8
                                        --
 Turning off AUTOSYM since
 SYMMETRY directive was detected!
 

          ------
          auto-z
          ------
  Looking for out-of-plane bends
  autoz: insufficient variables                      7                    18
     1 autoz failed with cvr_scaling = 1.2 changing to 1.3
  Looking for out-of-plane bends
  autoz: insufficient variables                      7                    18
     2 autoz failed with cvr_scaling = 1.3 changing to 1.4
  Looking for out-of-plane bends
  autoz: insufficient variables                      7                    18
     3 autoz failed with cvr_scaling = 1.4 changing to 1.5
  Looking for out-of-plane bends
  autoz: insufficient variables                      7                    18
     4 autoz failed with cvr_scaling = 1.5 changing to 1.6
  Looking for out-of-plane bends
  autoz: insufficient variables                      7                    18
     5 autoz failed with cvr_scaling = 1.6 changing to 1.7
  Looking for out-of-plane bends
  autoz: insufficient variables                      7                    18

 AUTOZ failed to generate good internal coordinates.
 Cartesian coordinates will be used in optimizations.

 
 
                             Geometry "geometry" -> ""
                             -------------------------
 
 Output coordinates in a.u. (scale by  1.000000000 to convert to a.u.)
 
  No.       Tag          Charge          X              Y              Z
 ---- ---------------- ---------- -------------- -------------- --------------
    1 H                    1.0000     0.00000000     0.00000000    -6.30000000
    2 H                    1.0000     0.00000000     0.00000000    -4.50000000
    3 H                    1.0000     0.00000000     0.00000000    -2.70000000
    4 H                    1.0000     0.00000000     0.00000000    -0.90000000
    5 H                    1.0000     0.00000000     0.00000000     0.90000000
    6 H                    1.0000     0.00000000     0.00000000     2.70000000
    7 H                    1.0000     0.00000000     0.00000000     4.50000000
    8 H                    1.0000     0.00000000     0.00000000     6.30000000
 
      Atomic Mass 
      ----------- 
 
      H                  1.007825
 

 Effective nuclear repulsion energy (a.u.)       7.6349206349

            Nuclear Dipole moment (a.u.) 
            ----------------------------
        X                 Y               Z
 ---------------- ---------------- ----------------
     0.0000000000     0.0000000000     0.0000000000
 
 
            XYZ format geometry
            -------------------
     8
 geometry
 H                     0.00000000     0.00000000    -3.33381667
 H                     0.00000000     0.00000000    -2.38129762
 H                     0.00000000     0.00000000    -1.42877857
 H                     0.00000000     0.00000000    -0.47625952
 H                     0.00000000     0.00000000     0.47625952
 H                     0.00000000     0.00000000     1.42877857
 H                     0.00000000     0.00000000     2.38129762
 H                     0.00000000     0.00000000     3.33381667
 


 Summary of "ao basis" -> "" (spherical)
 ------------------------------------------------------------------------------
       Tag                 Description            Shells   Functions and Types
 ---------------- ------------------------------  ------  ---------------------
 *                          cc-pVTZ                   on all atoms 


                      Basis "ao basis" -> "ao basis" (spherical)
                      -----
  H (Hydrogen)
  ------------
            Exponent  Coefficients 
       -------------- ---------------------------------------------------------
  1 S  3.38700000E+01  0.006068
  1 S  5.09500000E+00  0.045308
  1 S  1.15900000E+00  0.202822
 
  2 S  3.25800000E-01  1.000000
 
  3 S  1.02700000E-01  1.000000
 
  4 P  1.40700000E+00  1.000000
 
  5 P  3.88000000E-01  1.000000
 
  6 D  1.05700000E+00  1.000000
 


 Summary of "ao basis" -> "ao basis" (spherical)
 ------------------------------------------------------------------------------
       Tag                 Description            Shells   Functions and Types
 ---------------- ------------------------------  ------  ---------------------
 H                          cc-pVTZ                  6       14   3s2p1d


                                 NWChem SCF Module
                                 -----------------
 
 
                                        H8
 
 

  ao basis        = "ao basis"
  functions       =   112
  atoms           =     8
  closed shells   =     4
  open shells     =     0
  charge          =   0.00
  wavefunction    = RHF 
  input vectors   = atomic
  output vectors  = ./H8.movecs
  use symmetry    = F
  symmetry adapt  = F


 Summary of "ao basis" -> "ao basis" (spherical)
 ------------------------------------------------------------------------------
       Tag                 Description            Shells   Functions and Types
 ---------------- ------------------------------  ------  ---------------------
 H                          cc-pVTZ                  6       14   3s2p1d



 Forming initial guess at       1.8s

 
      Superposition of Atomic Density Guess
      -------------------------------------
 
 Sum of atomic energies:          -3.99847357
 
      Non-variational initial energy
      ------------------------------

 Total energy =      -3.776257
 1-e energy   =     -18.662701
 2-e energy   =       7.251524
 HOMO         =      -0.254273
 LUMO         =      -0.026476
 

 Starting SCF solution at       1.9s



 ----------------------------------------------
         Quadratically convergent ROHF

 Convergence threshold     :          1.000E-08
 Maximum no. of iterations :           30
 Final Fock-matrix accuracy:          1.000E-10
 ----------------------------------------------


              iter       energy          gnorm     gmax       time
             ----- ------------------- --------- --------- --------
                 1       -4.3072318856  2.90D-01  1.23D-01      2.4
                 2       -4.3213261900  7.77D-02  4.37D-02      3.5
                 3       -4.3222814641  4.34D-03  1.53D-03      4.8
                 4       -4.3222837924  3.21D-06  1.25D-06      7.0
                 5       -4.3222837924  4.80D-10  1.53D-10      9.5


       Final RHF  results 
       ------------------ 

         Total SCF energy =     -4.322283792382
      One-electron energy =    -19.333991091361
      Two-electron energy =      7.376786664058
 Nuclear repulsion energy =      7.634920634921

        Time for solution =      7.7s


             Final eigenvalues
             -----------------

              1      
    1   -0.7454
    2   -0.6612
    3   -0.5282
    4   -0.3555
    5    0.0531
    6    0.1923
    7    0.2882
    8    0.3109
    9    0.3257
   10    0.4373
   11    0.4423
   12    0.5414
   13    0.5414
   14    0.5703
 
                       ROHF Final Molecular Orbital Analysis
                       -------------------------------------
 
 Vector    1  Occ=2.000000D+00  E=-7.453514D-01
              MO Center=  8.2D-16,  8.9D-16, -1.7D-12, r^2= 2.7D+00
   Bfn.  Coefficient  Atom+Function         Bfn.  Coefficient  Atom+Function  
  ----- ------------  ---------------      ----- ------------  ---------------
    44      0.179433  4 H  s                 58      0.179433  5 H  s          
    30      0.161945  3 H  s                 72      0.161945  6 H  s          
 
 Vector    2  Occ=2.000000D+00  E=-6.611623D-01
              MO Center=  1.3D-16, -2.9D-16, -7.8D-13, r^2= 5.8D+00
   Bfn.  Coefficient  Atom+Function         Bfn.  Coefficient  Atom+Function  
  ----- ------------  ---------------      ----- ------------  ---------------
    16      0.180910  2 H  s                 86     -0.180910  7 H  s          
    30      0.163059  3 H  s                 72     -0.163059  6 H  s          
 
 Vector    3  Occ=2.000000D+00  E=-5.282228D-01
              MO Center=  9.2D-17,  1.1D-16, -2.6D-13, r^2= 7.0D+00
   Bfn.  Coefficient  Atom+Function         Bfn.  Coefficient  Atom+Function  
  ----- ------------  ---------------      ----- ------------  ---------------
    16      0.181744  2 H  s                 86      0.181744  7 H  s          
     2      0.179450  1 H  s                100      0.179450  8 H  s          
    17      0.165788  2 H  s                 87      0.165788  7 H  s          
    44     -0.157488  4 H  s                 58     -0.157488  5 H  s          
 
 Vector    4  Occ=2.000000D+00  E=-3.554724D-01
              MO Center= -7.3D-17,  1.2D-16,  5.8D-12, r^2= 6.5D+00
   Bfn.  Coefficient  Atom+Function         Bfn.  Coefficient  Atom+Function  
  ----- ------------  ---------------      ----- ------------  ---------------
    45      0.229928  4 H  s                 59     -0.229928  5 H  s          
    31      0.213688  3 H  s                 73     -0.213688  6 H  s          
    30      0.211655  3 H  s                 72     -0.211655  6 H  s          
     2     -0.180887  1 H  s                100      0.180887  8 H  s          
     3     -0.173652  1 H  s                101      0.173652  8 H  s          
 
 Vector    5  Occ=0.000000D+00  E= 5.313337D-02
              MO Center= -5.2D-17, -5.2D-17, -3.2D-11, r^2= 9.2D+00
   Bfn.  Coefficient  Atom+Function         Bfn.  Coefficient  Atom+Function  
  ----- ------------  ---------------      ----- ------------  ---------------
     3      0.848331  1 H  s                101      0.848331  8 H  s          
    17     -0.709588  2 H  s                 87     -0.709588  7 H  s          
    45      0.219276  4 H  s                 59      0.219276  5 H  s          
    30     -0.210508  3 H  s                 72     -0.210508  6 H  s          
    44      0.185802  4 H  s                 58      0.185802  5 H  s          
 
 Vector    6  Occ=0.000000D+00  E= 1.923484D-01
              MO Center= -5.8D-17, -8.3D-18,  1.9D-09, r^2= 1.7D+01
   Bfn.  Coefficient  Atom+Function         Bfn.  Coefficient  Atom+Function  
  ----- ------------  ---------------      ----- ------------  ---------------
    31      4.906012  3 H  s                 73     -4.906012  6 H  s          
    45     -4.823850  4 H  s                 59      4.823850  5 H  s          
    17     -4.050668  2 H  s                 87      4.050668  7 H  s          
     3      2.297695  1 H  s                101     -2.297695  8 H  s          
    51     -0.526253  4 H  pz                65     -0.526253  5 H  pz         
 
 Vector    7  Occ=0.000000D+00  E= 2.881770D-01
              MO Center= -1.1D-16, -1.3D-16, -6.0D-11, r^2= 1.3D+01
   Bfn.  Coefficient  Atom+Function         Bfn.  Coefficient  Atom+Function  
  ----- ------------  ---------------      ----- ------------  ---------------
    31      3.594747  3 H  s                 73      3.594747  6 H  s          
    17     -3.110638  2 H  s                 87     -3.110638  7 H  s          
     3      1.934388  1 H  s                101      1.934388  8 H  s          
    45     -1.217494  4 H  s                 59     -1.217494  5 H  s          
    30     -0.345635  3 H  s                 72     -0.345635  6 H  s          
 
 Vector    8  Occ=0.000000D+00  E= 3.109139D-01
              MO Center= -9.1D-17, -1.2D-16,  1.9D-09, r^2= 8.0D+00
   Bfn.  Coefficient  Atom+Function         Bfn.  Coefficient  Atom+Function  
  ----- ------------  ---------------      ----- ------------  ---------------
    17      2.483188  2 H  s                 87      2.483188  7 H  s          
    31     -2.071734  3 H  s                 73     -2.071734  6 H  s          
    45      1.638317  4 H  s                 59      1.638317  5 H  s          
     3     -1.460910  1 H  s                101     -1.460910  8 H  s          
    44     -1.204635  4 H  s                 58     -1.204635  5 H  s          
 
 Vector    9  Occ=0.000000D+00  E= 3.256624D-01
              MO Center=  1.5D-16, -2.8D-16, -2.5D-10, r^2= 8.2D+00
   Bfn.  Coefficient  Atom+Function         Bfn.  Coefficient  Atom+Function  
  ----- ------------  ---------------      ----- ------------  ---------------
    51      4.389317  4 H  pz                65      4.389317  5 H  pz         
    37      3.257986  3 H  pz                79      3.257986  6 H  pz         
    17     -2.491474  2 H  s                 87      2.491474  7 H  s          
    16      2.076354  2 H  s                 45     -2.073109  4 H  s          
    59      2.073109  5 H  s                 86     -2.076354  7 H  s          
 
 Vector   10  Occ=0.000000D+00  E= 4.373054D-01
              MO Center= -3.4D-17,  5.3D-17,  9.8D-09, r^2= 1.2D+01
   Bfn.  Coefficient  Atom+Function         Bfn.  Coefficient  Atom+Function  
  ----- ------------  ---------------      ----- ------------  ---------------
    45     16.959355  4 H  s                 59    -16.959355  5 H  s          
    31    -13.014723  3 H  s                 73     13.014723  6 H  s          
    17      7.955400  2 H  s                 87     -7.955400  7 H  s          
     3     -2.965282  1 H  s                101      2.965282  8 H  s          
    51     -0.998274  4 H  pz                65     -0.998274  5 H  pz         
 
 Vector   11  Occ=0.000000D+00  E= 4.422943D-01
              MO Center= -1.1D-16, -4.5D-17, -1.1D-08, r^2= 9.6D+00
   Bfn.  Coefficient  Atom+Function         Bfn.  Coefficient  Atom+Function  
  ----- ------------  ---------------      ----- ------------  ---------------
    17      4.942287  2 H  s                 87      4.942287  7 H  s          
    31     -3.388924  3 H  s                 73     -3.388923  6 H  s          
    44      1.969248  4 H  s                 58      1.969248  5 H  s          
    16     -1.824280  2 H  s                 37     -1.823208  3 H  pz         
    79      1.823208  6 H  pz                86     -1.824280  7 H  s          
 
 Vector   12  Occ=0.000000D+00  E= 5.413603D-01
              MO Center= -3.2D-16,  4.1D-18,  9.0D-12, r^2= 3.2D+00
   Bfn.  Coefficient  Atom+Function         Bfn.  Coefficient  Atom+Function  
  ----- ------------  ---------------      ----- ------------  ---------------
    49      0.322126  4 H  px                63      0.322126  5 H  px         
    35      0.281008  3 H  px                77      0.281008  6 H  px         
    21      0.197355  2 H  px                91      0.197355  7 H  px         
 
 Vector   13  Occ=0.000000D+00  E= 5.413603D-01
              MO Center= -3.0D-16, -1.0D-15,  9.0D-12, r^2= 3.2D+00
   Bfn.  Coefficient  Atom+Function         Bfn.  Coefficient  Atom+Function  
  ----- ------------  ---------------      ----- ------------  ---------------
    50      0.322126  4 H  py                64      0.322126  5 H  py         
    36      0.281008  3 H  py                78      0.281008  6 H  py         
    22      0.197355  2 H  py                92      0.197355  7 H  py         
 
 Vector   14  Occ=0.000000D+00  E= 5.702978D-01
              MO Center= -3.0D-16,  8.3D-17,  2.7D-09, r^2= 9.7D+00
   Bfn.  Coefficient  Atom+Function         Bfn.  Coefficient  Atom+Function  
  ----- ------------  ---------------      ----- ------------  ---------------
    31     13.916054  3 H  s                 73    -13.916054  6 H  s          
    45    -12.772366  4 H  s                 59     12.772366  5 H  s          
    17     -9.370318  2 H  s                 87      9.370318  7 H  s          
     3      2.286855  1 H  s                101     -2.286855  8 H  s          
    30     -1.919655  3 H  s                 72      1.919655  6 H  s          
 

 center of mass
 --------------
 x =   0.00000000 y =   0.00000000 z =   0.00000000

 moments of inertia (a.u.)
 ------------------
         137.144826000000           0.000000000000           0.000000000000
           0.000000000000         137.144826000000           0.000000000000
           0.000000000000           0.000000000000           0.000000000000
 
  Mulliken analysis of the total density
  --------------------------------------

    Atom       Charge   Shell Charges
 -----------   ------   -------------------------------------------------------
    1 H    1     0.98   0.20  0.50  0.26  0.00  0.01  0.00
    2 H    1     1.09   0.22  0.52  0.31  0.01  0.03  0.00
    3 H    1     0.92   0.22  0.55  0.12  0.01  0.03  0.00
    4 H    1     1.00   0.22  0.53  0.24  0.01  0.00  0.00
    5 H    1     1.00   0.22  0.53  0.24  0.01  0.00  0.00
    6 H    1     0.92   0.22  0.55  0.12  0.01  0.03  0.00
    7 H    1     1.09   0.22  0.52  0.31  0.01  0.03  0.00
    8 H    1     0.98   0.20  0.50  0.26  0.00  0.01  0.00
 
       Multipole analysis of the density wrt the origin
       ------------------------------------------------
 
     L   x y z        total         open         nuclear
     -   - - -        -----         ----         -------
     0   0 0 0     -0.000000      0.000000      8.000000
 
     1   1 0 0     -0.000000      0.000000      0.000000
     1   0 1 0     -0.000000      0.000000      0.000000
     1   0 0 1     -0.000000      0.000000      0.000000
 
     2   2 0 0     -6.472212      0.000000      0.000000
     2   1 1 0     -0.000000      0.000000      0.000000
     2   1 0 1     -0.000000      0.000000      0.000000
     2   0 2 0     -6.472212      0.000000      0.000000
     2   0 1 1      0.000000      0.000000      0.000000
     2   0 0 2     -7.719145      0.000000    136.080000
 
 ------------------------------------
     Number of active orbitals      8
     Number of active alpha electrons      4
     Number of active beta electrons       4
 ------------------------------------
                   NWChem Extensible Many-Electron Theory Module
                   ---------------------------------------------
 
              ======================================================
                   This portion of the program was automatically
                  generated by a Tensor Contraction Engine (TCE).
                  The development of this portion of the program
                 and TCE was supported by US Department of Energy,
                Office of Science, Office of Basic Energy Science.
                      TCE is a product of Battelle and PNNL.
              Please cite: S.Hirata, J.Phys.Chem.A 107, 9887 (2003).
              ======================================================
 
                                        H8
 
 
            General Information
            -------------------
      Number of processors :     1
         Wavefunction type : Restricted Hartree-Fock
          No. of electrons :     8
           Alpha electrons :     4
            Beta electrons :     4
           No. of orbitals :   224
            Alpha orbitals :   112
             Beta orbitals :   112
        Alpha frozen cores :     0
         Beta frozen cores :     0
     Alpha frozen virtuals :   104
      Beta frozen virtuals :   104
         Spin multiplicity : singlet 
    Number of AO functions :   112
       Number of AO shells :    48
        Use of symmetry is : off
      Symmetry adaption is : off
         Schwarz screening : 0.10D-09
 
          Correlation Information
          -----------------------
          Calculation type : Coupled-cluster singles & doubles                           
   Perturbative correction : none                                                        
            Max iterations :      300
        Residual threshold : 0.10D-07
     T(0) DIIS level shift : 0.00D+00
     L(0) DIIS level shift : 0.00D+00
     T(1) DIIS level shift : 0.00D+00
     L(1) DIIS level shift : 0.00D+00
     T(R) DIIS level shift : 0.00D+00
     T(I) DIIS level shift : 0.00D+00
   CC-T/L Amplitude update :  5-th order DIIS
                I/O scheme : Global Array Library
        L-threshold :  0.10D-07
        EOM-threshold :  0.10D-07
 no EOMCCSD initial starts read in
 TCE RESTART OPTIONS
 READ_INT:   F
 WRITE_INT:  F
 READ_TA:    F
 WRITE_TA:   F
 READ_XA:    F
 WRITE_XA:   F
 READ_IN3:   F
 WRITE_IN3:  F
 SLICE:      F
 D4D5:       F
 quantumc:   T
 qrotation:  F
 pwtce:      F
 qducc:      F
 nacto:                          0
 nrotv:                          0
 nrot:                           0
 
            Memory Information
            ------------------
          Available GA space size is    8053051136 doubles
          Available MA space size is    8053060452 doubles
 
 Maximum block size supplied by input
 Maximum block size         1 doubles

 tile_dim =      1

 Block   Spin    Irrep     Size     Offset   Alpha
 -------------------------------------------------
   1    alpha     a      1 doubles       0       1
   2    alpha     a      1 doubles       1       2
   3    alpha     a      1 doubles       2       3
   4    alpha     a      1 doubles       3       4
   5    beta      a      1 doubles       4       1
   6    beta      a      1 doubles       5       2
   7    beta      a      1 doubles       6       3
   8    beta      a      1 doubles       7       4
   9    alpha     a      1 doubles       8       9
  10    alpha     a      1 doubles       9      10
  11    alpha     a      1 doubles      10      11
  12    alpha     a      1 doubles      11      12
  13    beta      a      1 doubles      12       9
  14    beta      a      1 doubles      13      10
  15    beta      a      1 doubles      14      11
  16    beta      a      1 doubles      15      12

 Global array virtual files algorithm will be used

 Parallel file system coherency ......... OK
 
 Fock matrix recomputed
 1-e file size   =               64
 1-e file name   = ./H8.f1
 Cpu & wall time / sec            0.5            0.5
 4-electron integrals stored in orbital form
 
 v2    file size   =              666
 4-index algorithm nr.  13 is used
 imaxsize =       30
 imaxsize ichop =        0
 begin_one_electron_integrals
    1    1        -2.6973352299
    3    1         0.1463031532
    5    1         0.0499289756
    7    1         0.1064228950
    8    1         0.1350506289
    2    2        -2.4813228468
    4    2        -0.2058535555
    6    2         0.1070925250
    8    2        -0.0000000001
    1    3         0.1463031532
    3    3        -2.2977137667
    5    3         0.2615067105
    7    3         0.0300586919
    8    3        -0.0585341554
    2    4        -0.2058535555
    4    4        -2.1906237023
    6    4        -0.2397998164
    1    5         0.0499289756
    3    5         0.2615067105
    5    5        -1.8689987996
    6    5        -0.0000000001
    7    5         0.3227855645
    8    5        -0.2319225544
    2    6         0.1070925250
    4    6        -0.2397998164
    5    6        -0.0000000001
    6    6        -1.3092079919
    7    6        -0.0000000002
    8    6         0.0000000003
    1    7         0.1064228950
    3    7         0.0300586919
    5    7         0.3227855645
    6    7        -0.0000000002
    7    7        -1.3177237015
    8    7        -0.1254096573
    1    8         0.1350506289
    2    8        -0.0000000001
    3    8        -0.0585341554
    5    8        -0.2319225544
    6    8         0.0000000003
    7    8        -0.1254096573
    8    8        -1.4074141711
 end_one_electron_integrals
 begin_two_electron_integrals
    1    1    1    1        0.3909602741
    2    1    2    1        0.1285845311
    3    1    1    1       -0.0734558569
    3    1    3    1        0.0842639881
    3    1    2    2        0.0169906056
    4    1    2    1        0.0502635241
    4    1    4    1        0.0708461124
    4    1    3    2       -0.0242153876
    5    1    1    1        0.0035834957
    5    1    3    1       -0.0350481140
    5    1    5    1        0.0460921796
    5    1    2    2       -0.0351868763
    5    1    4    2       -0.0074964880
    5    1    3    3        0.0077806296
    5    1    4    4       -0.0042743531
    6    1    2    1       -0.0031452624
    6    1    4    1        0.0201528664
    6    1    6    1        0.0161405841
    6    1    3    2       -0.0237214387
    6    1    5    2        0.0089579697
    6    1    4    3       -0.0007562892
    6    1    5    4        0.0034406006
    7    1    1    1       -0.0271690591
    7    1    3    1        0.0128090533
    7    1    5    1       -0.0191497557
    7    1    7    1        0.0162441249
    7    1    2    2       -0.0125716545
    7    1    4    2        0.0059867122
    7    1    6    2       -0.0000178176
    7    1    3    3       -0.0310179609
    7    1    5    3        0.0091167515
    7    1    4    4       -0.0180570271
    7    1    6    4       -0.0068709224
    7    1    5    5       -0.0160978511
    7    1    6    6       -0.0087503439
    8    1    1    1       -0.0390046978
    8    1    3    1        0.0101861483
    8    1    5    1        0.0108060561
    8    1    7    1        0.0001983236
    8    1    8    1        0.0168752100
    8    1    2    2       -0.0285784801
    8    1    4    2       -0.0228453994
    8    1    6    2       -0.0000588579
    8    1    3    3       -0.0134227031
    8    1    5    3        0.0098978431
    8    1    7    3       -0.0043380805
    8    1    4    4       -0.0272727771
    8    1    6    4       -0.0086789593
    8    1    5    5       -0.0209244810
    8    1    7    5        0.0077059517
    8    1    6    6       -0.0087760889
    8    1    7    7       -0.0067108578
    2    2    1    1        0.3122729282
    2    2    2    2        0.3307424977
    3    2    2    1        0.0793807835
    3    2    3    2        0.1088706427
    4    2    1    1        0.0781612083
    4    2    3    1       -0.0606915279
    4    2    2    2        0.0142681432
    4    2    4    2        0.0778643358
    4    2    3    3       -0.0119394086
    5    2    2    1       -0.0501102394
    5    2    4    1       -0.0327125086
    5    2    3    2       -0.0143018155
    5    2    5    2        0.0478534696
    5    2    4    3        0.0025056893
    6    2    1    1       -0.0058536265
    6    2    3    1       -0.0274888312
    6    2    5    1        0.0188112315
    6    2    2    2       -0.0351018791
    6    2    4    2        0.0133562498
    6    2    6    2        0.0224901943
    6    2    3    3       -0.0211926243
    6    2    5    3        0.0049218886
    6    2    4    4       -0.0061550079
    6    2    5    5       -0.0089038313
    7    2    2    1       -0.0056186807
    7    2    4    1        0.0156230630
    7    2    6    1        0.0049833316
    7    2    3    2       -0.0234317318
    7    2    5    2       -0.0089498318
    7    2    7    2        0.0139217755
    7    2    4    3        0.0200993101
    7    2    6    3        0.0047644081
    7    2    5    4        0.0046311105
    7    2    6    5       -0.0060152825
    7    2    6    6       -0.0000000001
    8    2    2    1       -0.0233483611
    8    2    4    1       -0.0254575394
    8    2    6    1       -0.0036291960
    8    2    3    2        0.0038249514
    8    2    5    2        0.0183235278
    8    2    7    2       -0.0059332462
    8    2    8    2        0.0138261119
    8    2    4    3        0.0024418426
    8    2    6    3        0.0065697638
    8    2    5    4        0.0069607880
    8    2    7    4       -0.0012009551
    8    2    6    5       -0.0038218435
    8    2    6    6        0.0000000001
    8    2    7    6       -0.0001448280
    3    3    1    1        0.2963099133
    3    3    3    1        0.0009992976
    3    3    2    2        0.2963186368
    3    3    3    3        0.3068726365
    4    3    2    1       -0.0886765305
    4    3    4    1       -0.0095079774
    4    3    3    2       -0.0844613993
    4    3    4    3        0.0999770358
    5    3    1    1       -0.0736011123
    5    3    3    1        0.0440749623
    5    3    5    1       -0.0042371738
    5    3    2    2       -0.0260417197
    5    3    4    2       -0.0447821266
    5    3    3    3       -0.0176384097
    5    3    5    3        0.0522515742
    5    3    4    4       -0.0178159958
    6    3    2    1       -0.0392925123
    6    3    4    1       -0.0192398882
    6    3    6    1        0.0043343530
    6    3    3    2       -0.0195356993
    6    3    5    2        0.0238117669
    6    3    4    3        0.0187645165
    6    3    6    3        0.0253784344
    6    3    5    4        0.0005435538
    7    3    1    1        0.0148807427
    7    3    3    1       -0.0386393739
    7    3    5    1        0.0144462726
    7    3    7    1       -0.0024474951
    7    3    2    2       -0.0266510835
    7    3    4    2        0.0297401621
    7    3    6    2        0.0139924595
    7    3    3    3       -0.0218166296
    7    3    5    3       -0.0211083245
    7    3    7    3        0.0253048359
    7    3    4    4       -0.0130036191
    7    3    6    4        0.0050560128
    7    3    5    5       -0.0048022058
    7    3    6    6       -0.0071829237
    8    3    1    1        0.0103917599
    8    3    3    1        0.0039318038
    8    3    5    1        0.0003104052
    8    3    7    1       -0.0037629781
    8    3    8    1       -0.0029346698
    8    3    2    2        0.0145579455
    8    3    4    2       -0.0051159857
    8    3    6    2       -0.0019152280
    8    3    3    3        0.0165368044
    8    3    5    3        0.0031351842
    8    3    7    3       -0.0045747787
    8    3    8    3        0.0053972169
    8    3    4    4        0.0151251916
    8    3    6    4        0.0028442311
    8    3    5    5        0.0077522468
    8    3    7    5       -0.0042840756
    8    3    6    6        0.0038892015
    8    3    7    7        0.0049396938
    4    4    1    1        0.3137762313
    4    4    3    1       -0.0189774994
    4    4    2    2        0.2937772301
    4    4    4    2        0.0249439378
    4    4    3    3        0.2852364594
    4    4    4    4        0.2982589509
    5    4    2    1       -0.0589402595
    5    4    4    1       -0.0038134512
    5    4    3    2       -0.0578428397
    5    4    5    2        0.0087381556
    5    4    4    3        0.0583005749
    5    4    5    4        0.0553783886
    6    4    1    1        0.0635995811
    6    4    3    1       -0.0261135493
    6    4    5    1        0.0007143916
    6    4    2    2        0.0357207156
    6    4    4    2        0.0282690900
    6    4    6    2       -0.0038012666
    6    4    3    3        0.0295494357
    6    4    5    3       -0.0296011917
    6    4    4    4        0.0343339842
    6    4    6    4        0.0266042221
    6    4    5    5        0.0184630734
    7    4    2    1        0.0347492808
    7    4    4    1        0.0002186062
    7    4    6    1       -0.0068549199
    7    4    3    2        0.0359571648
    7    4    5    2       -0.0104670432
    7    4    7    2       -0.0070590746
    7    4    4    3       -0.0306831790
    7    4    6    3       -0.0104199823
    7    4    5    4       -0.0229250058
    7    4    7    4        0.0195513079
    7    4    6    5        0.0109556602
    7    4    6    6        0.0000000001
    8    4    2    1       -0.0393233246
    8    4    4    1       -0.0230854320
    8    4    6    1       -0.0022118128
    8    4    3    2       -0.0160289308
    8    4    5    2        0.0167629629
    8    4    7    2        0.0011912618
    8    4    8    2        0.0110342066
    8    4    4    3        0.0241413435
    8    4    6    3        0.0128569624
    8    4    5    4        0.0165929138
    8    4    7    4       -0.0107852124
    8    4    8    4        0.0175097026
    8    4    6    5       -0.0079839460
    8    4    7    6       -0.0012281625
    5    5    1    1        0.2783318175
    5    5    3    1       -0.0116827033
    5    5    5    1       -0.0033931194
    5    5    2    2        0.2655407987
    5    5    4    2        0.0156197543
    5    5    3    3        0.2586461827
    5    5    5    3       -0.0184941226
    5    5    4    4        0.2593350907
    5    5    5    5        0.2484517118
    6    5    2    1        0.0549835520
    6    5    4    1        0.0009902196
    6    5    6    1       -0.0021346377
    6    5    3    2        0.0569919740
    6    5    5    2       -0.0037695864
    6    5    4    3       -0.0590256528
    6    5    6    3       -0.0022455688
    6    5    5    4       -0.0444862899
    6    5    6    5        0.0598911990
    7    5    1    1       -0.0680604876
    7    5    3    1        0.0242422731
    7    5    5    1       -0.0057079363
    7    5    7    1        0.0090203235
    7    5    2    2       -0.0419568403
    7    5    4    2       -0.0210343196
    7    5    6    2        0.0006637642
    7    5    3    3       -0.0420605769
    7    5    5    3        0.0217315173
    7    5    7    3       -0.0034180856
    7    5    4    4       -0.0453813367
    7    5    6    4       -0.0204298536
    7    5    5    5       -0.0329575969
    7    5    7    5        0.0274766965
    7    5    6    6        0.0015069869
    8    5    1    1        0.0457039219
    8    5    3    1       -0.0069555717
    8    5    5    1       -0.0110229587
    8    5    7    1        0.0006613645
    8    5    8    1       -0.0082467837
    8    5    2    2        0.0386243700
    8    5    4    2        0.0189178298
    8    5    6    2       -0.0058352383
    8    5    3    3        0.0242257807
    8    5    5    3       -0.0141881278
    8    5    7    3       -0.0024615908
    8    5    8    3        0.0008261873
    8    5    4    4        0.0318360453
    8    5    6    4        0.0142468387
    8    5    5    5        0.0225746922
    8    5    7    5       -0.0158213614
    8    5    8    5        0.0171458690
    8    5    6    6       -0.0020587044
    8    5    7    6       -0.0000000002
    8    5    7    7        0.0074549639
    6    6    1    1        0.1905965525
    6    6    3    1        0.0115561682
    6    6    5    1       -0.0014545877
    6    6    2    2        0.2026918121
    6    6    4    2       -0.0120604130
    6    6    6    2       -0.0051091990
    6    6    3    3        0.2043429953
    6    6    5    3        0.0067487475
    6    6    6    3       -0.0000000003
    6    6    4    4        0.1984535779
    6    6    6    4       -0.0037433848
    6    6    5    5        0.1989992292
    6    6    6    5        0.0000000009
    6    6    6    6        0.1989763854
    7    6    2    1        0.0327682794
    7    6    4    1       -0.0079778852
    7    6    6    1       -0.0035907884
    7    6    3    2        0.0433086083
    7    6    5    2        0.0011192793
    7    6    6    2       -0.0000000001
    7    6    7    2       -0.0031098685
    7    6    4    3       -0.0402060164
    7    6    6    3        0.0041671470
    7    6    5    4       -0.0347520180
    7    6    7    4        0.0065142002
    7    6    6    5        0.0485051811
    7    6    7    5        0.0000000003
    7    6    6    6        0.0000000042
    7    6    7    6        0.0491241388
    8    6    2    1       -0.0182803165
    8    6    4    1       -0.0003728315
    8    6    6    1       -0.0032200849
    8    6    3    2       -0.0194832838
    8    6    5    2       -0.0052492608
    8    6    6    2        0.0000000001
    8    6    7    2        0.0012025265
    8    6    8    2        0.0016736843
    8    6    4    3        0.0258453774
    8    6    6    3       -0.0051058903
    8    6    5    4        0.0208876820
    8    6    7    4       -0.0004001138
    8    6    8    4        0.0018857348
    8    6    6    5       -0.0313364151
    8    6    7    5       -0.0000000002
    8    6    8    5        0.0000000002
    8    6    6    6       -0.0000000033
    8    6    7    6       -0.0308374102
    8    6    8    6        0.0227738670
    8    6    7    7       -0.0000000016
    7    7    1    1        0.2143015321
    7    7    3    1       -0.0062533691
    7    7    5    1        0.0046810164
    7    7    7    1       -0.0107892954
    7    7    2    2        0.2072833624
    7    7    4    2        0.0015541991
    7    7    6    2       -0.0035980909
    7    7    3    3        0.2112942314
    7    7    5    3       -0.0074445107
    7    7    7    3       -0.0040225760
    7    7    4    4        0.2075822204
    7    7    6    4        0.0099254204
    7    7    5    5        0.1995019739
    7    7    6    5        0.0000000004
    7    7    7    5       -0.0159714029
    7    7    6    6        0.1794007573
    7    7    7    6        0.0000000024
    7    7    7    7        0.1805806329
    8    7    1    1        0.0292807133
    8    7    3    1       -0.0197727380
    8    7    5    1        0.0031493016
    8    7    7    1       -0.0002421625
    8    7    8    1        0.0021395493
    8    7    2    2        0.0081421724
    8    7    4    2        0.0190097333
    8    7    6    2       -0.0002847882
    8    7    3    3        0.0061536205
    8    7    5    3       -0.0202293762
    8    7    7    3        0.0056750245
    8    7    8    3       -0.0014851869
    8    7    4    4        0.0085808691
    8    7    6    4        0.0158010779
    8    7    5    5        0.0019389259
    8    7    6    5       -0.0000000002
    8    7    7    5       -0.0155448560
    8    7    8    5        0.0101601288
    8    7    6    6       -0.0169362562
    8    7    7    6       -0.0000000016
    8    7    8    6        0.0000000011
    8    7    7    7        0.0004266459
    8    7    8    7        0.0220550853
    8    8    1    1        0.2471671538
    8    8    3    1       -0.0294708126
    8    8    5    1       -0.0022547453
    8    8    7    1       -0.0037975694
    8    8    8    1       -0.0101543236
    8    8    2    2        0.2159495176
    8    8    4    2        0.0356055649
    8    8    6    2       -0.0007758763
    8    8    3    3        0.2052739362
    8    8    5    3       -0.0281531337
    8    8    7    3        0.0035426700
    8    8    8    3       -0.0008908517
    8    8    4    4        0.2175775455
    8    8    6    4        0.0254544148
    8    8    5    5        0.2022213062
    8    8    6    5        0.0000000002
    8    8    7    5       -0.0276818029
    8    8    8    5        0.0233342695
    8    8    6    6        0.1638276563
    8    8    7    6        0.0000000011
    8    8    8    6       -0.0000000008
    8    8    7    7        0.1774749067
    8    8    8    7        0.0201616342
    8    8    8    8        0.2076707169
 end_two_electron_integrals
 enrep_tce =    7.63492063492063     
  EHF(A)             =        -4.32228379
  EHF(total)         =        -4.32228379
  Shift (HFtot-HFA)  =         0.00000000
 Cpu & wall time / sec           24.3           24.3
 T1-number-of-tasks                    16
 
 t1 file size   =               16
 t1 file name   = ./H8.t1
 t1 file handle =       -998
 T2-number-of-boxes                   356
 
 t2 file size   =              356
 t2 file name   = ./H8.t2
 t2 file handle =       -996
CCSD iterations
 ---------------------------------------------------------
 Iter          Residuum       Correlation     Cpu    Wall 
 ---------------------------------------------------------
NEW TASK SCHEDULING
CCSD_T1_NTS --- OK
CCSD_T2_NTS --- OK
    1   0.0371445119954  -0.0245941172089     1.7     1.7
    2   0.0149246112797  -0.0291315206567     1.8     1.8
    3   0.0081058084955  -0.0304137704084     1.8     1.8
    4   0.0047227779060  -0.0309564431297     1.7     1.7
    5   0.0028252808679  -0.0312298671724     1.7     1.7
 MICROCYCLE DIIS UPDATE:                     5                     5
    6   0.0004032173164  -0.0315902671084     1.8     1.8
    7   0.0001755954184  -0.0315859369541     1.7     1.7
    8   0.0000886140550  -0.0315887411450     1.7     1.7
    9   0.0000495800756  -0.0315896341955     1.7     1.7
   10   0.0000280928233  -0.0315905241748     1.7     1.7
 MICROCYCLE DIIS UPDATE:                    10                     5
   11   0.0000063164089  -0.0315916142147     1.7     1.7
   12   0.0000027677376  -0.0315920453560     1.8     1.8
   13   0.0000015720270  -0.0315922206168     1.5     1.5
   14   0.0000009126249  -0.0315923108320     1.4     1.4
   15   0.0000005431460  -0.0315923592200     1.4     1.4
 MICROCYCLE DIIS UPDATE:                    15                     5
   16   0.0000000858814  -0.0315924226708     1.4     1.4
   17   0.0000000386885  -0.0315924249546     1.6     1.6
   18   0.0000000192887  -0.0315924259839     1.7     1.7
   19   0.0000000109186  -0.0315924263359     1.8     1.8
   20   0.0000000062222  -0.0315924266036     1.8     1.8
 -----------------------------------------------------------------
 Iterations converged
 CCSD correlation energy / hartree =        -0.031592426603650
 CCSD total energy / hartree       =        -4.353876218985960

 Singles contributions
     6a   (alpha) ---     4a   (alpha)       -0.0306399821

 Doubles contributions
     5a   (alpha)     6a   (alpha) ---     3a   (alpha)     4a   (alpha)        0.0354322287
     5a   (alpha)     5a   (beta ) ---     1a   (alpha)     1a   (beta )       -0.0235275585
     5a   (alpha)     5a   (beta ) ---     2a   (alpha)     2a   (beta )       -0.0308107537
     5a   (alpha)     5a   (beta ) ---     3a   (alpha)     3a   (beta )       -0.0497027061
     5a   (alpha)     5a   (beta ) ---     4a   (alpha)     4a   (beta )       -0.1262522287
     5a   (alpha)     6a   (beta ) ---     3a   (alpha)     4a   (beta )        0.0407758074
     5a   (alpha)     7a   (beta ) ---     4a   (alpha)     4a   (beta )        0.0313608582
     5a   (alpha)     8a   (beta ) ---     4a   (alpha)     4a   (beta )       -0.0243030776
     6a   (alpha)     5a   (beta ) ---     4a   (alpha)     3a   (beta )        0.0407758074
     6a   (alpha)     6a   (beta ) ---     3a   (alpha)     3a   (beta )       -0.0217413521
     6a   (alpha)     6a   (beta ) ---     4a   (alpha)     4a   (beta )       -0.0266790680
     7a   (alpha)     5a   (beta ) ---     4a   (alpha)     4a   (beta )        0.0313608582
     8a   (alpha)     5a   (beta ) ---     4a   (alpha)     4a   (beta )       -0.0243030776
 Ground state specification:
 exp(T)|Ref>~(1+T)|Ref>
 ------- a(p)+/a(q) strings ----------

 singles norm

 doubles norm

 Reference string
  0.992124216084461      :(1a)+ (2a)+ (3a)+ (4a)+ (1b)+ (2b)+ (3b)+ (4b)+ |0>

 Singles strings

 Doubles strings
 -0.125257893399156      :(5a)+ (5b)+ (4b)  (4a)  (1a)+ (2a)+ (3a)+ (4a)+ (1b)+ 
 (2b)+ (3b)+ (4b)+ |0>
 -------------------------------------

 Task  times  cpu:       66.2s     wall:       66.2s
 
 
                                NWChem Input Module
                                -------------------
 
 
 Summary of allocated global arrays
-----------------------------------
  No active global arrays


MA_summarize_allocated_blocks: starting scan ...
MA_summarize_allocated_blocks: scan completed: 0 heap blocks, 0 stack blocks
MA usage statistics:

	allocation statistics:
					      heap	     stack
					      ----	     -----
	current number of blocks	         0	         0
	maximum number of blocks	        16	        42
	current total bytes		         0	         0
	maximum total bytes		     80104	  33006664
	maximum total K-bytes		        81	     33007
	maximum total M-bytes		         1	        34
 
 
                                     CITATION
                                     --------
                Please cite the following reference when publishing
                           results obtained with NWChem:
 
          E. Apra, E. J. Bylaska, W. A. de Jong, N. Govind, K. Kowalski,
       T. P. Straatsma, M. Valiev, H. J. J. van Dam, Y. Alexeev, J. Anchell,
       V. Anisimov, F. W. Aquino, R. Atta-Fynn, J. Autschbach, N. P. Bauman,
     J. C. Becca, D. E. Bernholdt, K. Bhaskaran-Nair, S. Bogatko, P. Borowski,
         J. Boschen, J. Brabec, A. Bruner, E. Cauet, Y. Chen, G. N. Chuev,
      C. J. Cramer, J. Daily, M. J. O. Deegan, T. H. Dunning Jr., M. Dupuis,
   K. G. Dyall, G. I. Fann, S. A. Fischer, A. Fonari, H. Fruchtl, L. Gagliardi,
      J. Garza, N. Gawande, S. Ghosh, K. Glaesemann, A. W. Gotz, J. Hammond,
       V. Helms, E. D. Hermes, K. Hirao, S. Hirata, M. Jacquelin, L. Jensen,
   B. G. Johnson, H. Jonsson, R. A. Kendall, M. Klemm, R. Kobayashi, V. Konkov,
      S. Krishnamoorthy, M. Krishnan, Z. Lin, R. D. Lins, R. J. Littlefield,
      A. J. Logsdail, K. Lopata, W. Ma, A. V. Marenich, J. Martin del Campo,
   D. Mejia-Rodriguez, J. E. Moore, J. M. Mullin, T. Nakajima, D. R. Nascimento,
    J. A. Nichols, P. J. Nichols, J. Nieplocha, A. Otero-de-la-Roza, B. Palmer,
    A. Panyala, T. Pirojsirikul, B. Peng, R. Peverati, J. Pittner, L. Pollack,
   R. M. Richard, P. Sadayappan, G. C. Schatz, W. A. Shelton, D. W. Silverstein,
   D. M. A. Smith, T. A. Soares, D. Song, M. Swart, H. L. Taylor, G. S. Thomas,
            V. Tipparaju, D. G. Truhlar, K. Tsemekhman, T. Van Voorhis,
      A. Vazquez-Mayagoitia, P. Verma, O. Villa, A. Vishnu, K. D. Vogiatzis,
        D. Wang, J. H. Weare, M. J. Williamson, T. L. Windus, K. Wolinski,
        A. T. Wong, Q. Wu, C. Yang, Q. Yu, M. Zacharias, Z. Zhang, Y. Zhao,
                                and R. J. Harrison
                        "NWChem: Past, present, and future
                         J. Chem. Phys. 152, 184102 (2020)
                               doi:10.1063/5.0004997
 
                                      AUTHORS
                                      -------
  E. Apra, E. J. Bylaska, N. Govind, K. Kowalski, M. Valiev, D. Mejia-Rodriguez,
       A. Kunitsa, N. P. Bauman, A. Panyala, W. A. de Jong, T. P. Straatsma,
   H. J. J. van Dam, D. Wang, T. L. Windus, J. Hammond, J. Autschbach, A. Woods,
    K. Bhaskaran-Nair, J. Brabec, K. Lopata, S. A. Fischer, S. Krishnamoorthy,
     M. Jacquelin, W. Ma, M. Klemm, O. Villa, Y. Chen, V. Anisimov, F. Aquino,
     S. Hirata, M. T. Hackler, E. Hermes, L. Jensen, J. E. Moore, J. C. Becca,
      V. Konjkov, T. Risthaus, M. Malagoli, A. Marenich, A. Otero-de-la-Roza,
        J. Mullin, P. Nichols, R. Peverati, J. Pittner, Y. Zhao, P.-D. Fan,
        A. Fonari, M. J. Williamson, R. J. Harrison, J. R. Rehr, M. Dupuis,
     D. Silverstein, D. M. A. Smith, J. Nieplocha, V. Tipparaju, M. Krishnan,
     B. E. Van Kuiken, A. Vazquez-Mayagoitia, M. Swart, Q. Wu, T. Van Voorhis,
     A. A. Auer, M. Nooijen, L. D. Crosby, E. Brown, G. Cisneros, G. I. Fann,
   H. Fruchtl, J. Garza, K. Hirao, R. A. Kendall, J. A. Nichols, K. Tsemekhman,
    K. Wolinski, J. Anchell, D. E. Bernholdt, P. Borowski, T. Clark, D. Clerc,
   H. Dachsel, M. J. O. Deegan, K. Dyall, D. Elwood, E. Glendening, M. Gutowski,
   A. C. Hess, J. Jaffe, B. G. Johnson, J. Ju, R. Kobayashi, R. Kutteh, Z. Lin,
   R. Littlefield, X. Long, B. Meng, T. Nakajima, S. Niu, L. Pollack, M. Rosing,
   K. Glaesemann, G. Sandrone, M. Stave, H. Taylor, G. Thomas, J. H. van Lenthe,
                               A. T. Wong, Z. Zhang.

 Total times  cpu:       68.0s     wall:       68.0s
