 argument  1 = input.nw
  NWChem w/ OpenMP: maximum threads =    1
 


============================== echo of input deck ==============================

echo
start H8
title "H8"

memory total 120 gb

geometry units bohr
symmetry c1
H 0 0 0
H 0 0 2.14
H 0 0 4.28
H 0 0 6.42
H 0 0 8.56
H 0 0 10.70
H 0 0 12.84
H 0 0 14.98
end

basis spherical
  * library cc-pVTZ
end

scf
thresh 1e-8
end

tce
  2eorb
  2emet 13
  ccsd
  thresh 1e-8
  maxiter 300
end

set tce:print_integrals T
set tce:qorb 8
set tce:qela 4
set tce:qelb 4

# set tce:qducc T
# set tce:nactv 4
# set tce:nonhf T
# set tce:ducc_model 6

set tce:printtol 0.02

task tce
================================================================================


                                         
                                         
 
 
             Northwest Computational Chemistry Package (NWChem) 7.2.3
             --------------------------------------------------------
 
 
                    Environmental Molecular Sciences Laboratory
                       Pacific Northwest National Laboratory
                                Richland, WA 99352
 
                              Copyright (c) 1994-2022
                       Pacific Northwest National Laboratory
                            Battelle Memorial Institute
 
             NWChem is an open-source computational chemistry package
                        distributed under the terms of the
                      Educational Community License (ECL) 2.0
             A copy of the license is included with this distribution
                              in the LICENSE.TXT file
 
                                  ACKNOWLEDGMENT
                                  --------------

            This software and its documentation were developed at the
            EMSL at Pacific Northwest National Laboratory, a multiprogram
            national laboratory, operated for the U.S. Department of Energy
            by Battelle under Contract Number DE-AC05-76RL01830. Support
            for this work was provided by the Department of Energy Office
            of Biological and Environmental Research, Office of Basic
            Energy Sciences, and the Office of Advanced Scientific Computing.


           Job information
           ---------------

    hostname        = koothan
    program         = /hpc/home/baum612/code/nwchem/bin/LINUX64/nwchem
    date            = Fri Nov 15 12:36:09 2024

    compiled        = Wed_Nov_13_16:23:19_2024
    source          = /hpc/home/baum612/code/nwchem
    nwchem branch   = 7.2.3
    nwchem revision = v7.2.0-beta1-1280-g0779ca2e41
    ga revision     = 5.8.0
    use scalapack   = T
    input           = input.nw
    prefix          = H8.
    data base       = ./H8.db
    status          = startup
    nproc           =        1
    time left       =     -1s



           Memory information
           ------------------

    heap     =   4026531840 doubles =    30720.0 Mbytes
    stack    =   4026531837 doubles =    30720.0 Mbytes
    global   =   8053063680 doubles =    61440.0 Mbytes (distinct from heap & stack)
    total    =  16106127357 doubles =   122880.0 Mbytes
    verify   = yes
    hardfail = no 


           Directory information
           ---------------------
 
  0 permanent = .
  0 scratch   = .
 
 
 
 
                                NWChem Input Module
                                -------------------
 
 
                                        H8
                                        --
 Turning off AUTOSYM since
 SYMMETRY directive was detected!
 

          ------
          auto-z
          ------
     1 autoz failed with cvr_scaling = 1.2 changing to 1.3
     2 autoz failed with cvr_scaling = 1.3 changing to 1.4
     3 autoz failed with cvr_scaling = 1.4 changing to 1.5
  Looking for out-of-plane bends
  autoz: insufficient variables                      7                    18
     4 autoz failed with cvr_scaling = 1.5 changing to 1.6
  Looking for out-of-plane bends
  autoz: insufficient variables                      7                    18
     5 autoz failed with cvr_scaling = 1.6 changing to 1.7
  Looking for out-of-plane bends
  autoz: insufficient variables                      7                    18

 AUTOZ failed to generate good internal coordinates.
 Cartesian coordinates will be used in optimizations.

 
 
                             Geometry "geometry" -> ""
                             -------------------------
 
 Output coordinates in a.u. (scale by  1.000000000 to convert to a.u.)
 
  No.       Tag          Charge          X              Y              Z
 ---- ---------------- ---------- -------------- -------------- --------------
    1 H                    1.0000     0.00000000     0.00000000    -7.49000000
    2 H                    1.0000     0.00000000     0.00000000    -5.35000000
    3 H                    1.0000     0.00000000     0.00000000    -3.21000000
    4 H                    1.0000     0.00000000     0.00000000    -1.07000000
    5 H                    1.0000     0.00000000     0.00000000     1.07000000
    6 H                    1.0000     0.00000000     0.00000000     3.21000000
    7 H                    1.0000     0.00000000     0.00000000     5.35000000
    8 H                    1.0000     0.00000000     0.00000000     7.49000000
 
      Atomic Mass 
      ----------- 
 
      H                  1.007825
 

 Effective nuclear repulsion energy (a.u.)       6.4218958611

            Nuclear Dipole moment (a.u.) 
            ----------------------------
        X                 Y               Z
 ---------------- ---------------- ----------------
     0.0000000000     0.0000000000     0.0000000000
 
 
            XYZ format geometry
            -------------------
     8
 geometry
 H                     0.00000000     0.00000000    -3.96353760
 H                     0.00000000     0.00000000    -2.83109828
 H                     0.00000000     0.00000000    -1.69865897
 H                     0.00000000     0.00000000    -0.56621966
 H                     0.00000000     0.00000000     0.56621966
 H                     0.00000000     0.00000000     1.69865897
 H                     0.00000000     0.00000000     2.83109828
 H                     0.00000000     0.00000000     3.96353760
 


 Summary of "ao basis" -> "" (spherical)
 ------------------------------------------------------------------------------
       Tag                 Description            Shells   Functions and Types
 ---------------- ------------------------------  ------  ---------------------
 *                          cc-pVTZ                   on all atoms 


                      Basis "ao basis" -> "ao basis" (spherical)
                      -----
  H (Hydrogen)
  ------------
            Exponent  Coefficients 
       -------------- ---------------------------------------------------------
  1 S  3.38700000E+01  0.006068
  1 S  5.09500000E+00  0.045308
  1 S  1.15900000E+00  0.202822
 
  2 S  3.25800000E-01  1.000000
 
  3 S  1.02700000E-01  1.000000
 
  4 P  1.40700000E+00  1.000000
 
  5 P  3.88000000E-01  1.000000
 
  6 D  1.05700000E+00  1.000000
 


 Summary of "ao basis" -> "ao basis" (spherical)
 ------------------------------------------------------------------------------
       Tag                 Description            Shells   Functions and Types
 ---------------- ------------------------------  ------  ---------------------
 H                          cc-pVTZ                  6       14   3s2p1d


                                 NWChem SCF Module
                                 -----------------
 
 
                                        H8
 
 

  ao basis        = "ao basis"
  functions       =   112
  atoms           =     8
  closed shells   =     4
  open shells     =     0
  charge          =   0.00
  wavefunction    = RHF 
  input vectors   = atomic
  output vectors  = ./H8.movecs
  use symmetry    = F
  symmetry adapt  = F


 Summary of "ao basis" -> "ao basis" (spherical)
 ------------------------------------------------------------------------------
       Tag                 Description            Shells   Functions and Types
 ---------------- ------------------------------  ------  ---------------------
 H                          cc-pVTZ                  6       14   3s2p1d



 Forming initial guess at       1.8s

 
      Superposition of Atomic Density Guess
      -------------------------------------
 
 Sum of atomic energies:          -3.99847357
 
      Non-variational initial energy
      ------------------------------

 Total energy =      -3.468032
 1-e energy   =     -16.556421
 2-e energy   =       6.666493
 HOMO         =      -0.260762
 LUMO         =      -0.082931
 

 Starting SCF solution at       2.0s



 ----------------------------------------------
         Quadratically convergent ROHF

 Convergence threshold     :          1.000E-08
 Maximum no. of iterations :           30
 Final Fock-matrix accuracy:          1.000E-10
 ----------------------------------------------


              iter       energy          gnorm     gmax       time
             ----- ------------------- --------- --------- --------
                 1       -4.2444327242  2.41D-01  1.23D-01      2.4
                 2       -4.2579814877  8.07D-02  3.91D-02      3.2
                 3       -4.2590407801  5.34D-03  2.55D-03      4.2
                 4       -4.2590466843  5.30D-06  3.35D-06      5.9
                 5       -4.2590466843  1.13D-10  3.08D-11      8.3


       Final RHF  results 
       ------------------ 

         Total SCF energy =     -4.259046684305
      One-electron energy =    -17.150646820368
      Two-electron energy =      6.469704274915
 Nuclear repulsion energy =      6.421895861148

        Time for solution =      6.3s


             Final eigenvalues
             -----------------

              1      
    1   -0.6552
    2   -0.5931
    3   -0.4935
    4   -0.3638
    5   -0.0091
    6    0.1348
    7    0.2570
    8    0.3255
    9    0.3406
   10    0.3933
   11    0.4332
   12    0.5387
   13    0.5468
   14    0.5562
 
                       ROHF Final Molecular Orbital Analysis
                       -------------------------------------
 
 Vector    1  Occ=2.000000D+00  E=-6.551932D-01
              MO Center=  1.1D-16,  1.2D-16,  5.1D-12, r^2= 3.8D+00
   Bfn.  Coefficient  Atom+Function         Bfn.  Coefficient  Atom+Function  
  ----- ------------  ---------------      ----- ------------  ---------------
    44      0.182891  4 H  s                 58      0.182891  5 H  s          
    30      0.164111  3 H  s                 72      0.164111  6 H  s          
 
 Vector    2  Occ=2.000000D+00  E=-5.931116D-01
              MO Center= -9.3D-18, -5.5D-17, -7.2D-12, r^2= 8.1D+00
   Bfn.  Coefficient  Atom+Function         Bfn.  Coefficient  Atom+Function  
  ----- ------------  ---------------      ----- ------------  ---------------
    16      0.178911  2 H  s                 86     -0.178911  7 H  s          
    30      0.157981  3 H  s                 72     -0.157981  6 H  s          
 
 Vector    3  Occ=2.000000D+00  E=-4.935240D-01
              MO Center= -4.4D-16,  1.3D-15,  4.9D-13, r^2= 9.6D+00
   Bfn.  Coefficient  Atom+Function         Bfn.  Coefficient  Atom+Function  
  ----- ------------  ---------------      ----- ------------  ---------------
     2      0.175056  1 H  s                 16      0.174853  2 H  s          
    86      0.174853  7 H  s                100      0.175056  8 H  s          
    17      0.166079  2 H  s                 87      0.166079  7 H  s          
    44     -0.150235  4 H  s                 58     -0.150235  5 H  s          
 
 Vector    4  Occ=2.000000D+00  E=-3.637903D-01
              MO Center=  1.3D-16, -2.9D-16, -1.8D-13, r^2= 8.3D+00
   Bfn.  Coefficient  Atom+Function         Bfn.  Coefficient  Atom+Function  
  ----- ------------  ---------------      ----- ------------  ---------------
    31      0.222520  3 H  s                 73     -0.222520  6 H  s          
    30      0.190429  3 H  s                 72     -0.190429  6 H  s          
     2     -0.170915  1 H  s                 45      0.170560  4 H  s          
    59     -0.170560  5 H  s                100      0.170915  8 H  s          
     3     -0.163203  1 H  s                101      0.163203  8 H  s          
 
 Vector    5  Occ=0.000000D+00  E=-9.133123D-03
              MO Center=  1.9D-17, -6.1D-17, -2.5D-11, r^2= 1.0D+01
   Bfn.  Coefficient  Atom+Function         Bfn.  Coefficient  Atom+Function  
  ----- ------------  ---------------      ----- ------------  ---------------
     3      0.517650  1 H  s                101      0.517650  8 H  s          
    17     -0.295342  2 H  s                 31     -0.295936  3 H  s          
    73     -0.295936  6 H  s                 87     -0.295342  7 H  s          
    45      0.272347  4 H  s                 59      0.272347  5 H  s          
    30     -0.186011  3 H  s                 72     -0.186011  6 H  s          
 
 Vector    6  Occ=0.000000D+00  E= 1.347864D-01
              MO Center=  9.4D-19, -5.4D-17,  4.9D-10, r^2= 1.6D+01
   Bfn.  Coefficient  Atom+Function         Bfn.  Coefficient  Atom+Function  
  ----- ------------  ---------------      ----- ------------  ---------------
    17      1.547510  2 H  s                 87     -1.547510  7 H  s          
     3     -1.216423  1 H  s                101      1.216423  8 H  s          
    31     -1.047707  3 H  s                 73      1.047707  6 H  s          
    45      0.455876  4 H  s                 59     -0.455876  5 H  s          
    44     -0.208476  4 H  s                 58      0.208476  5 H  s          
 
 Vector    7  Occ=0.000000D+00  E= 2.569956D-01
              MO Center= -2.0D-17, -1.2D-17,  1.8D-09, r^2= 1.8D+01
   Bfn.  Coefficient  Atom+Function         Bfn.  Coefficient  Atom+Function  
  ----- ------------  ---------------      ----- ------------  ---------------
    17      2.216691  2 H  s                 87      2.216691  7 H  s          
    31     -2.086294  3 H  s                 73     -2.086294  6 H  s          
     3     -1.661277  1 H  s                101     -1.661277  8 H  s          
    45      0.828494  4 H  s                 59      0.828494  5 H  s          
     2      0.347755  1 H  s                100      0.347755  8 H  s          
 
 Vector    8  Occ=0.000000D+00  E= 3.255314D-01
              MO Center= -3.9D-16,  4.3D-16, -1.9D-10, r^2= 5.7D+00
   Bfn.  Coefficient  Atom+Function         Bfn.  Coefficient  Atom+Function  
  ----- ------------  ---------------      ----- ------------  ---------------
    17      0.781009  2 H  s                 87      0.781009  7 H  s          
    45      0.685510  4 H  s                 59      0.685510  5 H  s          
    44     -0.619706  4 H  s                 58     -0.619706  5 H  s          
    30     -0.538651  3 H  s                 72     -0.538651  6 H  s          
    16     -0.280040  2 H  s                 86     -0.280040  7 H  s          
 
 Vector    9  Occ=0.000000D+00  E= 3.405580D-01
              MO Center=  1.6D-16, -5.2D-17, -1.3D-09, r^2= 1.5D+01
   Bfn.  Coefficient  Atom+Function         Bfn.  Coefficient  Atom+Function  
  ----- ------------  ---------------      ----- ------------  ---------------
    45     -3.263904  4 H  s                 59      3.263904  5 H  s          
    31      3.077815  3 H  s                 73     -3.077815  6 H  s          
    17     -1.442664  2 H  s                 87      1.442664  7 H  s          
     3      1.239691  1 H  s                101     -1.239691  8 H  s          
     2     -0.627891  1 H  s                100      0.627891  8 H  s          
 
 Vector   10  Occ=0.000000D+00  E= 3.933405D-01
              MO Center= -3.2D-16, -9.2D-17, -1.7D-10, r^2= 1.2D+01
   Bfn.  Coefficient  Atom+Function         Bfn.  Coefficient  Atom+Function  
  ----- ------------  ---------------      ----- ------------  ---------------
    45      4.890610  4 H  s                 59     -4.890610  5 H  s          
    31     -3.478325  3 H  s                 73      3.478325  6 H  s          
    17      3.409352  2 H  s                 87     -3.409352  7 H  s          
     3     -1.550403  1 H  s                101      1.550403  8 H  s          
    16     -0.678890  2 H  s                 86      0.678890  7 H  s          
 
 Vector   11  Occ=0.000000D+00  E= 4.331917D-01
              MO Center= -8.4D-17, -2.0D-17,  5.8D-10, r^2= 1.1D+01
   Bfn.  Coefficient  Atom+Function         Bfn.  Coefficient  Atom+Function  
  ----- ------------  ---------------      ----- ------------  ---------------
    17      1.684170  2 H  s                 87      1.684170  7 H  s          
    31     -0.885252  3 H  s                 73     -0.885252  6 H  s          
    44      0.669748  4 H  s                 58      0.669748  5 H  s          
     2     -0.642031  1 H  s                100     -0.642031  8 H  s          
    16     -0.498041  2 H  s                 86     -0.498041  7 H  s          
 
 Vector   12  Occ=0.000000D+00  E= 5.386555D-01
              MO Center= -1.9D-16,  4.1D-17, -1.3D-09, r^2= 1.3D+01
   Bfn.  Coefficient  Atom+Function         Bfn.  Coefficient  Atom+Function  
  ----- ------------  ---------------      ----- ------------  ---------------
    17      1.640142  2 H  s                 87      1.640142  7 H  s          
     3     -1.323546  1 H  s                101     -1.323546  8 H  s          
    16     -0.874884  2 H  s                 86     -0.874884  7 H  s          
     2      0.630742  1 H  s                100      0.630742  8 H  s          
    45     -0.520047  4 H  s                 59     -0.520047  5 H  s          
 
 Vector   13  Occ=0.000000D+00  E= 5.468184D-01
              MO Center= -8.2D-18, -4.8D-17,  1.6D-09, r^2= 1.0D+01
   Bfn.  Coefficient  Atom+Function         Bfn.  Coefficient  Atom+Function  
  ----- ------------  ---------------      ----- ------------  ---------------
    31      5.123789  3 H  s                 73     -5.123789  6 H  s          
    17     -3.838474  2 H  s                 87      3.838474  7 H  s          
    45     -3.560050  4 H  s                 59      3.560050  5 H  s          
     3      0.746275  1 H  s                101     -0.746275  8 H  s          
    30     -0.612831  3 H  s                 72      0.612831  6 H  s          
 
 Vector   14  Occ=0.000000D+00  E= 5.562012D-01
              MO Center= -2.5D-16, -1.5D-16,  4.1D-12, r^2= 4.1D+00
   Bfn.  Coefficient  Atom+Function         Bfn.  Coefficient  Atom+Function  
  ----- ------------  ---------------      ----- ------------  ---------------
    50      0.261754  4 H  py                64      0.261754  5 H  py         
    49      0.255688  4 H  px                63      0.255688  5 H  px         
    36      0.228145  3 H  py                78      0.228145  6 H  py         
    35      0.222858  3 H  px                77      0.222858  6 H  px         
    22      0.164342  2 H  py                92      0.164342  7 H  py         
 

 center of mass
 --------------
 x =   0.00000000 y =   0.00000000 z =   0.00000000

 moments of inertia (a.u.)
 ------------------
         193.848285540000           0.000000000000           0.000000000000
           0.000000000000         193.848285540000           0.000000000000
           0.000000000000           0.000000000000           0.000000000000
 
  Mulliken analysis of the total density
  --------------------------------------

    Atom       Charge   Shell Charges
 -----------   ------   -------------------------------------------------------
    1 H    1     0.96   0.17  0.47  0.30  0.00  0.01  0.00
    2 H    1     1.07   0.18  0.50  0.36  0.00  0.02  0.00
    3 H    1     0.96   0.18  0.51  0.23  0.00  0.02  0.00
    4 H    1     1.01   0.18  0.51  0.29  0.00  0.03  0.00
    5 H    1     1.01   0.18  0.51  0.29  0.00  0.03  0.00
    6 H    1     0.96   0.18  0.51  0.23  0.00  0.02  0.00
    7 H    1     1.07   0.18  0.50  0.36  0.00  0.02  0.00
    8 H    1     0.96   0.17  0.47  0.30  0.00  0.01  0.00
 
       Multipole analysis of the density wrt the origin
       ------------------------------------------------
 
     L   x y z        total         open         nuclear
     -   - - -        -----         ----         -------
     0   0 0 0     -0.000000      0.000000      8.000000
 
     1   1 0 0      0.000000      0.000000      0.000000
     1   0 1 0     -0.000000      0.000000      0.000000
     1   0 0 1      0.000000      0.000000      0.000000
 
     2   2 0 0     -7.347243      0.000000      0.000000
     2   1 1 0     -0.000000      0.000000      0.000000
     2   1 0 1      0.000000      0.000000      0.000000
     2   0 2 0     -7.347243      0.000000      0.000000
     2   0 1 1     -0.000000      0.000000      0.000000
     2   0 0 2     -5.621925      0.000000    192.343200
 
 ------------------------------------
     Number of active orbitals      8
     Number of active alpha electrons      4
     Number of active beta electrons       4
 ------------------------------------
                   NWChem Extensible Many-Electron Theory Module
                   ---------------------------------------------
 
              ======================================================
                   This portion of the program was automatically
                  generated by a Tensor Contraction Engine (TCE).
                  The development of this portion of the program
                 and TCE was supported by US Department of Energy,
                Office of Science, Office of Basic Energy Science.
                      TCE is a product of Battelle and PNNL.
              Please cite: S.Hirata, J.Phys.Chem.A 107, 9887 (2003).
              ======================================================
 
                                        H8
 
 
            General Information
            -------------------
      Number of processors :     1
         Wavefunction type : Restricted Hartree-Fock
          No. of electrons :     8
           Alpha electrons :     4
            Beta electrons :     4
           No. of orbitals :   224
            Alpha orbitals :   112
             Beta orbitals :   112
        Alpha frozen cores :     0
         Beta frozen cores :     0
     Alpha frozen virtuals :   104
      Beta frozen virtuals :   104
         Spin multiplicity : singlet 
    Number of AO functions :   112
       Number of AO shells :    48
        Use of symmetry is : off
      Symmetry adaption is : off
         Schwarz screening : 0.10D-09
 
          Correlation Information
          -----------------------
          Calculation type : Coupled-cluster singles & doubles                           
   Perturbative correction : none                                                        
            Max iterations :      300
        Residual threshold : 0.10D-07
     T(0) DIIS level shift : 0.00D+00
     L(0) DIIS level shift : 0.00D+00
     T(1) DIIS level shift : 0.00D+00
     L(1) DIIS level shift : 0.00D+00
     T(R) DIIS level shift : 0.00D+00
     T(I) DIIS level shift : 0.00D+00
   CC-T/L Amplitude update :  5-th order DIIS
                I/O scheme : Global Array Library
        L-threshold :  0.10D-07
        EOM-threshold :  0.10D-07
 no EOMCCSD initial starts read in
 TCE RESTART OPTIONS
 READ_INT:   F
 WRITE_INT:  F
 READ_TA:    F
 WRITE_TA:   F
 READ_XA:    F
 WRITE_XA:   F
 READ_IN3:   F
 WRITE_IN3:  F
 SLICE:      F
 D4D5:       F
 quantumc:   T
 qrotation:  F
 pwtce:      F
 qducc:      F
 nacto:                          0
 nrotv:                          0
 nrot:                           0
 
            Memory Information
            ------------------
          Available GA space size is    8053051136 doubles
          Available MA space size is    8053060452 doubles
 
 Maximum block size supplied by input
 Maximum block size         1 doubles

 tile_dim =      1

 Block   Spin    Irrep     Size     Offset   Alpha
 -------------------------------------------------
   1    alpha     a      1 doubles       0       1
   2    alpha     a      1 doubles       1       2
   3    alpha     a      1 doubles       2       3
   4    alpha     a      1 doubles       3       4
   5    beta      a      1 doubles       4       1
   6    beta      a      1 doubles       5       2
   7    beta      a      1 doubles       6       3
   8    beta      a      1 doubles       7       4
   9    alpha     a      1 doubles       8       9
  10    alpha     a      1 doubles       9      10
  11    alpha     a      1 doubles      10      11
  12    alpha     a      1 doubles      11      12
  13    beta      a      1 doubles      12       9
  14    beta      a      1 doubles      13      10
  15    beta      a      1 doubles      14      11
  16    beta      a      1 doubles      15      12

 Global array virtual files algorithm will be used

 Parallel file system coherency ......... OK
 
 Fock matrix recomputed
 1-e file size   =               64
 1-e file name   = ./H8.f1
 Cpu & wall time / sec            0.4            0.4
 4-electron integrals stored in orbital form
 
 v2    file size   =              666
 4-index algorithm nr.  13 is used
 imaxsize =       30
 imaxsize ichop =        0
 begin_one_electron_integrals
    1    1        -2.3586308107
    3    1         0.1282541703
    5    1         0.0421166779
    7    1        -0.0431653458
    8    1         0.1492067524
    2    2        -2.1817970376
    4    2        -0.1746604941
    6    2        -0.1009972941
    1    3         0.1282541703
    3    3        -2.0445446565
    5    3         0.2123884259
    7    3        -0.0786865302
    8    3        -0.0282898869
    2    4        -0.1746604941
    4    4        -1.9903509053
    6    4         0.1983104655
    1    5         0.0421166779
    3    5         0.2123884259
    5    5        -1.8024514506
    7    5        -0.2897809253
    8    5        -0.0459405020
    2    6        -0.1009972941
    4    6         0.1983104655
    6    6        -1.4547270933
    7    6        -0.0000000002
    1    7        -0.0431653458
    3    7        -0.0786865302
    5    7        -0.2897809253
    6    7        -0.0000000002
    7    7        -1.2346079404
    8    7        -0.0125018994
    1    8         0.1492067524
    3    8        -0.0282898869
    5    8        -0.0459405020
    7    8        -0.0125018994
    8    8        -1.3521588285
 end_one_electron_integrals
 begin_two_electron_integrals
    1    1    1    1        0.3411497189
    2    1    2    1        0.1166665961
    3    1    1    1       -0.0654788003
    3    1    3    1        0.0783785827
    3    1    2    2        0.0176247156
    4    1    2    1        0.0454923872
    4    1    4    1        0.0690804022
    4    1    3    2       -0.0262136663
    5    1    1    1        0.0031435550
    5    1    3    1       -0.0320830996
    5    1    5    1        0.0496351697
    5    1    2    2       -0.0321966828
    5    1    4    2       -0.0093392092
    5    1    3    3        0.0105598734
    5    1    4    4       -0.0034823337
    6    1    2    1        0.0038591336
    6    1    4    1       -0.0210431969
    6    1    6    1        0.0250982529
    6    1    3    2        0.0239090967
    6    1    5    2       -0.0147530382
    6    1    4    3        0.0063209289
    6    1    5    4       -0.0036053675
    7    1    1    1        0.0064848018
    7    1    3    1       -0.0027738977
    7    1    5    1        0.0210323608
    7    1    7    1        0.0193186784
    7    1    2    2        0.0023239944
    7    1    4    2       -0.0167101105
    7    1    6    2        0.0027185780
    7    1    3    3        0.0221746695
    7    1    5    3       -0.0082063526
    7    1    4    4        0.0001079443
    7    1    6    4       -0.0038258000
    7    1    5    5        0.0045284887
    7    1    6    6        0.0070683104
    8    1    1    1       -0.0419294437
    8    1    3    1        0.0130203546
    8    1    5    1        0.0022441204
    8    1    7    1        0.0017431598
    8    1    8    1        0.0172810205
    8    1    2    2       -0.0283061626
    8    1    4    2       -0.0164394089
    8    1    6    2        0.0006362835
    8    1    3    3       -0.0231466336
    8    1    5    3        0.0098788426
    8    1    7    3        0.0002213238
    8    1    4    4       -0.0319996121
    8    1    6    4        0.0108707558
    8    1    5    5       -0.0273906627
    8    1    7    5       -0.0128510738
    8    1    6    6       -0.0173341389
    8    1    7    7       -0.0153855212
    2    2    1    1        0.2718621948
    2    2    2    2        0.2907755838
    3    2    2    1        0.0715807334
    3    2    3    2        0.1013207096
    4    2    1    1        0.0689719449
    4    2    3    1       -0.0583642467
    4    2    2    2        0.0083365810
    4    2    4    2        0.0737790212
    4    2    3    3       -0.0144676157
    5    2    2    1       -0.0450391065
    5    2    4    1       -0.0332680233
    5    2    3    2       -0.0080725371
    5    2    5    2        0.0492457430
    5    2    4    3        0.0001656517
    6    2    1    1        0.0066392341
    6    2    3    1        0.0263609984
    6    2    5    1       -0.0259501022
    6    2    2    2        0.0343983912
    6    2    4    2       -0.0067974432
    6    2    6    2        0.0326508194
    6    2    3    3        0.0130881476
    6    2    5    3       -0.0101759892
    6    2    4    4        0.0000226118
    6    2    5    5        0.0068210608
    7    2    2    1       -0.0001163985
    7    2    4    1       -0.0241628317
    7    2    6    1        0.0100815032
    7    2    3    2        0.0256545791
    7    2    5    2        0.0089307028
    7    2    7    2        0.0210435776
    7    2    4    3       -0.0124499894
    7    2    6    3        0.0051993665
    7    2    5    4        0.0041365569
    7    2    6    5       -0.0051374458
    8    2    2    1       -0.0225583470
    8    2    4    1       -0.0153201797
    8    2    6    1        0.0020469524
    8    2    3    2       -0.0068879033
    8    2    5    2        0.0107042001
    8    2    7    2        0.0032825816
    8    2    8    2        0.0102783012
    8    2    4    3        0.0131866248
    8    2    6    3       -0.0071454111
    8    2    5    4        0.0108550010
    8    2    7    4        0.0098528458
    8    2    6    5        0.0096615349
    8    2    7    6       -0.0042362960
    3    3    1    1        0.2596336976
    3    3    3    1        0.0032391554
    3    3    2    2        0.2620243581
    3    3    3    3        0.2732992432
    4    3    2    1       -0.0837282290
    4    3    4    1       -0.0104262957
    4    3    3    2       -0.0776447702
    4    3    4    3        0.0935985793
    5    3    1    1       -0.0637351860
    5    3    3    1        0.0446775052
    5    3    5    1       -0.0057378945
    5    3    2    2       -0.0159602040
    5    3    4    2       -0.0436210551
    5    3    3    3       -0.0100654766
    5    3    5    3        0.0528326045
    5    3    4    4       -0.0140465321
    6    3    2    1        0.0366896359
    6    3    4    1        0.0278743198
    6    3    6    1        0.0050416462
    6    3    3    2        0.0070457827
    6    3    5    2       -0.0304437553
    6    3    4    3       -0.0099825364
    6    3    6    3        0.0368805477
    6    3    5    4        0.0071991720
    7    3    1    1        0.0015907274
    7    3    3    1        0.0317996427
    7    3    5    1       -0.0196105153
    7    3    7    1        0.0001330294
    7    3    2    2        0.0354995612
    7    3    4    2       -0.0180753939
    7    3    6    2        0.0191931280
    7    3    3    3        0.0232759649
    7    3    5    3        0.0103513208
    7    3    7    3        0.0243089837
    7    3    4    4        0.0151834826
    7    3    6    4        0.0013921131
    7    3    5    5        0.0066834087
    7    3    6    6        0.0104865713
    8    3    1    1        0.0141486786
    8    3    3    1       -0.0134091375
    8    3    5    1        0.0041635271
    8    3    7    1        0.0003333453
    8    3    8    1       -0.0058167617
    8    3    2    2       -0.0000680221
    8    3    4    2        0.0110676690
    8    3    6    2       -0.0031471632
    8    3    3    3        0.0011161617
    8    3    5    3       -0.0089524571
    8    3    7    3       -0.0047494622
    8    3    8    3        0.0063608362
    8    3    4    4        0.0053524814
    8    3    6    4       -0.0081804557
    8    3    5    5        0.0034728696
    8    3    7    5        0.0061846377
    8    3    6    6        0.0000527398
    8    3    7    7        0.0006591405
    4    4    1    1        0.2817108423
    4    4    3    1       -0.0200547593
    4    4    2    2        0.2609515142
    4    4    4    2        0.0251628719
    4    4    3    3        0.2538515785
    4    4    4    4        0.2699907697
    5    4    2    1       -0.0575222119
    5    4    4    1       -0.0046164522
    5    4    3    2       -0.0547268306
    5    4    5    2        0.0095451706
    5    4    4    3        0.0549947414
    5    4    5    4        0.0555494810
    6    4    1    1       -0.0627465900
    6    4    3    1        0.0371546514
    6    4    5    1       -0.0030793426
    6    4    2    2       -0.0234929015
    6    4    4    2       -0.0380038327
    6    4    6    2       -0.0050525477
    6    4    3    3       -0.0178463968
    6    4    5    3        0.0389272791
    6    4    4    4       -0.0279618669
    6    4    6    4        0.0383464549
    6    4    5    5       -0.0178661101
    7    4    2    1       -0.0454717775
    7    4    4    1       -0.0191505719
    7    4    6    1       -0.0062087175
    7    4    3    2       -0.0258082818
    7    4    5    2        0.0248355783
    7    4    7    2       -0.0004788304
    7    4    4    3        0.0262562962
    7    4    6    3       -0.0186689306
    7    4    5    4        0.0212836456
    7    4    7    4        0.0270210711
    7    4    6    5        0.0132267821
    8    4    2    1       -0.0189828967
    8    4    4    1       -0.0236600225
    8    4    6    1        0.0056212883
    8    4    3    2        0.0056331466
    8    4    5    2        0.0134078000
    8    4    7    2        0.0075061072
    8    4    8    2        0.0081535578
    8    4    4    3        0.0055601001
    8    4    6    3       -0.0107615499
    8    4    5    4        0.0035568937
    8    4    7    4        0.0082869421
    8    4    8    4        0.0120468097
    8    4    6    5        0.0025613467
    8    4    7    6        0.0012231528
    5    5    1    1        0.2652777791
    5    5    3    1       -0.0160935793
    5    5    5    1       -0.0028410439
    5    5    2    2        0.2480193107
    5    5    4    2        0.0198562372
    5    5    3    3        0.2410603850
    5    5    5    3       -0.0195943141
    5    5    4    4        0.2459331888
    5    5    5    5        0.2434620726
    6    5    2    1       -0.0673721838
    6    5    4    1       -0.0046648811
    6    5    6    1       -0.0014628029
    6    5    3    2       -0.0653153460
    6    5    5    2        0.0063198476
    6    5    4    3        0.0689091983
    6    5    6    3       -0.0033358663
    6    5    5    4        0.0483193969
    6    5    6    5        0.0674273649
    7    5    1    1        0.0713514556
    7    5    3    1       -0.0352628734
    7    5    5    1        0.0016969717
    7    5    7    1       -0.0001860404
    7    5    2    2        0.0341899078
    7    5    4    2        0.0372590366
    7    5    6    2       -0.0000163835
    7    5    3    3        0.0278743074
    7    5    5    3       -0.0304747915
    7    5    7    3       -0.0029190095
    7    5    4    4        0.0422738063
    7    5    6    4       -0.0289358009
    7    5    5    5        0.0359160467
    7    5    7    5        0.0378758242
    7    5    6    6        0.0052932626
    8    5    1    1        0.0106332097
    8    5    3    1        0.0006049593
    8    5    5    1       -0.0136347384
    8    5    7    1       -0.0067923126
    8    5    8    1       -0.0025605655
    8    5    2    2        0.0117530564
    8    5    4    2        0.0117299423
    8    5    6    2        0.0062616987
    8    5    3    3       -0.0019175172
    8    5    5    3       -0.0046839625
    8    5    7    3        0.0034197583
    8    5    8    3       -0.0016635265
    8    5    4    4        0.0062778803
    8    5    6    4       -0.0047172866
    8    5    5    5        0.0051610992
    8    5    7    5        0.0059943552
    8    5    8    5        0.0084649492
    8    5    6    6       -0.0005075108
    8    5    7    7        0.0014072018
    6    6    1    1        0.2117180792
    6    6    3    1        0.0072019862
    6    6    5    1       -0.0014970483
    6    6    2    2        0.2189907178
    6    6    4    2       -0.0069896536
    6    6    6    2        0.0075415172
    6    6    3    3        0.2187600486
    6    6    5    3       -0.0008427403
    6    6    4    4        0.2117759604
    6    6    6    4       -0.0029491709
    6    6    5    5        0.2089979678
    6    6    6    6        0.2043585058
    7    6    2    1        0.0439683008
    7    6    4    1       -0.0072564002
    7    6    6    1        0.0050962075
    7    6    3    2        0.0535179803
    7    6    5    2       -0.0009337509
    7    6    7    2        0.0039295502
    7    6    4    3       -0.0494425503
    7    6    6    3       -0.0046130521
    7    6    5    4       -0.0390496951
    7    6    7    4       -0.0057550203
    7    6    6    5       -0.0527244002
    7    6    7    6        0.0567046602
    8    6    2    1        0.0078025083
    8    6    4    1        0.0057930089
    8    6    6    1       -0.0065837665
    8    6    3    2        0.0026979714
    8    6    5    2        0.0036297987
    8    6    7    2       -0.0016378255
    8    6    8    2       -0.0017459045
    8    6    4    3       -0.0113475068
    8    6    6    3       -0.0009688028
    8    6    5    4       -0.0054964788
    8    6    7    4       -0.0001548729
    8    6    8    4       -0.0029586293
    8    6    6    5       -0.0084463646
    8    6    7    6        0.0058965508
    8    6    8    6        0.0044853885
    7    7    1    1        0.1977043239
    7    7    3    1        0.0018140325
    7    7    5    1       -0.0020551137
    7    7    7    1        0.0028216267
    7    7    2    2        0.1994806230
    7    7    4    2       -0.0004593327
    7    7    6    2        0.0036598011
    7    7    3    3        0.1978293466
    7    7    5    3       -0.0012024945
    7    7    7    3        0.0062134179
    7    7    4    4        0.1966336536
    7    7    6    4       -0.0028036861
    7    7    5    5        0.1940746252
    7    7    7    5        0.0063531629
    7    7    6    6        0.1880258068
    7    7    7    7        0.1828904662
    8    7    1    1        0.0038100942
    8    7    3    1       -0.0001729111
    8    7    5    1       -0.0063107917
    8    7    7    1       -0.0056688657
    8    7    8    1       -0.0027885731
    8    7    2    2        0.0039871809
    8    7    4    2        0.0061323075
    8    7    6    2       -0.0009823615
    8    7    3    3       -0.0022278593
    8    7    5    3        0.0018593316
    8    7    7    3       -0.0002988902
    8    7    8    3       -0.0003998593
    8    7    4    4        0.0049631450
    8    7    6    4        0.0008112371
    8    7    5    5        0.0037660744
    8    7    7    5        0.0008617781
    8    7    8    5        0.0040343339
    8    7    6    6        0.0020856049
    8    7    7    7        0.0035140347
    8    7    8    7        0.0039755105
    8    8    1    1        0.2468326603
    8    8    3    1       -0.0388321948
    8    8    5    1       -0.0002952420
    8    8    7    1        0.0007788078
    8    8    8    1       -0.0114737079
    8    8    2    2        0.2059992211
    8    8    4    2        0.0430291828
    8    8    6    2        0.0036808105
    8    8    3    3        0.1967008464
    8    8    5    3       -0.0375243775
    8    8    7    3        0.0007400897
    8    8    8    3        0.0034481278
    8    8    4    4        0.2122958535
    8    8    6    4       -0.0373880263
    8    8    5    5        0.2023410800
    8    8    7    5        0.0445203192
    8    8    8    5        0.0084730283
    8    8    6    6        0.1683529719
    8    8    7    7        0.1609398902
    8    8    8    7        0.0014592256
    8    8    8    8        0.2191097016
 end_two_electron_integrals
 enrep_tce =    6.42189586114820     
  EHF(A)             =        -4.25904668
  EHF(total)         =        -4.25904668
  Shift (HFtot-HFA)  =        -0.00000000
 Cpu & wall time / sec           18.8           18.8
 T1-number-of-tasks                    16
 
 t1 file size   =               16
 t1 file name   = ./H8.t1
 t1 file handle =       -998
 T2-number-of-boxes                   356
 
 t2 file size   =              356
 t2 file name   = ./H8.t2
 t2 file handle =       -996
CCSD iterations
 ---------------------------------------------------------
 Iter          Residuum       Correlation     Cpu    Wall 
 ---------------------------------------------------------
NEW TASK SCHEDULING
CCSD_T1_NTS --- OK
CCSD_T2_NTS --- OK
    1   0.0521090923360  -0.0349231995043     1.7     1.7
    2   0.0222678151039  -0.0430050928466     1.6     1.6
    3   0.0126689589072  -0.0456183405864     1.6     1.6
    4   0.0079561127503  -0.0467402599450     1.7     1.7
    5   0.0051859274469  -0.0473244308049     1.7     1.7
 MICROCYCLE DIIS UPDATE:                     5                     5
    6   0.0009294720910  -0.0482204000952     1.6     1.6
    7   0.0005064785376  -0.0482280707184     1.7     1.7
    8   0.0003102200232  -0.0482397794077     1.7     1.7
    9   0.0002037497320  -0.0482451433058     1.6     1.6
   10   0.0001344148816  -0.0482497337937     1.6     1.6
 MICROCYCLE DIIS UPDATE:                    10                     5
   11   0.0000269154514  -0.0482576970368     1.6     1.6
   12   0.0000133153359  -0.0482604729244     1.6     1.6
   13   0.0000082210315  -0.0482616874747     1.7     1.7
   14   0.0000053321982  -0.0482622555950     1.6     1.6
   15   0.0000035000766  -0.0482625949994     1.6     1.6
 MICROCYCLE DIIS UPDATE:                    15                     5
   16   0.0000007806911  -0.0482631403912     1.6     1.6
   17   0.0000004416351  -0.0482631726897     1.7     1.7
   18   0.0000002685584  -0.0482631828690     1.7     1.7
   19   0.0000001747629  -0.0482631880853     1.6     1.6
   20   0.0000001144153  -0.0482631922720     1.7     1.7
 MICROCYCLE DIIS UPDATE:                    20                     5
   21   0.0000000223551  -0.0482631990819     1.7     1.7
   22   0.0000000109507  -0.0482632016017     1.7     1.7
   23   0.0000000067413  -0.0482632025874     1.6     1.6
 -----------------------------------------------------------------
 Iterations converged
 CCSD correlation energy / hartree =        -0.048263202587388
 CCSD total energy / hartree       =        -4.307309886891892

 Singles contributions
     5a   (alpha) ---     3a   (alpha)       -0.0247311255
     6a   (alpha) ---     4a   (alpha)        0.0370253862

 Doubles contributions
     5a   (alpha)     6a   (alpha) ---     2a   (alpha)     3a   (alpha)        0.0201489491
     5a   (alpha)     6a   (alpha) ---     3a   (alpha)     4a   (alpha)       -0.0438936669
     5a   (alpha)     7a   (alpha) ---     2a   (alpha)     4a   (alpha)       -0.0252011802
     5a   (alpha)     5a   (beta ) ---     1a   (alpha)     1a   (beta )       -0.0306078101
     5a   (alpha)     5a   (beta ) ---     2a   (alpha)     2a   (beta )       -0.0390193771
     5a   (alpha)     5a   (beta ) ---     3a   (alpha)     3a   (beta )       -0.0644484174
     5a   (alpha)     5a   (beta ) ---     4a   (alpha)     4a   (beta )       -0.1721354797
     5a   (alpha)     6a   (beta ) ---     2a   (alpha)     3a   (beta )        0.0312641438
     5a   (alpha)     6a   (beta ) ---     3a   (alpha)     4a   (beta )       -0.0694982999
     5a   (alpha)     6a   (beta ) ---     4a   (alpha)     3a   (beta )       -0.0256046330
     5a   (alpha)     7a   (beta ) ---     2a   (alpha)     4a   (beta )       -0.0368811299
     5a   (alpha)     7a   (beta ) ---     4a   (alpha)     4a   (beta )       -0.0311666227
     6a   (alpha)     5a   (beta ) ---     3a   (alpha)     2a   (beta )        0.0312641438
     6a   (alpha)     5a   (beta ) ---     3a   (alpha)     4a   (beta )       -0.0256046330
     6a   (alpha)     5a   (beta ) ---     4a   (alpha)     3a   (beta )       -0.0694982999
     6a   (alpha)     6a   (beta ) ---     2a   (alpha)     2a   (beta )       -0.0266203061
     6a   (alpha)     6a   (beta ) ---     3a   (alpha)     3a   (beta )       -0.0442813912
     6a   (alpha)     6a   (beta ) ---     4a   (alpha)     4a   (beta )       -0.0438641757
     7a   (alpha)     5a   (beta ) ---     4a   (alpha)     2a   (beta )       -0.0368811299
     7a   (alpha)     5a   (beta ) ---     4a   (alpha)     4a   (beta )       -0.0311666227
 Ground state specification:
 exp(T)|Ref>~(1+T)|Ref>
 ------- a(p)+/a(q) strings ----------

 singles norm

 doubles norm

 Reference string
  0.985506004147527      :(1a)+ (2a)+ (3a)+ (4a)+ (1b)+ (2b)+ (3b)+ (4b)+ |0>

 Singles strings

 Doubles strings
 -0.169640548776448      :(5a)+ (5b)+ (4b)  (4a)  (1a)+ (2a)+ (3a)+ (4a)+ (1b)+ 
 (2b)+ (3b)+ (4b)+ |0>
 -------------------------------------

 Task  times  cpu:       63.9s     wall:       63.9s
 
 
                                NWChem Input Module
                                -------------------
 
 
 Summary of allocated global arrays
-----------------------------------
  No active global arrays


MA_summarize_allocated_blocks: starting scan ...
MA_summarize_allocated_blocks: scan completed: 0 heap blocks, 0 stack blocks
MA usage statistics:

	allocation statistics:
					      heap	     stack
					      ----	     -----
	current number of blocks	         0	         0
	maximum number of blocks	        16	        42
	current total bytes		         0	         0
	maximum total bytes		     80104	  33006664
	maximum total K-bytes		        81	     33007
	maximum total M-bytes		         1	        34
 
 
                                     CITATION
                                     --------
                Please cite the following reference when publishing
                           results obtained with NWChem:
 
          E. Apra, E. J. Bylaska, W. A. de Jong, N. Govind, K. Kowalski,
       T. P. Straatsma, M. Valiev, H. J. J. van Dam, Y. Alexeev, J. Anchell,
       V. Anisimov, F. W. Aquino, R. Atta-Fynn, J. Autschbach, N. P. Bauman,
     J. C. Becca, D. E. Bernholdt, K. Bhaskaran-Nair, S. Bogatko, P. Borowski,
         J. Boschen, J. Brabec, A. Bruner, E. Cauet, Y. Chen, G. N. Chuev,
      C. J. Cramer, J. Daily, M. J. O. Deegan, T. H. Dunning Jr., M. Dupuis,
   K. G. Dyall, G. I. Fann, S. A. Fischer, A. Fonari, H. Fruchtl, L. Gagliardi,
      J. Garza, N. Gawande, S. Ghosh, K. Glaesemann, A. W. Gotz, J. Hammond,
       V. Helms, E. D. Hermes, K. Hirao, S. Hirata, M. Jacquelin, L. Jensen,
   B. G. Johnson, H. Jonsson, R. A. Kendall, M. Klemm, R. Kobayashi, V. Konkov,
      S. Krishnamoorthy, M. Krishnan, Z. Lin, R. D. Lins, R. J. Littlefield,
      A. J. Logsdail, K. Lopata, W. Ma, A. V. Marenich, J. Martin del Campo,
   D. Mejia-Rodriguez, J. E. Moore, J. M. Mullin, T. Nakajima, D. R. Nascimento,
    J. A. Nichols, P. J. Nichols, J. Nieplocha, A. Otero-de-la-Roza, B. Palmer,
    A. Panyala, T. Pirojsirikul, B. Peng, R. Peverati, J. Pittner, L. Pollack,
   R. M. Richard, P. Sadayappan, G. C. Schatz, W. A. Shelton, D. W. Silverstein,
   D. M. A. Smith, T. A. Soares, D. Song, M. Swart, H. L. Taylor, G. S. Thomas,
            V. Tipparaju, D. G. Truhlar, K. Tsemekhman, T. Van Voorhis,
      A. Vazquez-Mayagoitia, P. Verma, O. Villa, A. Vishnu, K. D. Vogiatzis,
        D. Wang, J. H. Weare, M. J. Williamson, T. L. Windus, K. Wolinski,
        A. T. Wong, Q. Wu, C. Yang, Q. Yu, M. Zacharias, Z. Zhang, Y. Zhao,
                                and R. J. Harrison
                        "NWChem: Past, present, and future
                         J. Chem. Phys. 152, 184102 (2020)
                               doi:10.1063/5.0004997
 
                                      AUTHORS
                                      -------
  E. Apra, E. J. Bylaska, N. Govind, K. Kowalski, M. Valiev, D. Mejia-Rodriguez,
       A. Kunitsa, N. P. Bauman, A. Panyala, W. A. de Jong, T. P. Straatsma,
   H. J. J. van Dam, D. Wang, T. L. Windus, J. Hammond, J. Autschbach, A. Woods,
    K. Bhaskaran-Nair, J. Brabec, K. Lopata, S. A. Fischer, S. Krishnamoorthy,
     M. Jacquelin, W. Ma, M. Klemm, O. Villa, Y. Chen, V. Anisimov, F. Aquino,
     S. Hirata, M. T. Hackler, E. Hermes, L. Jensen, J. E. Moore, J. C. Becca,
      V. Konjkov, T. Risthaus, M. Malagoli, A. Marenich, A. Otero-de-la-Roza,
        J. Mullin, P. Nichols, R. Peverati, J. Pittner, Y. Zhao, P.-D. Fan,
        A. Fonari, M. J. Williamson, R. J. Harrison, J. R. Rehr, M. Dupuis,
     D. Silverstein, D. M. A. Smith, J. Nieplocha, V. Tipparaju, M. Krishnan,
     B. E. Van Kuiken, A. Vazquez-Mayagoitia, M. Swart, Q. Wu, T. Van Voorhis,
     A. A. Auer, M. Nooijen, L. D. Crosby, E. Brown, G. Cisneros, G. I. Fann,
   H. Fruchtl, J. Garza, K. Hirao, R. A. Kendall, J. A. Nichols, K. Tsemekhman,
    K. Wolinski, J. Anchell, D. E. Bernholdt, P. Borowski, T. Clark, D. Clerc,
   H. Dachsel, M. J. O. Deegan, K. Dyall, D. Elwood, E. Glendening, M. Gutowski,
   A. C. Hess, J. Jaffe, B. G. Johnson, J. Ju, R. Kobayashi, R. Kutteh, Z. Lin,
   R. Littlefield, X. Long, B. Meng, T. Nakajima, S. Niu, L. Pollack, M. Rosing,
   K. Glaesemann, G. Sandrone, M. Stave, H. Taylor, G. Thomas, J. H. van Lenthe,
                               A. T. Wong, Z. Zhang.

 Total times  cpu:       65.7s     wall:       65.7s
