 argument  1 = input.nw
  NWChem w/ OpenMP: maximum threads =    1
 


============================== echo of input deck ==============================

echo
start H8
title "H8"

memory total 120 gb

geometry units bohr
symmetry c1
H 0 0 0
H 0 0 2.17
H 0 0 4.34
H 0 0 6.51
H 0 0 8.68
H 0 0 10.85
H 0 0 13.02
H 0 0 15.19
end

basis spherical
  * library cc-pVTZ
end

scf
thresh 1e-8
end

tce
  2eorb
  2emet 13
  ccsd
  thresh 1e-8
  maxiter 300
end

set tce:print_integrals T
set tce:qorb 8
set tce:qela 4
set tce:qelb 4

# set tce:qducc T
# set tce:nactv 4
# set tce:nonhf T
# set tce:ducc_model 6

set tce:printtol 0.02

task tce
================================================================================


                                         
                                         
 
 
             Northwest Computational Chemistry Package (NWChem) 7.2.3
             --------------------------------------------------------
 
 
                    Environmental Molecular Sciences Laboratory
                       Pacific Northwest National Laboratory
                                Richland, WA 99352
 
                              Copyright (c) 1994-2022
                       Pacific Northwest National Laboratory
                            Battelle Memorial Institute
 
             NWChem is an open-source computational chemistry package
                        distributed under the terms of the
                      Educational Community License (ECL) 2.0
             A copy of the license is included with this distribution
                              in the LICENSE.TXT file
 
                                  ACKNOWLEDGMENT
                                  --------------

            This software and its documentation were developed at the
            EMSL at Pacific Northwest National Laboratory, a multiprogram
            national laboratory, operated for the U.S. Department of Energy
            by Battelle under Contract Number DE-AC05-76RL01830. Support
            for this work was provided by the Department of Energy Office
            of Biological and Environmental Research, Office of Basic
            Energy Sciences, and the Office of Advanced Scientific Computing.


           Job information
           ---------------

    hostname        = koothan
    program         = /hpc/home/baum612/code/nwchem/bin/LINUX64/nwchem
    date            = Fri Nov 15 12:32:54 2024

    compiled        = Wed_Nov_13_16:23:19_2024
    source          = /hpc/home/baum612/code/nwchem
    nwchem branch   = 7.2.3
    nwchem revision = v7.2.0-beta1-1280-g0779ca2e41
    ga revision     = 5.8.0
    use scalapack   = T
    input           = input.nw
    prefix          = H8.
    data base       = ./H8.db
    status          = startup
    nproc           =        1
    time left       =     -1s



           Memory information
           ------------------

    heap     =   4026531840 doubles =    30720.0 Mbytes
    stack    =   4026531837 doubles =    30720.0 Mbytes
    global   =   8053063680 doubles =    61440.0 Mbytes (distinct from heap & stack)
    total    =  16106127357 doubles =   122880.0 Mbytes
    verify   = yes
    hardfail = no 


           Directory information
           ---------------------
 
  0 permanent = .
  0 scratch   = .
 
 
 
 
                                NWChem Input Module
                                -------------------
 
 
                                        H8
                                        --
 Turning off AUTOSYM since
 SYMMETRY directive was detected!
 

          ------
          auto-z
          ------
     1 autoz failed with cvr_scaling = 1.2 changing to 1.3
     2 autoz failed with cvr_scaling = 1.3 changing to 1.4
     3 autoz failed with cvr_scaling = 1.4 changing to 1.5
  Looking for out-of-plane bends
  autoz: insufficient variables                      7                    18
     4 autoz failed with cvr_scaling = 1.5 changing to 1.6
  Looking for out-of-plane bends
  autoz: insufficient variables                      7                    18
     5 autoz failed with cvr_scaling = 1.6 changing to 1.7
  Looking for out-of-plane bends
  autoz: insufficient variables                      7                    18

 AUTOZ failed to generate good internal coordinates.
 Cartesian coordinates will be used in optimizations.

 
 
                             Geometry "geometry" -> ""
                             -------------------------
 
 Output coordinates in a.u. (scale by  1.000000000 to convert to a.u.)
 
  No.       Tag          Charge          X              Y              Z
 ---- ---------------- ---------- -------------- -------------- --------------
    1 H                    1.0000     0.00000000     0.00000000    -7.59500000
    2 H                    1.0000     0.00000000     0.00000000    -5.42500000
    3 H                    1.0000     0.00000000     0.00000000    -3.25500000
    4 H                    1.0000     0.00000000     0.00000000    -1.08500000
    5 H                    1.0000     0.00000000     0.00000000     1.08500000
    6 H                    1.0000     0.00000000     0.00000000     3.25500000
    7 H                    1.0000     0.00000000     0.00000000     5.42500000
    8 H                    1.0000     0.00000000     0.00000000     7.59500000
 
      Atomic Mass 
      ----------- 
 
      H                  1.007825
 

 Effective nuclear repulsion energy (a.u.)       6.3331138907

            Nuclear Dipole moment (a.u.) 
            ----------------------------
        X                 Y               Z
 ---------------- ---------------- ----------------
     0.0000000000     0.0000000000     0.0000000000
 
 
            XYZ format geometry
            -------------------
     8
 geometry
 H                     0.00000000     0.00000000    -4.01910121
 H                     0.00000000     0.00000000    -2.87078658
 H                     0.00000000     0.00000000    -1.72247195
 H                     0.00000000     0.00000000    -0.57415732
 H                     0.00000000     0.00000000     0.57415732
 H                     0.00000000     0.00000000     1.72247195
 H                     0.00000000     0.00000000     2.87078658
 H                     0.00000000     0.00000000     4.01910121
 


 Summary of "ao basis" -> "" (spherical)
 ------------------------------------------------------------------------------
       Tag                 Description            Shells   Functions and Types
 ---------------- ------------------------------  ------  ---------------------
 *                          cc-pVTZ                   on all atoms 


                      Basis "ao basis" -> "ao basis" (spherical)
                      -----
  H (Hydrogen)
  ------------
            Exponent  Coefficients 
       -------------- ---------------------------------------------------------
  1 S  3.38700000E+01  0.006068
  1 S  5.09500000E+00  0.045308
  1 S  1.15900000E+00  0.202822
 
  2 S  3.25800000E-01  1.000000
 
  3 S  1.02700000E-01  1.000000
 
  4 P  1.40700000E+00  1.000000
 
  5 P  3.88000000E-01  1.000000
 
  6 D  1.05700000E+00  1.000000
 


 Summary of "ao basis" -> "ao basis" (spherical)
 ------------------------------------------------------------------------------
       Tag                 Description            Shells   Functions and Types
 ---------------- ------------------------------  ------  ---------------------
 H                          cc-pVTZ                  6       14   3s2p1d


                                 NWChem SCF Module
                                 -----------------
 
 
                                        H8
 
 

  ao basis        = "ao basis"
  functions       =   112
  atoms           =     8
  closed shells   =     4
  open shells     =     0
  charge          =   0.00
  wavefunction    = RHF 
  input vectors   = atomic
  output vectors  = ./H8.movecs
  use symmetry    = F
  symmetry adapt  = F


 Summary of "ao basis" -> "ao basis" (spherical)
 ------------------------------------------------------------------------------
       Tag                 Description            Shells   Functions and Types
 ---------------- ------------------------------  ------  ---------------------
 H                          cc-pVTZ                  6       14   3s2p1d



 Forming initial guess at       1.8s

 
      Superposition of Atomic Density Guess
      -------------------------------------
 
 Sum of atomic energies:          -3.99847357
 
      Non-variational initial energy
      ------------------------------

 Total energy =      -3.444530
 1-e energy   =     -16.396920
 2-e energy   =       6.619276
 HOMO         =      -0.260760
 LUMO         =      -0.086806
 

 Starting SCF solution at       1.9s



 ----------------------------------------------
         Quadratically convergent ROHF

 Convergence threshold     :          1.000E-08
 Maximum no. of iterations :           30
 Final Fock-matrix accuracy:          1.000E-10
 ----------------------------------------------


              iter       energy          gnorm     gmax       time
             ----- ------------------- --------- --------- --------
                 1       -4.2357919717  2.38D-01  1.22D-01      2.3
                 2       -4.2493367745  8.10D-02  3.84D-02      3.2
                 3       -4.2504002501  5.39D-03  2.64D-03      4.1
                 4       -4.2504065308  5.44D-06  3.53D-06      5.7
                 5       -4.2504065308  1.22D-10  3.16D-11      8.0


       Final RHF  results 
       ------------------ 

         Total SCF energy =     -4.250406530839
      One-electron energy =    -16.984408646199
      Two-electron energy =      6.400888224643
 Nuclear repulsion energy =      6.333113890718

        Time for solution =      6.2s


             Final eigenvalues
             -----------------

              1      
    1   -0.6486
    2   -0.5880
    3   -0.4907
    4   -0.3640
    5   -0.0136
    6    0.1291
    7    0.2529
    8    0.3267
    9    0.3389
   10    0.3921
   11    0.4300
   12    0.5319
   13    0.5419
   14    0.5574
 
                       ROHF Final Molecular Orbital Analysis
                       -------------------------------------
 
 Vector    1  Occ=2.000000D+00  E=-6.486054D-01
              MO Center=  2.5D-16, -1.3D-16,  1.1D-11, r^2= 3.9D+00
   Bfn.  Coefficient  Atom+Function         Bfn.  Coefficient  Atom+Function  
  ----- ------------  ---------------      ----- ------------  ---------------
    44      0.183047  4 H  s                 58      0.183047  5 H  s          
    30      0.164195  3 H  s                 72      0.164195  6 H  s          
 
 Vector    2  Occ=2.000000D+00  E=-5.880057D-01
              MO Center= -2.8D-16, -3.3D-18, -4.5D-12, r^2= 8.3D+00
   Bfn.  Coefficient  Atom+Function         Bfn.  Coefficient  Atom+Function  
  ----- ------------  ---------------      ----- ------------  ---------------
    16      0.179009  2 H  s                 86     -0.179009  7 H  s          
    30      0.157898  3 H  s                 72     -0.157898  6 H  s          
 
 Vector    3  Occ=2.000000D+00  E=-4.907076D-01
              MO Center=  5.3D-17, -1.4D-17, -3.7D-12, r^2= 9.8D+00
   Bfn.  Coefficient  Atom+Function         Bfn.  Coefficient  Atom+Function  
  ----- ------------  ---------------      ----- ------------  ---------------
     2      0.174913  1 H  s                 16      0.174413  2 H  s          
    86      0.174413  7 H  s                100      0.174913  8 H  s          
    17      0.166231  2 H  s                 87      0.166231  7 H  s          
    44     -0.150005  4 H  s                 58     -0.150005  5 H  s          
 
 Vector    4  Occ=2.000000D+00  E=-3.639973D-01
              MO Center= -1.9D-16,  4.5D-17, -4.8D-12, r^2= 8.5D+00
   Bfn.  Coefficient  Atom+Function         Bfn.  Coefficient  Atom+Function  
  ----- ------------  ---------------      ----- ------------  ---------------
    31      0.221723  3 H  s                 73     -0.221723  6 H  s          
    30      0.189249  3 H  s                 72     -0.189249  6 H  s          
     2     -0.170024  1 H  s                 45      0.169661  4 H  s          
    59     -0.169661  5 H  s                100      0.170024  8 H  s          
     3     -0.162971  1 H  s                101      0.162971  8 H  s          
 
 Vector    5  Occ=0.000000D+00  E=-1.359639D-02
              MO Center= -3.6D-17,  3.7D-17,  2.9D-11, r^2= 1.0D+01
   Bfn.  Coefficient  Atom+Function         Bfn.  Coefficient  Atom+Function  
  ----- ------------  ---------------      ----- ------------  ---------------
     3      0.501618  1 H  s                101      0.501618  8 H  s          
    31     -0.300440  3 H  s                 73     -0.300440  6 H  s          
    17     -0.279235  2 H  s                 87     -0.279235  7 H  s          
    45      0.271388  4 H  s                 59      0.271388  5 H  s          
    30     -0.184726  3 H  s                 72     -0.184726  6 H  s          
 
 Vector    6  Occ=0.000000D+00  E= 1.291379D-01
              MO Center=  8.9D-18,  9.2D-17,  3.5D-10, r^2= 1.6D+01
   Bfn.  Coefficient  Atom+Function         Bfn.  Coefficient  Atom+Function  
  ----- ------------  ---------------      ----- ------------  ---------------
    17      1.438237  2 H  s                 87     -1.438237  7 H  s          
     3     -1.156446  1 H  s                101      1.156446  8 H  s          
    31     -0.915093  3 H  s                 73      0.915093  6 H  s          
    45      0.325816  4 H  s                 59     -0.325816  5 H  s          
    44     -0.205084  4 H  s                 58      0.205084  5 H  s          
 
 Vector    7  Occ=0.000000D+00  E= 2.528803D-01
              MO Center= -9.0D-19,  1.2D-19,  1.6D-09, r^2= 1.8D+01
   Bfn.  Coefficient  Atom+Function         Bfn.  Coefficient  Atom+Function  
  ----- ------------  ---------------      ----- ------------  ---------------
    17      2.127973  2 H  s                 87      2.127973  7 H  s          
    31     -1.981900  3 H  s                 73     -1.981900  6 H  s          
     3     -1.605709  1 H  s                101     -1.605709  8 H  s          
    45      0.790306  4 H  s                 59      0.790306  5 H  s          
     2      0.326886  1 H  s                100      0.326886  8 H  s          
 
 Vector    8  Occ=0.000000D+00  E= 3.267049D-01
              MO Center= -1.4D-16,  9.8D-17, -3.6D-10, r^2= 5.8D+00
   Bfn.  Coefficient  Atom+Function         Bfn.  Coefficient  Atom+Function  
  ----- ------------  ---------------      ----- ------------  ---------------
    17      0.727080  2 H  s                 87      0.727080  7 H  s          
    45      0.660730  4 H  s                 59      0.660730  5 H  s          
    44     -0.607387  4 H  s                 58     -0.607387  5 H  s          
    30     -0.537327  3 H  s                 72     -0.537327  6 H  s          
    16     -0.291414  2 H  s                 86     -0.291414  7 H  s          
 
 Vector    9  Occ=0.000000D+00  E= 3.388719D-01
              MO Center= -1.1D-16, -1.6D-16, -7.4D-10, r^2= 1.5D+01
   Bfn.  Coefficient  Atom+Function         Bfn.  Coefficient  Atom+Function  
  ----- ------------  ---------------      ----- ------------  ---------------
    45     -3.248458  4 H  s                 59      3.248458  5 H  s          
    31      3.059281  3 H  s                 73     -3.059281  6 H  s          
    17     -1.515777  2 H  s                 87      1.515777  7 H  s          
     3      1.296049  1 H  s                101     -1.296049  8 H  s          
     2     -0.630008  1 H  s                100      0.630008  8 H  s          
 
 Vector   10  Occ=0.000000D+00  E= 3.920778D-01
              MO Center= -8.4D-16, -1.2D-16,  4.9D-10, r^2= 1.2D+01
   Bfn.  Coefficient  Atom+Function         Bfn.  Coefficient  Atom+Function  
  ----- ------------  ---------------      ----- ------------  ---------------
    45      4.397944  4 H  s                 59     -4.397944  5 H  s          
    17      3.169496  2 H  s                 87     -3.169496  7 H  s          
    31     -3.065950  3 H  s                 73      3.065950  6 H  s          
     3     -1.433448  1 H  s                101      1.433448  8 H  s          
    16     -0.663570  2 H  s                 86      0.663570  7 H  s          
 
 Vector   11  Occ=0.000000D+00  E= 4.300290D-01
              MO Center=  8.6D-17,  7.9D-17,  6.7D-10, r^2= 1.1D+01
   Bfn.  Coefficient  Atom+Function         Bfn.  Coefficient  Atom+Function  
  ----- ------------  ---------------      ----- ------------  ---------------
    17      1.497729  2 H  s                 87      1.497729  7 H  s          
    31     -0.772016  3 H  s                 73     -0.772016  6 H  s          
     2     -0.655432  1 H  s                100     -0.655432  8 H  s          
    44      0.636139  4 H  s                 58      0.636139  5 H  s          
    16     -0.447186  2 H  s                 86     -0.447186  7 H  s          
 
 Vector   12  Occ=0.000000D+00  E= 5.318524D-01
              MO Center=  2.8D-16,  3.9D-16, -2.6D-09, r^2= 1.4D+01
   Bfn.  Coefficient  Atom+Function         Bfn.  Coefficient  Atom+Function  
  ----- ------------  ---------------      ----- ------------  ---------------
    17      1.681325  2 H  s                 87      1.681325  7 H  s          
     3     -1.322115  1 H  s                101     -1.322115  8 H  s          
    16     -0.869375  2 H  s                 86     -0.869375  7 H  s          
     2      0.615016  1 H  s                100      0.615016  8 H  s          
    45     -0.514180  4 H  s                 59     -0.514180  5 H  s          
 
 Vector   13  Occ=0.000000D+00  E= 5.418748D-01
              MO Center= -3.8D-16, -1.7D-16,  2.0D-09, r^2= 1.0D+01
   Bfn.  Coefficient  Atom+Function         Bfn.  Coefficient  Atom+Function  
  ----- ------------  ---------------      ----- ------------  ---------------
    31      4.681201  3 H  s                 73     -4.681201  6 H  s          
    17     -3.492702  2 H  s                 87      3.492702  7 H  s          
    45     -3.164987  4 H  s                 59      3.164987  5 H  s          
     3      0.616786  1 H  s                101     -0.616786  8 H  s          
    30     -0.554288  3 H  s                 72      0.554288  6 H  s          
 
 Vector   14  Occ=0.000000D+00  E= 5.573696D-01
              MO Center=  4.1D-17, -1.7D-17,  2.8D-11, r^2= 4.2D+00
   Bfn.  Coefficient  Atom+Function         Bfn.  Coefficient  Atom+Function  
  ----- ------------  ---------------      ----- ------------  ---------------
    50      0.305868  4 H  py                64      0.305868  5 H  py         
    36      0.266625  3 H  py                78      0.266625  6 H  py         
    49     -0.204718  4 H  px                63     -0.204718  5 H  px         
    22      0.192272  2 H  py                92      0.192272  7 H  py         
    35     -0.178453  3 H  px                77     -0.178453  6 H  px         
 

 center of mass
 --------------
 x =   0.00000000 y =   0.00000000 z =   0.00000000

 moments of inertia (a.u.)
 ------------------
         199.321379985000           0.000000000000           0.000000000000
           0.000000000000         199.321379985000           0.000000000000
           0.000000000000           0.000000000000           0.000000000000
 
  Mulliken analysis of the total density
  --------------------------------------

    Atom       Charge   Shell Charges
 -----------   ------   -------------------------------------------------------
    1 H    1     0.96   0.17  0.47  0.31  0.00  0.01  0.00
    2 H    1     1.07   0.18  0.50  0.36  0.00  0.02  0.00
    3 H    1     0.96   0.18  0.51  0.24  0.00  0.02  0.00
    4 H    1     1.01   0.18  0.51  0.29  0.00  0.03  0.00
    5 H    1     1.01   0.18  0.51  0.29  0.00  0.03  0.00
    6 H    1     0.96   0.18  0.51  0.24  0.00  0.02  0.00
    7 H    1     1.07   0.18  0.50  0.36  0.00  0.02  0.00
    8 H    1     0.96   0.17  0.47  0.31  0.00  0.01  0.00
 
       Multipole analysis of the density wrt the origin
       ------------------------------------------------
 
     L   x y z        total         open         nuclear
     -   - - -        -----         ----         -------
     0   0 0 0     -0.000000      0.000000      8.000000
 
     1   1 0 0      0.000000      0.000000      0.000000
     1   0 1 0      0.000000      0.000000      0.000000
     1   0 0 1      0.000000      0.000000      0.000000
 
     2   2 0 0     -7.421239      0.000000      0.000000
     2   1 1 0     -0.000000      0.000000      0.000000
     2   1 0 1      0.000000      0.000000      0.000000
     2   0 2 0     -7.421239      0.000000      0.000000
     2   0 1 1     -0.000000      0.000000      0.000000
     2   0 0 2     -5.442396      0.000000    197.773800
 
 ------------------------------------
     Number of active orbitals      8
     Number of active alpha electrons      4
     Number of active beta electrons       4
 ------------------------------------
                   NWChem Extensible Many-Electron Theory Module
                   ---------------------------------------------
 
              ======================================================
                   This portion of the program was automatically
                  generated by a Tensor Contraction Engine (TCE).
                  The development of this portion of the program
                 and TCE was supported by US Department of Energy,
                Office of Science, Office of Basic Energy Science.
                      TCE is a product of Battelle and PNNL.
              Please cite: S.Hirata, J.Phys.Chem.A 107, 9887 (2003).
              ======================================================
 
                                        H8
 
 
            General Information
            -------------------
      Number of processors :     1
         Wavefunction type : Restricted Hartree-Fock
          No. of electrons :     8
           Alpha electrons :     4
            Beta electrons :     4
           No. of orbitals :   224
            Alpha orbitals :   112
             Beta orbitals :   112
        Alpha frozen cores :     0
         Beta frozen cores :     0
     Alpha frozen virtuals :   104
      Beta frozen virtuals :   104
         Spin multiplicity : singlet 
    Number of AO functions :   112
       Number of AO shells :    48
        Use of symmetry is : off
      Symmetry adaption is : off
         Schwarz screening : 0.10D-09
 
          Correlation Information
          -----------------------
          Calculation type : Coupled-cluster singles & doubles                           
   Perturbative correction : none                                                        
            Max iterations :      300
        Residual threshold : 0.10D-07
     T(0) DIIS level shift : 0.00D+00
     L(0) DIIS level shift : 0.00D+00
     T(1) DIIS level shift : 0.00D+00
     L(1) DIIS level shift : 0.00D+00
     T(R) DIIS level shift : 0.00D+00
     T(I) DIIS level shift : 0.00D+00
   CC-T/L Amplitude update :  5-th order DIIS
                I/O scheme : Global Array Library
        L-threshold :  0.10D-07
        EOM-threshold :  0.10D-07
 no EOMCCSD initial starts read in
 TCE RESTART OPTIONS
 READ_INT:   F
 WRITE_INT:  F
 READ_TA:    F
 WRITE_TA:   F
 READ_XA:    F
 WRITE_XA:   F
 READ_IN3:   F
 WRITE_IN3:  F
 SLICE:      F
 D4D5:       F
 quantumc:   T
 qrotation:  F
 pwtce:      F
 qducc:      F
 nacto:                          0
 nrotv:                          0
 nrot:                           0
 
            Memory Information
            ------------------
          Available GA space size is    8053051136 doubles
          Available MA space size is    8053060452 doubles
 
 Maximum block size supplied by input
 Maximum block size         1 doubles

 tile_dim =      1

 Block   Spin    Irrep     Size     Offset   Alpha
 -------------------------------------------------
   1    alpha     a      1 doubles       0       1
   2    alpha     a      1 doubles       1       2
   3    alpha     a      1 doubles       2       3
   4    alpha     a      1 doubles       3       4
   5    beta      a      1 doubles       4       1
   6    beta      a      1 doubles       5       2
   7    beta      a      1 doubles       6       3
   8    beta      a      1 doubles       7       4
   9    alpha     a      1 doubles       8       9
  10    alpha     a      1 doubles       9      10
  11    alpha     a      1 doubles      10      11
  12    alpha     a      1 doubles      11      12
  13    beta      a      1 doubles      12       9
  14    beta      a      1 doubles      13      10
  15    beta      a      1 doubles      14      11
  16    beta      a      1 doubles      15      12

 Global array virtual files algorithm will be used

 Parallel file system coherency ......... OK
 
 Fock matrix recomputed
 1-e file size   =               64
 1-e file name   = ./H8.f1
 Cpu & wall time / sec            0.4            0.4
 4-electron integrals stored in orbital form
 
 v2    file size   =              666
 4-index algorithm nr.  13 is used
 imaxsize =       30
 imaxsize ichop =        0
 begin_one_electron_integrals
    1    1        -2.3333336103
    3    1         0.1268815649
    5    1         0.0415376642
    7    1        -0.0416749024
    8    1         0.1480756667
    2    2        -2.1592569162
    4    2        -0.1723608733
    6    2        -0.1002982594
    1    3         0.1268815649
    3    3        -2.0251563102
    5    3         0.2088387166
    7    3        -0.0795570030
    8    3        -0.0261496199
    2    4        -0.1723608733
    4    4        -1.9744574865
    6    4         0.1944405761
    1    5         0.0415376642
    3    5         0.2088387166
    5    5        -1.7939254561
    7    5        -0.2832141917
    8    5        -0.0400908821
    2    6        -0.1002982594
    4    6         0.1944405761
    6    6        -1.4613568789
    7    6        -0.0000000001
    8    6        -0.0000000001
    1    7        -0.0416749024
    3    7        -0.0795570030
    5    7        -0.2832141917
    6    7        -0.0000000001
    7    7        -1.2435796265
    8    7        -0.0190973994
    1    8         0.1480756667
    3    8        -0.0261496199
    5    8        -0.0400908821
    6    8        -0.0000000001
    7    8        -0.0190973994
    8    8        -1.3398677783
 end_one_electron_integrals
 begin_two_electron_integrals
    1    1    1    1        0.3374397158
    2    1    2    1        0.1157460186
    3    1    1    1       -0.0648800405
    3    1    3    1        0.0779045326
    3    1    2    2        0.0176549834
    4    1    2    1        0.0451354272
    4    1    4    1        0.0689273573
    4    1    3    2       -0.0263537650
    5    1    1    1        0.0031111976
    5    1    3    1       -0.0318253673
    5    1    5    1        0.0497819559
    5    1    2    2       -0.0319409244
    5    1    4    2       -0.0094220362
    5    1    3    3        0.0106994949
    5    1    4    4       -0.0034389874
    6    1    2    1        0.0039553023
    6    1    4    1       -0.0209456355
    6    1    6    1        0.0256384022
    6    1    3    2        0.0237993001
    6    1    5    2       -0.0151787466
    6    1    4    3        0.0066546359
    6    1    5    4       -0.0036514042
    7    1    1    1        0.0059495181
    7    1    3    1       -0.0024319400
    7    1    5    1        0.0210813556
    7    1    7    1        0.0199425045
    7    1    2    2        0.0021228973
    7    1    4    2       -0.0169730046
    7    1    6    2        0.0030488642
    7    1    3    3        0.0218577720
    7    1    5    3       -0.0086022588
    7    1    4    4       -0.0007172564
    7    1    6    4       -0.0039746275
    7    1    5    5        0.0040475323
    7    1    6    6        0.0071077094
    8    1    1    1       -0.0415440121
    8    1    3    1        0.0128863398
    8    1    5    1        0.0020059967
    8    1    7    1        0.0018472282
    8    1    8    1        0.0171932046
    8    1    2    2       -0.0280657363
    8    1    4    2       -0.0160383295
    8    1    6    2        0.0006595106
    8    1    3    3       -0.0232336774
    8    1    5    3        0.0096838929
    8    1    7    3        0.0000400463
    8    1    4    4       -0.0319137418
    8    1    6    4        0.0107691402
    8    1    5    5       -0.0274413198
    8    1    7    5       -0.0128924648
    8    1    6    6       -0.0177037661
    8    1    7    7       -0.0159321122
    2    2    1    1        0.2688416462
    2    2    2    2        0.2877731768
    3    2    2    1        0.0709743483
    3    2    3    2        0.1007465288
    4    2    1    1        0.0682923858
    4    2    3    1       -0.0581697480
    4    2    2    2        0.0079120581
    4    2    4    2        0.0734412283
    4    2    3    3       -0.0146444500
    5    2    2    1       -0.0446226715
    5    2    4    1       -0.0332164369
    5    2    3    2       -0.0076712792
    5    2    5    2        0.0492158820
    5    2    4    3        0.0000613196
    6    2    1    1        0.0067295432
    6    2    3    1        0.0261174736
    6    2    5    1       -0.0263858812
    6    2    2    2        0.0342139195
    6    2    4    2       -0.0062741359
    6    2    6    2        0.0333163401
    6    2    3    3        0.0124846448
    6    2    5    3       -0.0105336582
    6    2    4    4       -0.0003149329
    6    2    5    5        0.0066620183
    7    2    2    1       -0.0001949504
    7    2    4    1       -0.0243045271
    7    2    6    1        0.0105376612
    7    2    3    2        0.0256192560
    7    2    5    2        0.0084242396
    7    2    7    2        0.0216837356
    7    2    4    3       -0.0117358000
    7    2    6    3        0.0057027502
    7    2    5    4        0.0049115697
    7    2    6    5       -0.0049600870
    8    2    2    1       -0.0224396349
    8    2    4    1       -0.0148685328
    8    2    6    1        0.0019931041
    8    2    3    2       -0.0072685618
    8    2    5    2        0.0103423297
    8    2    7    2        0.0031985978
    8    2    8    2        0.0102598445
    8    2    4    3        0.0135443886
    8    2    6    3       -0.0069910357
    8    2    5    4        0.0109848234
    8    2    7    4        0.0100230266
    8    2    6    5        0.0099986776
    8    2    7    6       -0.0045066897
    3    3    1    1        0.2568559590
    3    3    3    1        0.0034263168
    3    3    2    2        0.2594451547
    3    3    3    3        0.2707453894
    4    3    2    1       -0.0833262781
    4    3    4    1       -0.0105077853
    4    3    3    2       -0.0771032491
    4    3    4    3        0.0930847402
    5    3    1    1       -0.0629499995
    5    3    3    1        0.0445797275
    5    3    5    1       -0.0058450309
    5    3    2    2       -0.0153028415
    5    3    4    2       -0.0433995266
    5    3    3    3       -0.0095931473
    5    3    5    3        0.0526982201
    5    3    4    4       -0.0138294900
    6    3    2    1        0.0362898762
    6    3    4    1        0.0283115793
    6    3    6    1        0.0051553775
    6    3    3    2        0.0061397513
    6    3    5    2       -0.0307501807
    6    3    4    3       -0.0093779460
    6    3    6    3        0.0376526979
    6    3    5    4        0.0077527018
    7    3    1    1        0.0023022311
    7    3    3    1        0.0312902384
    7    3    5    1       -0.0202773110
    7    3    7    1        0.0001021122
    7    3    2    2        0.0356605391
    7    3    4    2       -0.0170100946
    7    3    6    2        0.0199073731
    7    3    3    3        0.0226652589
    7    3    5    3        0.0093249421
    7    3    7    3        0.0245467868
    7    3    4    4        0.0147715367
    7    3    6    4        0.0008406880
    7    3    5    5        0.0064322651
    7    3    6    6        0.0105988197
    8    3    1    1        0.0139630908
    8    3    3    1       -0.0138503045
    8    3    5    1        0.0041799358
    8    3    7    1        0.0001765674
    8    3    8    1       -0.0057605094
    8    3    2    2       -0.0007055748
    8    3    4    2        0.0115568676
    8    3    6    2       -0.0031830163
    8    3    3    3        0.0003913546
    8    3    5    3       -0.0093111720
    8    3    7    3       -0.0048795192
    8    3    8    3        0.0065825952
    8    3    4    4        0.0048984490
    8    3    6    4       -0.0084777423
    8    3    5    5        0.0032187641
    8    3    7    5        0.0064463915
    8    3    6    6       -0.0002113058
    8    3    7    7        0.0005865292
    4    4    1    1        0.2792355975
    4    4    3    1       -0.0201356222
    4    4    2    2        0.2584190818
    4    4    4    2        0.0251851215
    4    4    3    3        0.2514184458
    4    4    4    4        0.2677672143
    5    4    2    1       -0.0572327877
    5    4    4    1       -0.0046690282
    5    4    3    2       -0.0543181741
    5    4    5    2        0.0096056922
    5    4    4    3        0.0545775539
    5    4    5    4        0.0553771336
    6    4    1    1       -0.0622970872
    6    4    3    1        0.0376796839
    6    4    5    1       -0.0032769149
    6    4    2    2       -0.0225115834
    6    4    4    2       -0.0383808838
    6    4    6    2       -0.0052482600
    6    4    3    3       -0.0169971149
    6    4    5    3        0.0393683829
    6    4    4    4       -0.0274267240
    6    4    6    4        0.0390217534
    6    4    5    5       -0.0176773765
    7    4    2    1       -0.0455848012
    7    4    4    1       -0.0202938472
    7    4    6    1       -0.0063786507
    7    4    3    2       -0.0246282170
    7    4    5    2        0.0258776346
    7    4    7    2       -0.0000262908
    7    4    4    3        0.0253895549
    7    4    6    3       -0.0193906106
    7    4    5    4        0.0208049732
    7    4    7    4        0.0276642311
    7    4    6    5        0.0130696687
    8    4    2    1       -0.0182028783
    8    4    4    1       -0.0236047157
    8    4    6    1        0.0056535039
    8    4    3    2        0.0063649251
    8    4    5    2        0.0132871647
    8    4    7    2        0.0077100619
    8    4    8    2        0.0078849700
    8    4    4    3        0.0049358880
    8    4    6    3       -0.0107996226
    8    4    5    4        0.0031183177
    8    4    7    4        0.0083968000
    8    4    8    4        0.0120393628
    8    4    6    5        0.0023143304
    8    4    7    6        0.0013593826
    5    5    1    1        0.2637288844
    5    5    3    1       -0.0163565676
    5    5    5    1       -0.0028057752
    5    5    2    2        0.2462114724
    5    5    4    2        0.0200952207
    5    5    3    3        0.2392765766
    5    5    5    3       -0.0195726729
    5    5    4    4        0.2444841967
    5    5    5    5        0.2424978565
    6    5    2    1       -0.0680122005
    6    5    4    1       -0.0049641872
    6    5    6    1       -0.0013551524
    6    5    3    2       -0.0656182106
    6    5    5    2        0.0064628910
    6    5    4    3        0.0693858278
    6    5    6    3       -0.0033054605
    6    5    5    4        0.0483991811
    6    5    6    5        0.0680183781
    7    5    1    1        0.0710026361
    7    5    3    1       -0.0363456200
    7    5    5    1        0.0016118577
    7    5    7    1       -0.0006999606
    7    5    2    2        0.0327430660
    7    5    4    2        0.0385041884
    7    5    6    2       -0.0001081413
    7    5    3    3        0.0261834474
    7    5    5    3       -0.0311394996
    7    5    7    3       -0.0031075590
    7    5    4    4        0.0414957012
    7    5    6    4       -0.0295532749
    7    5    5    5        0.0355767300
    7    5    7    5        0.0386288611
    7    5    6    6        0.0053686685
    8    5    1    1        0.0095772659
    8    5    3    1        0.0007299780
    8    5    5    1       -0.0136945031
    8    5    7    1       -0.0069242478
    8    5    8    1       -0.0023373330
    8    5    2    2        0.0108327116
    8    5    4    2        0.0115433607
    8    5    6    2        0.0063525095
    8    5    3    3       -0.0027548473
    8    5    5    3       -0.0044170490
    8    5    7    3        0.0035453828
    8    5    8    3       -0.0016435340
    8    5    4    4        0.0054680465
    8    5    6    4       -0.0044326583
    8    5    5    5        0.0045302093
    8    5    7    5        0.0057574464
    8    5    8    5        0.0084540810
    8    5    6    6       -0.0007310693
    8    5    7    7        0.0016703798
    6    6    1    1        0.2124171075
    6    6    3    1        0.0069507301
    6    6    5    1       -0.0014376097
    6    6    2    2        0.2194123308
    6    6    4    2       -0.0067541196
    6    6    6    2        0.0076618399
    6    6    3    3        0.2191387427
    6    6    5    3       -0.0012493486
    6    6    4    4        0.2120938233
    6    6    6    4       -0.0032706071
    6    6    5    5        0.2092975489
    6    6    6    6        0.2049188519
    7    6    2    1        0.0449191739
    7    6    4    1       -0.0073191833
    7    6    6    1        0.0054116999
    7    6    3    2        0.0545032323
    7    6    5    2       -0.0012447083
    7    6    7    2        0.0042160843
    7    6    4    3       -0.0501603789
    7    6    6    3       -0.0044111919
    7    6    5    4       -0.0392833720
    7    6    7    4       -0.0060078774
    7    6    6    5       -0.0529587026
    7    6    7    6        0.0564723068
    8    6    2    1        0.0075817566
    8    6    4    1        0.0059002739
    8    6    6    1       -0.0067370615
    8    6    3    2        0.0023715729
    8    6    5    2        0.0036456378
    8    6    7    2       -0.0017277747
    8    6    8    2       -0.0017289253
    8    6    4    3       -0.0111057772
    8    6    6    3       -0.0008277530
    8    6    5    4       -0.0051291598
    8    6    7    4       -0.0002053801
    8    6    8    4       -0.0029554372
    8    6    6    5       -0.0079897499
    8    6    7    6        0.0050757156
    8    6    8    6        0.0044620729
    7    7    1    1        0.1992053514
    7    7    3    1        0.0013414683
    7    7    5    1       -0.0026681008
    7    7    7    1        0.0024612157
    7    7    2    2        0.2004974259
    7    7    4    2        0.0005928023
    7    7    6    2        0.0041651832
    7    7    3    3        0.1981177501
    7    7    5    3       -0.0020967249
    7    7    7    3        0.0064357922
    7    7    4    4        0.1973280638
    7    7    6    4       -0.0035842388
    7    7    5    5        0.1947124367
    7    7    7    5        0.0070838236
    7    7    6    6        0.1883525205
    7    7    7    7        0.1834002095
    8    7    1    1        0.0051733348
    8    7    3    1       -0.0008366361
    8    7    5    1       -0.0065024056
    8    7    7    1       -0.0059442993
    8    7    8    1       -0.0028022077
    8    7    2    2        0.0046664339
    8    7    4    2        0.0069800243
    8    7    6    2       -0.0008676970
    8    7    3    3       -0.0018160345
    8    7    5    3        0.0012845751
    8    7    7    3       -0.0002088464
    8    7    8    3       -0.0002685031
    8    7    4    4        0.0058065188
    8    7    6    4        0.0001702669
    8    7    5    5        0.0043698285
    8    7    7    5        0.0019008163
    8    7    8    5        0.0042478280
    8    7    6    6        0.0018893607
    8    7    7    7        0.0034311441
    8    7    8    7        0.0040438339
    8    8    1    1        0.2450465116
    8    8    3    1       -0.0384934221
    8    8    5    1       -0.0002682923
    8    8    7    1        0.0007438810
    8    8    8    1       -0.0115111151
    8    8    2    2        0.2045952974
    8    8    4    2        0.0425679658
    8    8    6    2        0.0038540512
    8    8    3    3        0.1955070960
    8    8    5    3       -0.0371309981
    8    8    7    3        0.0012809244
    8    8    8    3        0.0035056908
    8    8    4    4        0.2111749193
    8    8    6    4       -0.0372126178
    8    8    5    5        0.2017202298
    8    8    7    5        0.0444567481
    8    8    8    5        0.0076860641
    8    8    6    6        0.1690065599
    8    8    7    7        0.1619055761
    8    8    8    7        0.0027054636
    8    8    8    8        0.2173868293
 end_two_electron_integrals
 enrep_tce =    6.33311389071758     
  EHF(A)             =        -4.25040653
  EHF(total)         =        -4.25040653
  Shift (HFtot-HFA)  =        -0.00000000
 Cpu & wall time / sec           17.6           17.6
 T1-number-of-tasks                    16
 
 t1 file size   =               16
 t1 file name   = ./H8.t1
 t1 file handle =       -998
 T2-number-of-boxes                   356
 
 t2 file size   =              356
 t2 file name   = ./H8.t2
 t2 file handle =       -996
CCSD iterations
 ---------------------------------------------------------
 Iter          Residuum       Correlation     Cpu    Wall 
 ---------------------------------------------------------
NEW TASK SCHEDULING
CCSD_T1_NTS --- OK
CCSD_T2_NTS --- OK
    1   0.0536876226875  -0.0359383700877     1.5     1.5
    2   0.0230665272378  -0.0444296067084     1.5     1.5
    3   0.0131334156240  -0.0472105266326     1.5     1.5
    4   0.0082778467793  -0.0484066022707     1.5     1.5
    5   0.0054260858365  -0.0490299633182     1.5     1.5
 MICROCYCLE DIIS UPDATE:                     5                     5
    6   0.0009987070122  -0.0499910729587     1.5     1.5
    7   0.0005525581554  -0.0500022570676     1.5     1.5
    8   0.0003436139971  -0.0500151999890     1.5     1.5
    9   0.0002284583202  -0.0500212954448     1.5     1.5
   10   0.0001525188706  -0.0500264878466     1.5     1.5
 MICROCYCLE DIIS UPDATE:                    10                     5
   11   0.0000306184205  -0.0500357387992     1.5     1.5
   12   0.0000153539115  -0.0500389807874     1.6     1.6
   13   0.0000095256912  -0.0500404270032     1.5     1.5
   14   0.0000062315985  -0.0500410960082     1.5     1.5
   15   0.0000041203891  -0.0500414992339     1.5     1.5
 MICROCYCLE DIIS UPDATE:                    15                     5
   16   0.0000009553569  -0.0500421558502     1.5     1.5
   17   0.0000005472843  -0.0500421961377     1.5     1.5
   18   0.0000003379919  -0.0500422081652     1.5     1.5
   19   0.0000002219901  -0.0500422147244     1.5     1.5
   20   0.0000001469376  -0.0500422199927     1.5     1.5
 MICROCYCLE DIIS UPDATE:                    20                     5
   21   0.0000000287725  -0.0500422290054     1.5     1.5
   22   0.0000000142582  -0.0500422322108     1.5     1.5
   23   0.0000000087878  -0.0500422335263     1.5     1.5
 -----------------------------------------------------------------
 Iterations converged
 CCSD correlation energy / hartree =        -0.050042233526305
 CCSD total energy / hartree       =        -4.300448764364836

 Singles contributions
     5a   (alpha) ---     3a   (alpha)       -0.0254028791
     6a   (alpha) ---     4a   (alpha)        0.0373646433

 Doubles contributions
     5a   (alpha)     6a   (alpha) ---     2a   (alpha)     3a   (alpha)        0.0204479724
     5a   (alpha)     6a   (alpha) ---     3a   (alpha)     4a   (alpha)       -0.0444392764
     5a   (alpha)     7a   (alpha) ---     2a   (alpha)     4a   (alpha)       -0.0259881689
     5a   (alpha)     5a   (beta ) ---     1a   (alpha)     1a   (beta )       -0.0311471016
     5a   (alpha)     5a   (beta ) ---     2a   (alpha)     2a   (beta )       -0.0396626811
     5a   (alpha)     5a   (beta ) ---     3a   (alpha)     3a   (beta )       -0.0657348490
     5a   (alpha)     5a   (beta ) ---     4a   (alpha)     4a   (beta )       -0.1762593270
     5a   (alpha)     6a   (beta ) ---     2a   (alpha)     3a   (beta )        0.0322706760
     5a   (alpha)     6a   (beta ) ---     3a   (alpha)     4a   (beta )       -0.0720353407
     5a   (alpha)     6a   (beta ) ---     4a   (alpha)     3a   (beta )       -0.0275960643
     5a   (alpha)     7a   (beta ) ---     2a   (alpha)     4a   (beta )       -0.0391221083
     5a   (alpha)     7a   (beta ) ---     4a   (alpha)     4a   (beta )       -0.0305878121
     6a   (alpha)     5a   (beta ) ---     3a   (alpha)     2a   (beta )        0.0322706760
     6a   (alpha)     5a   (beta ) ---     3a   (alpha)     4a   (beta )       -0.0275960643
     6a   (alpha)     5a   (beta ) ---     4a   (alpha)     3a   (beta )       -0.0720353407
     6a   (alpha)     6a   (beta ) ---     2a   (alpha)     2a   (beta )       -0.0277964626
     6a   (alpha)     6a   (beta ) ---     3a   (alpha)     3a   (beta )       -0.0465825457
     6a   (alpha)     6a   (beta ) ---     4a   (alpha)     4a   (beta )       -0.0453580394
     6a   (alpha)     7a   (beta ) ---     2a   (alpha)     3a   (beta )       -0.0212877060
     7a   (alpha)     5a   (beta ) ---     4a   (alpha)     2a   (beta )       -0.0391221083
     7a   (alpha)     5a   (beta ) ---     4a   (alpha)     4a   (beta )       -0.0305878121
     7a   (alpha)     6a   (beta ) ---     3a   (alpha)     2a   (beta )       -0.0212877060
     7a   (alpha)     7a   (beta ) ---     4a   (alpha)     4a   (beta )       -0.0203165291
 Ground state specification:
 exp(T)|Ref>~(1+T)|Ref>
 ------- a(p)+/a(q) strings ----------

 singles norm

 doubles norm

 Reference string
  0.984819144721668      :(1a)+ (2a)+ (3a)+ (4a)+ (1b)+ (2b)+ (3b)+ (4b)+ |0>

 Singles strings

 Doubles strings
 -0.173583559675685      :(5a)+ (5b)+ (4b)  (4a)  (1a)+ (2a)+ (3a)+ (4a)+ (1b)+ 
 (2b)+ (3b)+ (4b)+ |0>
 -------------------------------------

 Task  times  cpu:       60.0s     wall:       60.0s
 
 
                                NWChem Input Module
                                -------------------
 
 
 Summary of allocated global arrays
-----------------------------------
  No active global arrays


MA_summarize_allocated_blocks: starting scan ...
MA_summarize_allocated_blocks: scan completed: 0 heap blocks, 0 stack blocks
MA usage statistics:

	allocation statistics:
					      heap	     stack
					      ----	     -----
	current number of blocks	         0	         0
	maximum number of blocks	        16	        42
	current total bytes		         0	         0
	maximum total bytes		     80104	  33006664
	maximum total K-bytes		        81	     33007
	maximum total M-bytes		         1	        34
 
 
                                     CITATION
                                     --------
                Please cite the following reference when publishing
                           results obtained with NWChem:
 
          E. Apra, E. J. Bylaska, W. A. de Jong, N. Govind, K. Kowalski,
       T. P. Straatsma, M. Valiev, H. J. J. van Dam, Y. Alexeev, J. Anchell,
       V. Anisimov, F. W. Aquino, R. Atta-Fynn, J. Autschbach, N. P. Bauman,
     J. C. Becca, D. E. Bernholdt, K. Bhaskaran-Nair, S. Bogatko, P. Borowski,
         J. Boschen, J. Brabec, A. Bruner, E. Cauet, Y. Chen, G. N. Chuev,
      C. J. Cramer, J. Daily, M. J. O. Deegan, T. H. Dunning Jr., M. Dupuis,
   K. G. Dyall, G. I. Fann, S. A. Fischer, A. Fonari, H. Fruchtl, L. Gagliardi,
      J. Garza, N. Gawande, S. Ghosh, K. Glaesemann, A. W. Gotz, J. Hammond,
       V. Helms, E. D. Hermes, K. Hirao, S. Hirata, M. Jacquelin, L. Jensen,
   B. G. Johnson, H. Jonsson, R. A. Kendall, M. Klemm, R. Kobayashi, V. Konkov,
      S. Krishnamoorthy, M. Krishnan, Z. Lin, R. D. Lins, R. J. Littlefield,
      A. J. Logsdail, K. Lopata, W. Ma, A. V. Marenich, J. Martin del Campo,
   D. Mejia-Rodriguez, J. E. Moore, J. M. Mullin, T. Nakajima, D. R. Nascimento,
    J. A. Nichols, P. J. Nichols, J. Nieplocha, A. Otero-de-la-Roza, B. Palmer,
    A. Panyala, T. Pirojsirikul, B. Peng, R. Peverati, J. Pittner, L. Pollack,
   R. M. Richard, P. Sadayappan, G. C. Schatz, W. A. Shelton, D. W. Silverstein,
   D. M. A. Smith, T. A. Soares, D. Song, M. Swart, H. L. Taylor, G. S. Thomas,
            V. Tipparaju, D. G. Truhlar, K. Tsemekhman, T. Van Voorhis,
      A. Vazquez-Mayagoitia, P. Verma, O. Villa, A. Vishnu, K. D. Vogiatzis,
        D. Wang, J. H. Weare, M. J. Williamson, T. L. Windus, K. Wolinski,
        A. T. Wong, Q. Wu, C. Yang, Q. Yu, M. Zacharias, Z. Zhang, Y. Zhao,
                                and R. J. Harrison
                        "NWChem: Past, present, and future
                         J. Chem. Phys. 152, 184102 (2020)
                               doi:10.1063/5.0004997
 
                                      AUTHORS
                                      -------
  E. Apra, E. J. Bylaska, N. Govind, K. Kowalski, M. Valiev, D. Mejia-Rodriguez,
       A. Kunitsa, N. P. Bauman, A. Panyala, W. A. de Jong, T. P. Straatsma,
   H. J. J. van Dam, D. Wang, T. L. Windus, J. Hammond, J. Autschbach, A. Woods,
    K. Bhaskaran-Nair, J. Brabec, K. Lopata, S. A. Fischer, S. Krishnamoorthy,
     M. Jacquelin, W. Ma, M. Klemm, O. Villa, Y. Chen, V. Anisimov, F. Aquino,
     S. Hirata, M. T. Hackler, E. Hermes, L. Jensen, J. E. Moore, J. C. Becca,
      V. Konjkov, T. Risthaus, M. Malagoli, A. Marenich, A. Otero-de-la-Roza,
        J. Mullin, P. Nichols, R. Peverati, J. Pittner, Y. Zhao, P.-D. Fan,
        A. Fonari, M. J. Williamson, R. J. Harrison, J. R. Rehr, M. Dupuis,
     D. Silverstein, D. M. A. Smith, J. Nieplocha, V. Tipparaju, M. Krishnan,
     B. E. Van Kuiken, A. Vazquez-Mayagoitia, M. Swart, Q. Wu, T. Van Voorhis,
     A. A. Auer, M. Nooijen, L. D. Crosby, E. Brown, G. Cisneros, G. I. Fann,
   H. Fruchtl, J. Garza, K. Hirao, R. A. Kendall, J. A. Nichols, K. Tsemekhman,
    K. Wolinski, J. Anchell, D. E. Bernholdt, P. Borowski, T. Clark, D. Clerc,
   H. Dachsel, M. J. O. Deegan, K. Dyall, D. Elwood, E. Glendening, M. Gutowski,
   A. C. Hess, J. Jaffe, B. G. Johnson, J. Ju, R. Kobayashi, R. Kutteh, Z. Lin,
   R. Littlefield, X. Long, B. Meng, T. Nakajima, S. Niu, L. Pollack, M. Rosing,
   K. Glaesemann, G. Sandrone, M. Stave, H. Taylor, G. Thomas, J. H. van Lenthe,
                               A. T. Wong, Z. Zhang.

 Total times  cpu:       61.8s     wall:       61.8s
