 argument  1 = input.nw
  NWChem w/ OpenMP: maximum threads =    1
 


============================== echo of input deck ==============================

echo
start H8
title "H8"

memory total 120 gb

geometry units bohr
symmetry c1
H 0 0 0
H 0 0 2.32
H 0 0 4.64
H 0 0 6.96
H 0 0 9.28
H 0 0 11.60
H 0 0 13.92
H 0 0 16.24
end

basis spherical
  * library cc-pVTZ
end

scf
thresh 1e-8
end

tce
  2eorb
  2emet 13
  ccsd
  thresh 1e-8
  maxiter 300
end

set tce:print_integrals T
set tce:qorb 8
set tce:qela 4
set tce:qelb 4

# set tce:qducc T
# set tce:nactv 4
# set tce:nonhf T
# set tce:ducc_model 6

set tce:printtol 0.02

task tce
================================================================================


                                         
                                         
 
 
             Northwest Computational Chemistry Package (NWChem) 7.2.3
             --------------------------------------------------------
 
 
                    Environmental Molecular Sciences Laboratory
                       Pacific Northwest National Laboratory
                                Richland, WA 99352
 
                              Copyright (c) 1994-2022
                       Pacific Northwest National Laboratory
                            Battelle Memorial Institute
 
             NWChem is an open-source computational chemistry package
                        distributed under the terms of the
                      Educational Community License (ECL) 2.0
             A copy of the license is included with this distribution
                              in the LICENSE.TXT file
 
                                  ACKNOWLEDGMENT
                                  --------------

            This software and its documentation were developed at the
            EMSL at Pacific Northwest National Laboratory, a multiprogram
            national laboratory, operated for the U.S. Department of Energy
            by Battelle under Contract Number DE-AC05-76RL01830. Support
            for this work was provided by the Department of Energy Office
            of Biological and Environmental Research, Office of Basic
            Energy Sciences, and the Office of Advanced Scientific Computing.


           Job information
           ---------------

    hostname        = koothan
    program         = /hpc/home/baum612/code/nwchem/bin/LINUX64/nwchem
    date            = Fri Nov 15 12:14:56 2024

    compiled        = Wed_Nov_13_16:23:19_2024
    source          = /hpc/home/baum612/code/nwchem
    nwchem branch   = 7.2.3
    nwchem revision = v7.2.0-beta1-1280-g0779ca2e41
    ga revision     = 5.8.0
    use scalapack   = T
    input           = input.nw
    prefix          = H8.
    data base       = ./H8.db
    status          = startup
    nproc           =        1
    time left       =     -1s



           Memory information
           ------------------

    heap     =   4026531840 doubles =    30720.0 Mbytes
    stack    =   4026531837 doubles =    30720.0 Mbytes
    global   =   8053063680 doubles =    61440.0 Mbytes (distinct from heap & stack)
    total    =  16106127357 doubles =   122880.0 Mbytes
    verify   = yes
    hardfail = no 


           Directory information
           ---------------------
 
  0 permanent = .
  0 scratch   = .
 
 
 
 
                                NWChem Input Module
                                -------------------
 
 
                                        H8
                                        --
 Turning off AUTOSYM since
 SYMMETRY directive was detected!
 

          ------
          auto-z
          ------
     1 autoz failed with cvr_scaling = 1.2 changing to 1.3
     2 autoz failed with cvr_scaling = 1.3 changing to 1.4
     3 autoz failed with cvr_scaling = 1.4 changing to 1.5
     4 autoz failed with cvr_scaling = 1.5 changing to 1.6
  Looking for out-of-plane bends
  autoz: insufficient variables                      7                    18
     5 autoz failed with cvr_scaling = 1.6 changing to 1.7
  Looking for out-of-plane bends
  autoz: insufficient variables                      7                    18

 AUTOZ failed to generate good internal coordinates.
 Cartesian coordinates will be used in optimizations.

 
 
                             Geometry "geometry" -> ""
                             -------------------------
 
 Output coordinates in a.u. (scale by  1.000000000 to convert to a.u.)
 
  No.       Tag          Charge          X              Y              Z
 ---- ---------------- ---------- -------------- -------------- --------------
    1 H                    1.0000     0.00000000     0.00000000    -8.12000000
    2 H                    1.0000     0.00000000     0.00000000    -5.80000000
    3 H                    1.0000     0.00000000     0.00000000    -3.48000000
    4 H                    1.0000     0.00000000     0.00000000    -1.16000000
    5 H                    1.0000     0.00000000     0.00000000     1.16000000
    6 H                    1.0000     0.00000000     0.00000000     3.48000000
    7 H                    1.0000     0.00000000     0.00000000     5.80000000
    8 H                    1.0000     0.00000000     0.00000000     8.12000000
 
      Atomic Mass 
      ----------- 
 
      H                  1.007825
 

 Effective nuclear repulsion energy (a.u.)       5.9236453202

            Nuclear Dipole moment (a.u.) 
            ----------------------------
        X                 Y               Z
 ---------------- ---------------- ----------------
     0.0000000000     0.0000000000    -0.0000000000
 
 
            XYZ format geometry
            -------------------
     8
 geometry
 H                     0.00000000     0.00000000    -4.29691926
 H                     0.00000000     0.00000000    -3.06922804
 H                     0.00000000     0.00000000    -1.84153683
 H                     0.00000000     0.00000000    -0.61384561
 H                     0.00000000     0.00000000     0.61384561
 H                     0.00000000     0.00000000     1.84153683
 H                     0.00000000     0.00000000     3.06922804
 H                     0.00000000     0.00000000     4.29691926
 


 Summary of "ao basis" -> "" (spherical)
 ------------------------------------------------------------------------------
       Tag                 Description            Shells   Functions and Types
 ---------------- ------------------------------  ------  ---------------------
 *                          cc-pVTZ                   on all atoms 


                      Basis "ao basis" -> "ao basis" (spherical)
                      -----
  H (Hydrogen)
  ------------
            Exponent  Coefficients 
       -------------- ---------------------------------------------------------
  1 S  3.38700000E+01  0.006068
  1 S  5.09500000E+00  0.045308
  1 S  1.15900000E+00  0.202822
 
  2 S  3.25800000E-01  1.000000
 
  3 S  1.02700000E-01  1.000000
 
  4 P  1.40700000E+00  1.000000
 
  5 P  3.88000000E-01  1.000000
 
  6 D  1.05700000E+00  1.000000
 


 Summary of "ao basis" -> "ao basis" (spherical)
 ------------------------------------------------------------------------------
       Tag                 Description            Shells   Functions and Types
 ---------------- ------------------------------  ------  ---------------------
 H                          cc-pVTZ                  6       14   3s2p1d


                                 NWChem SCF Module
                                 -----------------
 
 
                                        H8
 
 

  ao basis        = "ao basis"
  functions       =   112
  atoms           =     8
  closed shells   =     4
  open shells     =     0
  charge          =   0.00
  wavefunction    = RHF 
  input vectors   = atomic
  output vectors  = ./H8.movecs
  use symmetry    = F
  symmetry adapt  = F


 Summary of "ao basis" -> "ao basis" (spherical)
 ------------------------------------------------------------------------------
       Tag                 Description            Shells   Functions and Types
 ---------------- ------------------------------  ------  ---------------------
 H                          cc-pVTZ                  6       14   3s2p1d



 Forming initial guess at       1.8s

 
      Superposition of Atomic Density Guess
      -------------------------------------
 
 Sum of atomic energies:          -3.99847357
 
      Non-variational initial energy
      ------------------------------

 Total energy =      -3.335878
 1-e energy   =     -15.652166
 2-e energy   =       6.392643
 HOMO         =      -0.259835
 LUMO         =      -0.104011
 

 Starting SCF solution at       1.9s



 ----------------------------------------------
         Quadratically convergent ROHF

 Convergence threshold     :          1.000E-08
 Maximum no. of iterations :           30
 Final Fock-matrix accuracy:          1.000E-10
 ----------------------------------------------


              iter       energy          gnorm     gmax       time
             ----- ------------------- --------- --------- --------
                 1       -4.1884889741  2.24D-01  1.16D-01      2.5
                 2       -4.2020920256  8.24D-02  3.48D-02      3.6
                 3       -4.2031704614  5.55D-03  3.00D-03      4.5
                 4       -4.2031785914  7.44D-06  4.63D-06      6.5
                 5       -4.2031785914  8.85D-10  3.09D-10      9.4


       Final RHF  results 
       ------------------ 

         Total SCF energy =     -4.203178591381
      One-electron energy =    -16.206059767282
      Two-electron energy =      6.079235855703
 Nuclear repulsion energy =      5.923645320197

        Time for solution =      7.5s


             Final eigenvalues
             -----------------

              1      
    1   -0.6182
    2   -0.5642
    3   -0.4772
    4   -0.3642
    5   -0.0337
    6    0.1013
    7    0.2289
    8    0.3291
    9    0.3322
   10    0.3861
   11    0.4144
   12    0.5067
   13    0.5084
   14    0.5629
 
                       ROHF Final Molecular Orbital Analysis
                       -------------------------------------
 
 Vector    1  Occ=2.000000D+00  E=-6.182011D-01
              MO Center= -6.2D-17,  1.0D-16,  1.4D-11, r^2= 4.5D+00
   Bfn.  Coefficient  Atom+Function         Bfn.  Coefficient  Atom+Function  
  ----- ------------  ---------------      ----- ------------  ---------------
    44      0.183238  4 H  s                 58      0.183238  5 H  s          
    30      0.164251  3 H  s                 72      0.164251  6 H  s          
 
 Vector    2  Occ=2.000000D+00  E=-5.642004D-01
              MO Center=  8.7D-16, -6.6D-18, -1.1D-11, r^2= 9.5D+00
   Bfn.  Coefficient  Atom+Function         Bfn.  Coefficient  Atom+Function  
  ----- ------------  ---------------      ----- ------------  ---------------
    16      0.178708  2 H  s                 86     -0.178708  7 H  s          
    30      0.156879  3 H  s                 72     -0.156879  6 H  s          
 
 Vector    3  Occ=2.000000D+00  E=-4.771963D-01
              MO Center= -6.3D-17, -1.2D-16, -1.9D-12, r^2= 1.1D+01
   Bfn.  Coefficient  Atom+Function         Bfn.  Coefficient  Atom+Function  
  ----- ------------  ---------------      ----- ------------  ---------------
     2      0.173924  1 H  s                100      0.173924  8 H  s          
    16      0.171740  2 H  s                 86      0.171740  7 H  s          
    17      0.167694  2 H  s                 87      0.167694  7 H  s          
 
 Vector    4  Occ=2.000000D+00  E=-3.641962D-01
              MO Center= -2.3D-16,  4.7D-17, -2.1D-12, r^2= 9.4D+00
   Bfn.  Coefficient  Atom+Function         Bfn.  Coefficient  Atom+Function  
  ----- ------------  ---------------      ----- ------------  ---------------
    31      0.218048  3 H  s                 73     -0.218048  6 H  s          
    30      0.183582  3 H  s                 72     -0.183582  6 H  s          
    45      0.168113  4 H  s                 59     -0.168113  5 H  s          
     2     -0.165464  1 H  s                100      0.165464  8 H  s          
     3     -0.162617  1 H  s                101      0.162617  8 H  s          
 
 Vector    5  Occ=0.000000D+00  E=-3.372836D-02
              MO Center= -1.0D-17, -5.4D-18, -1.1D-12, r^2= 1.1D+01
   Bfn.  Coefficient  Atom+Function         Bfn.  Coefficient  Atom+Function  
  ----- ------------  ---------------      ----- ------------  ---------------
     3      0.437594  1 H  s                101      0.437594  8 H  s          
    31     -0.311692  3 H  s                 73     -0.311692  6 H  s          
    45      0.264537  4 H  s                 59      0.264537  5 H  s          
    17     -0.219615  2 H  s                 87     -0.219615  7 H  s          
    30     -0.178682  3 H  s                 72     -0.178682  6 H  s          
 
 Vector    6  Occ=0.000000D+00  E= 1.013270D-01
              MO Center= -1.4D-16, -8.0D-17,  6.3D-11, r^2= 1.6D+01
   Bfn.  Coefficient  Atom+Function         Bfn.  Coefficient  Atom+Function  
  ----- ------------  ---------------      ----- ------------  ---------------
    17      1.037840  2 H  s                 87     -1.037840  7 H  s          
     3     -0.919174  1 H  s                101      0.919174  8 H  s          
    31     -0.468925  3 H  s                 73      0.468925  6 H  s          
    44     -0.190321  4 H  s                 58      0.190321  5 H  s          
    16      0.163142  2 H  s                 86     -0.163142  7 H  s          
 
 Vector    7  Occ=0.000000D+00  E= 2.289357D-01
              MO Center= -3.5D-17, -7.9D-18,  4.1D-10, r^2= 1.7D+01
   Bfn.  Coefficient  Atom+Function         Bfn.  Coefficient  Atom+Function  
  ----- ------------  ---------------      ----- ------------  ---------------
    17      1.725374  2 H  s                 87      1.725374  7 H  s          
    31     -1.542813  3 H  s                 73     -1.542813  6 H  s          
     3     -1.327094  1 H  s                101     -1.327094  8 H  s          
    45      0.625461  4 H  s                 59      0.625461  5 H  s          
     2      0.219022  1 H  s                100      0.219022  8 H  s          
 
 Vector    8  Occ=0.000000D+00  E= 3.290812D-01
              MO Center= -4.2D-17,  4.8D-17, -1.8D-09, r^2= 1.8D+01
   Bfn.  Coefficient  Atom+Function         Bfn.  Coefficient  Atom+Function  
  ----- ------------  ---------------      ----- ------------  ---------------
    45     -2.908569  4 H  s                 59      2.908569  5 H  s          
    31      2.739513  3 H  s                 73     -2.739513  6 H  s          
    17     -1.623194  2 H  s                 87      1.623194  7 H  s          
     3      1.410697  1 H  s                101     -1.410697  8 H  s          
     2     -0.617957  1 H  s                100      0.617957  8 H  s          
 
 Vector    9  Occ=0.000000D+00  E= 3.322487D-01
              MO Center=  1.1D-16,  1.3D-16,  1.6D-09, r^2= 6.6D+00
   Bfn.  Coefficient  Atom+Function         Bfn.  Coefficient  Atom+Function  
  ----- ------------  ---------------      ----- ------------  ---------------
    44     -0.576827  4 H  s                 45      0.575626  4 H  s          
    58     -0.576827  5 H  s                 59      0.575626  5 H  s          
    30     -0.536386  3 H  s                 72     -0.536386  6 H  s          
    17      0.529399  2 H  s                 87      0.529399  7 H  s          
    16     -0.327830  2 H  s                 86     -0.327830  7 H  s          
 
 Vector   10  Occ=0.000000D+00  E= 3.860911D-01
              MO Center=  1.3D-15,  1.3D-16,  1.2D-10, r^2= 1.1D+01
   Bfn.  Coefficient  Atom+Function         Bfn.  Coefficient  Atom+Function  
  ----- ------------  ---------------      ----- ------------  ---------------
    45      2.655659  4 H  s                 59     -2.655659  5 H  s          
    17      2.236539  2 H  s                 87     -2.236539  7 H  s          
    31     -1.591952  3 H  s                 73      1.591952  6 H  s          
     3     -0.901809  1 H  s                101      0.901809  8 H  s          
    16     -0.606441  2 H  s                 86      0.606441  7 H  s          
 
 Vector   11  Occ=0.000000D+00  E= 4.143525D-01
              MO Center= -2.1D-17,  1.9D-16, -9.1D-11, r^2= 1.4D+01
   Bfn.  Coefficient  Atom+Function         Bfn.  Coefficient  Atom+Function  
  ----- ------------  ---------------      ----- ------------  ---------------
    17     -0.772502  2 H  s                 87     -0.772502  7 H  s          
     2      0.725090  1 H  s                100      0.725090  8 H  s          
    44     -0.540453  4 H  s                 58     -0.540453  5 H  s          
     3     -0.502169  1 H  s                101     -0.502169  8 H  s          
    45      0.436151  4 H  s                 59      0.436151  5 H  s          
 
 Vector   12  Occ=0.000000D+00  E= 5.067109D-01
              MO Center=  7.8D-17, -3.5D-16, -6.2D-09, r^2= 1.5D+01
   Bfn.  Coefficient  Atom+Function         Bfn.  Coefficient  Atom+Function  
  ----- ------------  ---------------      ----- ------------  ---------------
    17      1.733949  2 H  s                 87      1.733949  7 H  s          
     3     -1.251448  1 H  s                101     -1.251448  8 H  s          
    16     -0.843086  2 H  s                 86     -0.843086  7 H  s          
     2      0.534244  1 H  s                100      0.534244  8 H  s          
    45     -0.520440  4 H  s                 59     -0.520440  5 H  s          
 
 Vector   13  Occ=0.000000D+00  E= 5.084144D-01
              MO Center=  4.0D-16,  4.8D-16,  6.3D-09, r^2= 1.1D+01
   Bfn.  Coefficient  Atom+Function         Bfn.  Coefficient  Atom+Function  
  ----- ------------  ---------------      ----- ------------  ---------------
    31      2.665987  3 H  s                 73     -2.665987  6 H  s          
    17     -1.740405  2 H  s                 87      1.740405  7 H  s          
    45     -1.528828  4 H  s                 59      1.528828  5 H  s          
     2      0.640682  1 H  s                100     -0.640682  8 H  s          
    44     -0.537359  4 H  s                 58      0.537359  5 H  s          
 
 Vector   14  Occ=0.000000D+00  E= 5.628856D-01
              MO Center=  1.4D-16, -1.4D-16,  1.9D-11, r^2= 4.7D+00
   Bfn.  Coefficient  Atom+Function         Bfn.  Coefficient  Atom+Function  
  ----- ------------  ---------------      ----- ------------  ---------------
    50      0.370322  4 H  py                64      0.370322  5 H  py         
    36      0.322994  3 H  py                78      0.322994  6 H  py         
    22      0.233791  2 H  py                92      0.233791  7 H  py         
 

 center of mass
 --------------
 x =   0.00000000 y =   0.00000000 z =  -0.00000000

 moments of inertia (a.u.)
 ------------------
         227.829725760000           0.000000000000           0.000000000000
           0.000000000000         227.829725760000           0.000000000000
           0.000000000000           0.000000000000           0.000000000000
 
  Mulliken analysis of the total density
  --------------------------------------

    Atom       Charge   Shell Charges
 -----------   ------   -------------------------------------------------------
    1 H    1     0.96   0.16  0.46  0.33  0.00  0.01  0.00
    2 H    1     1.06   0.17  0.49  0.38  0.00  0.02  0.00
    3 H    1     0.97   0.17  0.50  0.28  0.00  0.02  0.00
    4 H    1     1.01   0.17  0.49  0.32  0.00  0.02  0.00
    5 H    1     1.01   0.17  0.49  0.32  0.00  0.02  0.00
    6 H    1     0.97   0.17  0.50  0.28  0.00  0.02  0.00
    7 H    1     1.06   0.17  0.49  0.38  0.00  0.02  0.00
    8 H    1     0.96   0.16  0.46  0.33  0.00  0.01  0.00
 
       Multipole analysis of the density wrt the origin
       ------------------------------------------------
 
     L   x y z        total         open         nuclear
     -   - - -        -----         ----         -------
     0   0 0 0     -0.000000      0.000000      8.000000
 
     1   1 0 0     -0.000000      0.000000      0.000000
     1   0 1 0     -0.000000      0.000000      0.000000
     1   0 0 1      0.000000      0.000000     -0.000000
 
     2   2 0 0     -7.782030      0.000000      0.000000
     2   1 1 0      0.000000      0.000000      0.000000
     2   1 0 1      0.000000      0.000000      0.000000
     2   0 2 0     -7.782030      0.000000      0.000000
     2   0 1 1     -0.000000      0.000000      0.000000
     2   0 0 2     -4.560451      0.000000    226.060800
 
 ------------------------------------
     Number of active orbitals      8
     Number of active alpha electrons      4
     Number of active beta electrons       4
 ------------------------------------
                   NWChem Extensible Many-Electron Theory Module
                   ---------------------------------------------
 
              ======================================================
                   This portion of the program was automatically
                  generated by a Tensor Contraction Engine (TCE).
                  The development of this portion of the program
                 and TCE was supported by US Department of Energy,
                Office of Science, Office of Basic Energy Science.
                      TCE is a product of Battelle and PNNL.
              Please cite: S.Hirata, J.Phys.Chem.A 107, 9887 (2003).
              ======================================================
 
                                        H8
 
 
            General Information
            -------------------
      Number of processors :     1
         Wavefunction type : Restricted Hartree-Fock
          No. of electrons :     8
           Alpha electrons :     4
            Beta electrons :     4
           No. of orbitals :   224
            Alpha orbitals :   112
             Beta orbitals :   112
        Alpha frozen cores :     0
         Beta frozen cores :     0
     Alpha frozen virtuals :   104
      Beta frozen virtuals :   104
         Spin multiplicity : singlet 
    Number of AO functions :   112
       Number of AO shells :    48
        Use of symmetry is : off
      Symmetry adaption is : off
         Schwarz screening : 0.10D-09
 
          Correlation Information
          -----------------------
          Calculation type : Coupled-cluster singles & doubles                           
   Perturbative correction : none                                                        
            Max iterations :      300
        Residual threshold : 0.10D-07
     T(0) DIIS level shift : 0.00D+00
     L(0) DIIS level shift : 0.00D+00
     T(1) DIIS level shift : 0.00D+00
     L(1) DIIS level shift : 0.00D+00
     T(R) DIIS level shift : 0.00D+00
     T(I) DIIS level shift : 0.00D+00
   CC-T/L Amplitude update :  5-th order DIIS
                I/O scheme : Global Array Library
        L-threshold :  0.10D-07
        EOM-threshold :  0.10D-07
 no EOMCCSD initial starts read in
 TCE RESTART OPTIONS
 READ_INT:   F
 WRITE_INT:  F
 READ_TA:    F
 WRITE_TA:   F
 READ_XA:    F
 WRITE_XA:   F
 READ_IN3:   F
 WRITE_IN3:  F
 SLICE:      F
 D4D5:       F
 quantumc:   T
 qrotation:  F
 pwtce:      F
 qducc:      F
 nacto:                          0
 nrotv:                          0
 nrot:                           0
 
            Memory Information
            ------------------
          Available GA space size is    8053051136 doubles
          Available MA space size is    8053060452 doubles
 
 Maximum block size supplied by input
 Maximum block size         1 doubles

 tile_dim =      1

 Block   Spin    Irrep     Size     Offset   Alpha
 -------------------------------------------------
   1    alpha     a      1 doubles       0       1
   2    alpha     a      1 doubles       1       2
   3    alpha     a      1 doubles       2       3
   4    alpha     a      1 doubles       3       4
   5    beta      a      1 doubles       4       1
   6    beta      a      1 doubles       5       2
   7    beta      a      1 doubles       6       3
   8    beta      a      1 doubles       7       4
   9    alpha     a      1 doubles       8       9
  10    alpha     a      1 doubles       9      10
  11    alpha     a      1 doubles      10      11
  12    alpha     a      1 doubles      11      12
  13    beta      a      1 doubles      12       9
  14    beta      a      1 doubles      13      10
  15    beta      a      1 doubles      14      11
  16    beta      a      1 doubles      15      12

 Global array virtual files algorithm will be used

 Parallel file system coherency ......... OK
 
 Fock matrix recomputed
 1-e file size   =               64
 1-e file name   = ./H8.f1
 Cpu & wall time / sec            0.6            0.6
 4-electron integrals stored in orbital form
 
 v2    file size   =              666
 4-index algorithm nr.  13 is used
 imaxsize =       30
 imaxsize ichop =        0
 begin_one_electron_integrals
    1    1        -2.2157348159
    3    1         0.1204562760
    5    1         0.0388385987
    7    1        -0.0370952897
    2    2        -2.0541730292
    4    2        -0.1617224278
    6    2        -0.0965901422
    8    2         0.0686522143
    1    3         0.1204562760
    3    3        -1.9341695719
    5    3         0.1926240851
    7    3        -0.0802421877
    2    4        -0.1617224278
    4    4        -1.8989524666
    6    4         0.1762211002
    8    4        -0.0323959990
    1    5         0.0388385987
    3    5         0.1926240851
    5    5        -1.7493229350
    7    5        -0.2509526677
    2    6        -0.0965901422
    4    6         0.1762211002
    6    6        -1.4786037063
    8    6        -0.2708493882
    1    7        -0.0370952897
    3    7        -0.0802421877
    5    7        -0.2509526677
    7    7        -1.2951817097
    2    8         0.0686522143
    4    8        -0.0323959990
    6    8        -0.2708493882
    8    8        -1.1194045363
 end_one_electron_integrals
 begin_two_electron_integrals
    1    1    1    1        0.3202190310
    2    1    2    1        0.1114082004
    3    1    1    1       -0.0620946390
    3    1    3    1        0.0756325370
    3    1    2    2        0.0177601359
    4    1    2    1        0.0434798950
    4    1    4    1        0.0681848396
    4    1    3    2       -0.0269944782
    5    1    1    1        0.0029775882
    5    1    3    1       -0.0305890956
    5    1    5    1        0.0503255954
    5    1    2    2       -0.0307105158
    5    1    4    2       -0.0097123490
    5    1    3    3        0.0112404834
    5    1    4    4       -0.0032543680
    6    1    2    1        0.0044159926
    6    1    4    1       -0.0202630931
    6    1    6    1        0.0277174975
    6    1    3    2        0.0230926259
    6    1    5    2       -0.0170202986
    6    1    4    3        0.0079805886
    6    1    5    4       -0.0039310787
    7    1    1    1        0.0043227274
    7    1    3    1       -0.0012932634
    7    1    5    1        0.0212022878
    7    1    7    1        0.0230801762
    7    1    2    2        0.0015634787
    7    1    4    2       -0.0176019822
    7    1    6    2        0.0047141481
    7    1    3    3        0.0205381843
    7    1    5    3       -0.0108464411
    7    1    4    4       -0.0040239155
    7    1    6    4       -0.0052285023
    7    1    5    5        0.0021435352
    7    1    6    6        0.0074161677
    8    1    2    1       -0.0088853521
    8    1    4    1       -0.0075844667
    8    1    6    1        0.0138666731
    8    1    8    1        0.0151444636
    8    1    3    2       -0.0030211374
    8    1    5    2       -0.0110263636
    8    1    7    2       -0.0042968970
    8    1    4    3        0.0193647103
    8    1    6    3       -0.0047589113
    8    1    5    4       -0.0019713102
    8    1    7    4       -0.0008495997
    8    1    6    5        0.0084220633
    8    1    7    6       -0.0014243750
    2    2    1    1        0.2547965637
    2    2    2    2        0.2737819499
    3    2    2    1        0.0681077651
    3    2    3    2        0.0980665609
    4    2    1    1        0.0651521210
    4    2    3    1       -0.0572337715
    4    2    2    2        0.0059681752
    4    2    4    2        0.0718181970
    4    2    3    3       -0.0154520160
    5    2    2    1       -0.0426478880
    5    2    4    1       -0.0328345996
    5    2    3    2       -0.0059158503
    5    2    5    2        0.0488994689
    5    2    4    3       -0.0003133824
    6    2    1    1        0.0071317119
    6    2    3    1        0.0247685354
    6    2    5    1       -0.0281213195
    6    2    2    2        0.0331217523
    6    2    4    2       -0.0039530448
    6    2    6    2        0.0359809233
    6    2    3    3        0.0098167802
    6    2    5    3       -0.0120057821
    6    2    4    4       -0.0016182411
    6    2    5    5        0.0059383339
    7    2    2    1       -0.0003785779
    7    2    4    1       -0.0244231742
    7    2    6    1        0.0126683777
    7    2    3    2        0.0250491734
    7    2    5    2        0.0056601416
    7    2    7    2        0.0250917831
    7    2    4    3       -0.0082911039
    7    2    6    3        0.0087232743
    7    2    5    4        0.0086150601
    7    2    6    5       -0.0038454108
    8    2    1    1       -0.0126532904
    8    2    3    1       -0.0014175819
    8    2    5    1       -0.0156872884
    8    2    7    1       -0.0094804636
    8    2    2    2       -0.0136814050
    8    2    4    2        0.0151815332
    8    2    6    2        0.0074328010
    8    2    8    2        0.0158462666
    8    2    3    3       -0.0294961602
    8    2    5    3       -0.0064878022
    8    2    7    3       -0.0023562999
    8    2    4    4       -0.0199374446
    8    2    6    4       -0.0003524625
    8    2    5    5       -0.0120146275
    8    2    7    5        0.0014143382
    8    2    6    6       -0.0148398471
    8    2    7    7       -0.0087769596
    3    3    1    1        0.2438704758
    3    3    3    1        0.0043426914
    3    3    2    2        0.2474311241
    3    3    3    3        0.2587945071
    4    3    2    1       -0.0814058822
    4    3    4    1       -0.0109139797
    4    3    3    2       -0.0745327042
    4    3    4    3        0.0906387457
    5    3    1    1       -0.0592630622
    5    3    3    1        0.0439129480
    5    3    5    1       -0.0063530064
    5    3    2    2       -0.0124135381
    5    3    4    2       -0.0421766382
    5    3    3    3       -0.0075406715
    5    3    5    3        0.0518359543
    5    3    4    4       -0.0129190180
    6    3    2    1        0.0341593765
    6    3    4    1        0.0298512770
    6    3    6    1        0.0057438966
    6    3    3    2        0.0021975871
    6    3    5    2       -0.0317374041
    6    3    4    3       -0.0068126498
    6    3    6    3        0.0407585861
    6    3    5    4        0.0101464471
    7    3    1    1        0.0049463675
    7    3    3    1        0.0288416716
    7    3    5    1       -0.0235193788
    7    3    7    1        0.0001845886
    7    3    2    2        0.0356811661
    7    3    4    2       -0.0120125987
    7    3    6    2        0.0236503466
    7    3    3    3        0.0191246638
    7    3    5    3        0.0044507931
    7    3    7    3        0.0265839520
    7    3    4    4        0.0123456067
    7    3    6    4       -0.0021255380
    7    3    5    5        0.0048710642
    7    3    6    6        0.0105211252
    8    3    2    1       -0.0047180069
    8    3    4    1        0.0263598744
    8    3    6    1       -0.0101876220
    8    3    8    1       -0.0002840267
    8    3    3    2       -0.0327670816
    8    3    5    2       -0.0097531716
    8    3    7    2       -0.0108636088
    8    3    4    3        0.0176106164
    8    3    6    3        0.0125699391
    8    3    8    3        0.0241876759
    8    3    5    4        0.0173801162
    8    3    7    4        0.0028703871
    8    3    6    5        0.0099837182
    8    3    7    6       -0.0114987865
    4    4    1    1        0.2676031093
    4    4    3    1       -0.0205154074
    4    4    2    2        0.2465141265
    4    4    4    2        0.0253012336
    4    4    3    3        0.2399566996
    4    4    4    4        0.2572501316
    5    4    2    1       -0.0556162463
    5    4    4    1       -0.0048976738
    5    4    3    2       -0.0521710343
    5    4    5    2        0.0099022666
    5    4    4    3        0.0523971230
    5    4    5    4        0.0543468189
    6    4    1    1       -0.0596794395
    6    4    3    1        0.0394421124
    6    4    5    1       -0.0041962312
    6    4    2    2       -0.0181245911
    6    4    4    2       -0.0394214689
    6    4    6    2       -0.0062524763
    6    4    3    3       -0.0133212816
    6    4    5    3        0.0408630073
    6    4    4    4       -0.0249992641
    6    4    6    4        0.0414796047
    6    4    5    5       -0.0167269831
    7    4    2    1       -0.0453935180
    7    4    4    1       -0.0250801606
    7    4    6    1       -0.0075971032
    7    4    3    2       -0.0189701637
    7    4    5    2        0.0305351466
    7    4    7    2        0.0013846829
    7    4    4    3        0.0210728476
    7    4    6    3       -0.0228290437
    7    4    5    4        0.0184262539
    7    4    7    4        0.0311522749
    7    4    6    5        0.0118283532
    8    4    1    1       -0.0151135752
    8    4    3    1        0.0361575113
    8    4    5    1       -0.0144931695
    8    4    7    1       -0.0019089586
    8    4    2    2        0.0231219132
    8    4    4    2       -0.0275505464
    8    4    6    2        0.0096398475
    8    4    8    2       -0.0052297966
    8    4    3    3        0.0172157527
    8    4    5    3        0.0240301295
    8    4    7    3        0.0153784709
    8    4    4    4        0.0071555005
    8    4    6    4        0.0202732749
    8    4    8    4        0.0254256098
    8    4    5    5        0.0067640816
    8    4    7    5       -0.0115753084
    8    4    6    6        0.0088213652
    8    4    7    7        0.0053463326
    5    5    1    1        0.2557986696
    5    5    3    1       -0.0175018316
    5    5    5    1       -0.0026505514
    5    5    2    2        0.2371625357
    5    5    4    2        0.0211197842
    5    5    3    3        0.2303672699
    5    5    5    3       -0.0193455017
    5    5    4    4        0.2371727333
    5    5    5    5        0.2371796394
    6    5    2    1       -0.0702103975
    6    5    4    1       -0.0063294035
    6    5    6    1       -0.0007620925
    6    5    3    2       -0.0662726944
    6    5    5    2        0.0069705882
    6    5    4    3        0.0709383939
    6    5    6    3       -0.0029765363
    6    5    5    4        0.0482308260
    6    5    6    5        0.0702469007
    7    5    1    1        0.0689355945
    7    5    3    1       -0.0413615990
    7    5    5    1        0.0013207169
    7    5    7    1       -0.0027693824
    7    5    2    2        0.0255959127
    7    5    4    2        0.0441249836
    7    5    6    2       -0.0003317537
    7    5    3    3        0.0180826254
    7    5    5    3       -0.0340956271
    7    5    7    3       -0.0036629391
    7    5    4    4        0.0377319385
    7    5    6    4       -0.0323758418
    7    5    5    5        0.0336643246
    7    5    7    5        0.0427729841
    7    5    6    6        0.0044578782
    8    5    2    1       -0.0381873116
    8    5    4    1       -0.0177847794
    8    5    6    1        0.0035177832
    8    5    8    1        0.0075624690
    8    5    3    2       -0.0208915908
    8    5    5    2        0.0107190150
    8    5    7    2        0.0000967435
    8    5    4    3        0.0310962736
    8    5    6    3       -0.0115170999
    8    5    8    3        0.0043391531
    8    5    5    4        0.0182196126
    8    5    7    4        0.0159784539
    8    5    6    5        0.0228862925
    8    5    8    5        0.0227434165
    8    5    7    6       -0.0059841725
    6    6    1    1        0.2131735796
    6    6    3    1        0.0060678743
    6    6    5    1       -0.0009952946
    6    6    2    2        0.2191866038
    6    6    4    2       -0.0061053654
    6    6    6    2        0.0078922613
    6    6    3    3        0.2189553386
    6    6    5    3       -0.0025902575
    6    6    4    4        0.2116181166
    6    6    6    4       -0.0041442868
    6    6    5    5        0.2090511352
    6    6    6    6        0.2066176584
    7    6    2    1        0.0493542216
    7    6    4    1       -0.0081026848
    7    6    6    1        0.0070279363
    7    6    3    2        0.0596101266
    7    6    5    2       -0.0024560596
    7    6    7    2        0.0058227783
    7    6    4    3       -0.0538040872
    7    6    6    3       -0.0037859137
    7    6    5    4       -0.0405815487
    7    6    7    4       -0.0070351201
    7    6    6    5       -0.0547353394
    7    6    7    6        0.0569157431
    8    6    1    1        0.0573511737
    8    6    3    1       -0.0241296280
    8    6    5    1        0.0062987679
    8    6    7    1        0.0027413603
    8    6    2    2        0.0318791981
    8    6    4    2        0.0210435649
    8    6    6    2       -0.0019849295
    8    6    8    2       -0.0062101438
    8    6    3    3        0.0327263520
    8    6    5    3       -0.0190107607
    8    6    7    3       -0.0004097888
    8    6    4    4        0.0405393155
    8    6    6    4       -0.0201404964
    8    6    8    4       -0.0034449098
    8    6    5    5        0.0353020627
    8    6    7    5        0.0264341109
    8    6    6    6        0.0178709386
    8    6    8    6        0.0274530030
    8    6    7    7        0.0110197026
    7    7    1    1        0.2068920886
    7    7    3    1       -0.0006105246
    7    7    5    1       -0.0056943352
    7    7    7    1        0.0013373141
    7    7    2    2        0.2061940542
    7    7    4    2        0.0051989811
    7    7    6    2        0.0072624678
    7    7    3    3        0.2004692724
    7    7    5    3       -0.0063034805
    7    7    7    3        0.0085710424
    7    7    4    4        0.2014573727
    7    7    6    4       -0.0074969042
    7    7    5    5        0.1986031714
    7    7    7    5        0.0110247856
    7    7    6    6        0.1907266633
    7    7    7    7        0.1876487764
    8    7    2    1       -0.0413530173
    8    7    4    1       -0.0030538980
    8    7    6    1        0.0010150527
    8    7    8    1        0.0038101129
    8    7    3    2       -0.0400233157
    8    7    5    2        0.0019559015
    8    7    7    2       -0.0001612249
    8    7    4    3        0.0439296973
    8    7    6    3        0.0011753941
    8    7    8    3        0.0036092320
    8    7    5    4        0.0308833346
    8    7    7    4        0.0053389619
    8    7    6    5        0.0438920271
    8    7    8    5        0.0068999440
    8    7    7    6       -0.0419167517
    8    7    8    7        0.0386082790
    8    8    1    1        0.1887395200
    8    8    3    1        0.0003236058
    8    8    5    1        0.0064287292
    8    8    7    1        0.0045625169
    8    8    2    2        0.1888187253
    8    8    4    2       -0.0059806903
    8    8    6    2       -0.0031666323
    8    8    8    2       -0.0137168230
    8    8    3    3        0.1952391356
    8    8    5    3        0.0030371872
    8    8    7    3        0.0035388508
    8    8    4    4        0.1917474948
    8    8    6    4       -0.0006678593
    8    8    8    4        0.0073110213
    8    8    5    5        0.1867122475
    8    8    7    5        0.0054172745
    8    8    6    6        0.1819683351
    8    8    8    6        0.0134911990
    8    8    7    7        0.1731349578
    8    8    8    8        0.1727821661
 end_two_electron_integrals
 enrep_tce =    5.92364532019705     
  EHF(A)             =        -4.20317859
  EHF(total)         =        -4.20317859
  Shift (HFtot-HFA)  =         0.00000000
 Cpu & wall time / sec           24.3           24.3
 T1-number-of-tasks                    16
 
 t1 file size   =               16
 t1 file name   = ./H8.t1
 t1 file handle =       -998
 T2-number-of-boxes                   356
 
 t2 file size   =              356
 t2 file name   = ./H8.t2
 t2 file handle =       -996
CCSD iterations
 ---------------------------------------------------------
 Iter          Residuum       Correlation     Cpu    Wall 
 ---------------------------------------------------------
NEW TASK SCHEDULING
CCSD_T1_NTS --- OK
CCSD_T2_NTS --- OK
    1   0.0658667822195  -0.0454371286147     1.7     1.7
    2   0.0294207497183  -0.0576004268002     1.7     1.7
    3   0.0169587059403  -0.0617908197110     1.6     1.6
    4   0.0108887494597  -0.0636287268829     1.6     1.6
    5   0.0073280615106  -0.0645972575109     1.7     1.7
 MICROCYCLE DIIS UPDATE:                     5                     5
    6   0.0015113882547  -0.0661346239308     1.7     1.7
    7   0.0009574527424  -0.0661767465903     1.6     1.6
    8   0.0006436024430  -0.0662006242526     1.6     1.6
    9   0.0004591652526  -0.0662132596332     1.7     1.7
   10   0.0003264036921  -0.0662242587924     1.7     1.7
 MICROCYCLE DIIS UPDATE:                    10                     5
   11   0.0000725534673  -0.0662475277796     1.6     1.6
   12   0.0000364998436  -0.0662559539193     1.6     1.6
   13   0.0000229474457  -0.0662599376726     1.7     1.7
   14   0.0000152720932  -0.0662618552074     1.7     1.7
   15   0.0000103663504  -0.0662630139849     1.6     1.6
 MICROCYCLE DIIS UPDATE:                    15                     5
   16   0.0000025883545  -0.0662650093309     1.6     1.6
   17   0.0000016968599  -0.0662651045297     1.7     1.7
   18   0.0000011309812  -0.0662651464218     1.7     1.7
   19   0.0000008026574  -0.0662651701449     1.7     1.7
   20   0.0000005667223  -0.0662651910968     1.6     1.6
 MICROCYCLE DIIS UPDATE:                    20                     5
   21   0.0000001160220  -0.0662652342878     1.7     1.7
   22   0.0000000581709  -0.0662652494297     1.6     1.6
   23   0.0000000372529  -0.0662652557004     1.6     1.6
   24   0.0000000250673  -0.0662652587154     1.6     1.6
   25   0.0000000171729  -0.0662652605122     1.6     1.6
 MICROCYCLE DIIS UPDATE:                    25                     5
   26   0.0000000042913  -0.0662652637053     1.6     1.6
 -----------------------------------------------------------------
 Iterations converged
 CCSD correlation energy / hartree =        -0.066265263705277
 CCSD total energy / hartree       =        -4.269443855086680

 Singles contributions
     5a   (alpha) ---     3a   (alpha)       -0.0280952549
     6a   (alpha) ---     4a   (alpha)        0.0371310472

 Doubles contributions
     5a   (alpha)     6a   (alpha) ---     2a   (alpha)     3a   (alpha)        0.0215905305
     5a   (alpha)     6a   (alpha) ---     3a   (alpha)     4a   (alpha)       -0.0471404429
     5a   (alpha)     7a   (alpha) ---     2a   (alpha)     4a   (alpha)       -0.0294265944
     5a   (alpha)     5a   (beta ) ---     1a   (alpha)     1a   (beta )       -0.0336935066
     5a   (alpha)     5a   (beta ) ---     2a   (alpha)     2a   (beta )       -0.0427355210
     5a   (alpha)     5a   (beta ) ---     3a   (alpha)     3a   (beta )       -0.0743030293
     5a   (alpha)     5a   (beta ) ---     4a   (alpha)     4a   (beta )       -0.2030530133
     5a   (alpha)     6a   (beta ) ---     1a   (alpha)     2a   (beta )        0.0230651852
     5a   (alpha)     6a   (beta ) ---     2a   (alpha)     3a   (beta )        0.0360719145
     5a   (alpha)     6a   (beta ) ---     3a   (alpha)     4a   (beta )       -0.0868946092
     5a   (alpha)     6a   (beta ) ---     4a   (alpha)     3a   (beta )       -0.0397541662
     5a   (alpha)     7a   (beta ) ---     1a   (alpha)     3a   (beta )        0.0240671541
     5a   (alpha)     7a   (beta ) ---     2a   (alpha)     4a   (beta )       -0.0499818046
     5a   (alpha)     7a   (beta ) ---     4a   (alpha)     2a   (beta )       -0.0205552102
     5a   (alpha)     7a   (beta ) ---     4a   (alpha)     4a   (beta )       -0.0307535589
     5a   (alpha)     8a   (beta ) ---     1a   (alpha)     4a   (beta )        0.0220144928
     5a   (alpha)     8a   (beta ) ---     3a   (alpha)     4a   (beta )       -0.0342140966
     5a   (alpha)     8a   (beta ) ---     4a   (alpha)     3a   (beta )       -0.0260050786
     6a   (alpha)     7a   (alpha) ---     3a   (alpha)     4a   (alpha)        0.0205546910
     6a   (alpha)     5a   (beta ) ---     2a   (alpha)     1a   (beta )        0.0230651852
     6a   (alpha)     5a   (beta ) ---     3a   (alpha)     2a   (beta )        0.0360719145
     6a   (alpha)     5a   (beta ) ---     3a   (alpha)     4a   (beta )       -0.0397541662
     6a   (alpha)     5a   (beta ) ---     4a   (alpha)     3a   (beta )       -0.0868946092
     6a   (alpha)     6a   (beta ) ---     1a   (alpha)     1a   (beta )       -0.0217597657
     6a   (alpha)     6a   (beta ) ---     2a   (alpha)     2a   (beta )       -0.0329761876
     6a   (alpha)     6a   (beta ) ---     3a   (alpha)     3a   (beta )       -0.0604104530
     6a   (alpha)     6a   (beta ) ---     4a   (alpha)     4a   (beta )       -0.0534656057
     6a   (alpha)     7a   (beta ) ---     2a   (alpha)     3a   (beta )       -0.0290750216
     6a   (alpha)     7a   (beta ) ---     3a   (alpha)     4a   (beta )        0.0217869707
     7a   (alpha)     5a   (beta ) ---     2a   (alpha)     4a   (beta )       -0.0205552102
     7a   (alpha)     5a   (beta ) ---     3a   (alpha)     1a   (beta )        0.0240671541
     7a   (alpha)     5a   (beta ) ---     4a   (alpha)     2a   (beta )       -0.0499818046
     7a   (alpha)     5a   (beta ) ---     4a   (alpha)     4a   (beta )       -0.0307535589
     7a   (alpha)     6a   (beta ) ---     3a   (alpha)     2a   (beta )       -0.0290750216
     7a   (alpha)     6a   (beta ) ---     4a   (alpha)     3a   (beta )        0.0217869707
     7a   (alpha)     7a   (beta ) ---     2a   (alpha)     2a   (beta )       -0.0240131103
     7a   (alpha)     7a   (beta ) ---     3a   (alpha)     3a   (beta )       -0.0209454993
     7a   (alpha)     7a   (beta ) ---     4a   (alpha)     4a   (beta )       -0.0252767725
     8a   (alpha)     5a   (beta ) ---     3a   (alpha)     4a   (beta )       -0.0260050786
     8a   (alpha)     5a   (beta ) ---     4a   (alpha)     1a   (beta )        0.0220144928
     8a   (alpha)     5a   (beta ) ---     4a   (alpha)     3a   (beta )       -0.0342140966
 Ground state specification:
 exp(T)|Ref>~(1+T)|Ref>
 ------- a(p)+/a(q) strings ----------

 singles norm

 doubles norm

 Reference string
  0.980001079287601      :(1a)+ (2a)+ (3a)+ (4a)+ (1b)+ (2b)+ (3b)+ (4b)+ |0>

 Singles strings

 Doubles strings
 -0.198992172195636      :(5a)+ (5b)+ (4b)  (4a)  (1a)+ (2a)+ (3a)+ (4a)+ (1b)+ 
 (2b)+ (3b)+ (4b)+ |0>
 -------------------------------------

 Task  times  cpu:       75.8s     wall:       75.8s
 
 
                                NWChem Input Module
                                -------------------
 
 
 Summary of allocated global arrays
-----------------------------------
  No active global arrays


MA_summarize_allocated_blocks: starting scan ...
MA_summarize_allocated_blocks: scan completed: 0 heap blocks, 0 stack blocks
MA usage statistics:

	allocation statistics:
					      heap	     stack
					      ----	     -----
	current number of blocks	         0	         0
	maximum number of blocks	        16	        42
	current total bytes		         0	         0
	maximum total bytes		     80104	  33006664
	maximum total K-bytes		        81	     33007
	maximum total M-bytes		         1	        34
 
 
                                     CITATION
                                     --------
                Please cite the following reference when publishing
                           results obtained with NWChem:
 
          E. Apra, E. J. Bylaska, W. A. de Jong, N. Govind, K. Kowalski,
       T. P. Straatsma, M. Valiev, H. J. J. van Dam, Y. Alexeev, J. Anchell,
       V. Anisimov, F. W. Aquino, R. Atta-Fynn, J. Autschbach, N. P. Bauman,
     J. C. Becca, D. E. Bernholdt, K. Bhaskaran-Nair, S. Bogatko, P. Borowski,
         J. Boschen, J. Brabec, A. Bruner, E. Cauet, Y. Chen, G. N. Chuev,
      C. J. Cramer, J. Daily, M. J. O. Deegan, T. H. Dunning Jr., M. Dupuis,
   K. G. Dyall, G. I. Fann, S. A. Fischer, A. Fonari, H. Fruchtl, L. Gagliardi,
      J. Garza, N. Gawande, S. Ghosh, K. Glaesemann, A. W. Gotz, J. Hammond,
       V. Helms, E. D. Hermes, K. Hirao, S. Hirata, M. Jacquelin, L. Jensen,
   B. G. Johnson, H. Jonsson, R. A. Kendall, M. Klemm, R. Kobayashi, V. Konkov,
      S. Krishnamoorthy, M. Krishnan, Z. Lin, R. D. Lins, R. J. Littlefield,
      A. J. Logsdail, K. Lopata, W. Ma, A. V. Marenich, J. Martin del Campo,
   D. Mejia-Rodriguez, J. E. Moore, J. M. Mullin, T. Nakajima, D. R. Nascimento,
    J. A. Nichols, P. J. Nichols, J. Nieplocha, A. Otero-de-la-Roza, B. Palmer,
    A. Panyala, T. Pirojsirikul, B. Peng, R. Peverati, J. Pittner, L. Pollack,
   R. M. Richard, P. Sadayappan, G. C. Schatz, W. A. Shelton, D. W. Silverstein,
   D. M. A. Smith, T. A. Soares, D. Song, M. Swart, H. L. Taylor, G. S. Thomas,
            V. Tipparaju, D. G. Truhlar, K. Tsemekhman, T. Van Voorhis,
      A. Vazquez-Mayagoitia, P. Verma, O. Villa, A. Vishnu, K. D. Vogiatzis,
        D. Wang, J. H. Weare, M. J. Williamson, T. L. Windus, K. Wolinski,
        A. T. Wong, Q. Wu, C. Yang, Q. Yu, M. Zacharias, Z. Zhang, Y. Zhao,
                                and R. J. Harrison
                        "NWChem: Past, present, and future
                         J. Chem. Phys. 152, 184102 (2020)
                               doi:10.1063/5.0004997
 
                                      AUTHORS
                                      -------
  E. Apra, E. J. Bylaska, N. Govind, K. Kowalski, M. Valiev, D. Mejia-Rodriguez,
       A. Kunitsa, N. P. Bauman, A. Panyala, W. A. de Jong, T. P. Straatsma,
   H. J. J. van Dam, D. Wang, T. L. Windus, J. Hammond, J. Autschbach, A. Woods,
    K. Bhaskaran-Nair, J. Brabec, K. Lopata, S. A. Fischer, S. Krishnamoorthy,
     M. Jacquelin, W. Ma, M. Klemm, O. Villa, Y. Chen, V. Anisimov, F. Aquino,
     S. Hirata, M. T. Hackler, E. Hermes, L. Jensen, J. E. Moore, J. C. Becca,
      V. Konjkov, T. Risthaus, M. Malagoli, A. Marenich, A. Otero-de-la-Roza,
        J. Mullin, P. Nichols, R. Peverati, J. Pittner, Y. Zhao, P.-D. Fan,
        A. Fonari, M. J. Williamson, R. J. Harrison, J. R. Rehr, M. Dupuis,
     D. Silverstein, D. M. A. Smith, J. Nieplocha, V. Tipparaju, M. Krishnan,
     B. E. Van Kuiken, A. Vazquez-Mayagoitia, M. Swart, Q. Wu, T. Van Voorhis,
     A. A. Auer, M. Nooijen, L. D. Crosby, E. Brown, G. Cisneros, G. I. Fann,
   H. Fruchtl, J. Garza, K. Hirao, R. A. Kendall, J. A. Nichols, K. Tsemekhman,
    K. Wolinski, J. Anchell, D. E. Bernholdt, P. Borowski, T. Clark, D. Clerc,
   H. Dachsel, M. J. O. Deegan, K. Dyall, D. Elwood, E. Glendening, M. Gutowski,
   A. C. Hess, J. Jaffe, B. G. Johnson, J. Ju, R. Kobayashi, R. Kutteh, Z. Lin,
   R. Littlefield, X. Long, B. Meng, T. Nakajima, S. Niu, L. Pollack, M. Rosing,
   K. Glaesemann, G. Sandrone, M. Stave, H. Taylor, G. Thomas, J. H. van Lenthe,
                               A. T. Wong, Z. Zhang.

 Total times  cpu:       77.5s     wall:       77.5s
