 argument  1 = input.nw
  NWChem w/ OpenMP: maximum threads =    1
 


============================== echo of input deck ==============================

echo
start H8
title "H8"

memory total 120 gb

geometry units bohr
symmetry c1
H 0 0 0
H 0 0 2.53
H 0 0 5.06
H 0 0 7.59
H 0 0 10.12
H 0 0 12.65
H 0 0 15.18
H 0 0 17.71
end

basis spherical
  * library cc-pVTZ
end

scf
thresh 1e-8
end

tce
  2eorb
  2emet 13
  ccsd
  thresh 1e-8
  maxiter 300
end

set tce:print_integrals T
set tce:qorb 8
set tce:qela 4
set tce:qelb 4

# set tce:qducc T
# set tce:nactv 4
# set tce:nonhf T
# set tce:ducc_model 6

set tce:printtol 0.02

task tce
================================================================================


                                         
                                         
 
 
             Northwest Computational Chemistry Package (NWChem) 7.2.3
             --------------------------------------------------------
 
 
                    Environmental Molecular Sciences Laboratory
                       Pacific Northwest National Laboratory
                                Richland, WA 99352
 
                              Copyright (c) 1994-2022
                       Pacific Northwest National Laboratory
                            Battelle Memorial Institute
 
             NWChem is an open-source computational chemistry package
                        distributed under the terms of the
                      Educational Community License (ECL) 2.0
             A copy of the license is included with this distribution
                              in the LICENSE.TXT file
 
                                  ACKNOWLEDGMENT
                                  --------------

            This software and its documentation were developed at the
            EMSL at Pacific Northwest National Laboratory, a multiprogram
            national laboratory, operated for the U.S. Department of Energy
            by Battelle under Contract Number DE-AC05-76RL01830. Support
            for this work was provided by the Department of Energy Office
            of Biological and Environmental Research, Office of Basic
            Energy Sciences, and the Office of Advanced Scientific Computing.


           Job information
           ---------------

    hostname        = koothan
    program         = /hpc/home/baum612/code/nwchem/bin/LINUX64/nwchem
    date            = Fri Nov 15 11:44:40 2024

    compiled        = Wed_Nov_13_16:23:19_2024
    source          = /hpc/home/baum612/code/nwchem
    nwchem branch   = 7.2.3
    nwchem revision = v7.2.0-beta1-1280-g0779ca2e41
    ga revision     = 5.8.0
    use scalapack   = T
    input           = input.nw
    prefix          = H8.
    data base       = ./H8.db
    status          = startup
    nproc           =        1
    time left       =     -1s



           Memory information
           ------------------

    heap     =   4026531840 doubles =    30720.0 Mbytes
    stack    =   4026531837 doubles =    30720.0 Mbytes
    global   =   8053063680 doubles =    61440.0 Mbytes (distinct from heap & stack)
    total    =  16106127357 doubles =   122880.0 Mbytes
    verify   = yes
    hardfail = no 


           Directory information
           ---------------------
 
  0 permanent = .
  0 scratch   = .
 
 
 
 
                                NWChem Input Module
                                -------------------
 
 
                                        H8
                                        --
 Turning off AUTOSYM since
 SYMMETRY directive was detected!
 

          ------
          auto-z
          ------
     1 autoz failed with cvr_scaling = 1.2 changing to 1.3
     2 autoz failed with cvr_scaling = 1.3 changing to 1.4
     3 autoz failed with cvr_scaling = 1.4 changing to 1.5
     4 autoz failed with cvr_scaling = 1.5 changing to 1.6
     5 autoz failed with cvr_scaling = 1.6 changing to 1.7
  Looking for out-of-plane bends
  autoz: insufficient variables                      7                    18

 AUTOZ failed to generate good internal coordinates.
 Cartesian coordinates will be used in optimizations.

 
 
                             Geometry "geometry" -> ""
                             -------------------------
 
 Output coordinates in a.u. (scale by  1.000000000 to convert to a.u.)
 
  No.       Tag          Charge          X              Y              Z
 ---- ---------------- ---------- -------------- -------------- --------------
    1 H                    1.0000     0.00000000     0.00000000    -8.85500000
    2 H                    1.0000     0.00000000     0.00000000    -6.32500000
    3 H                    1.0000     0.00000000     0.00000000    -3.79500000
    4 H                    1.0000     0.00000000     0.00000000    -1.26500000
    5 H                    1.0000     0.00000000     0.00000000     1.26500000
    6 H                    1.0000     0.00000000     0.00000000     3.79500000
    7 H                    1.0000     0.00000000     0.00000000     6.32500000
    8 H                    1.0000     0.00000000     0.00000000     8.85500000
 
      Atomic Mass 
      ----------- 
 
      H                  1.007825
 

 Effective nuclear repulsion energy (a.u.)       5.4319593450

            Nuclear Dipole moment (a.u.) 
            ----------------------------
        X                 Y               Z
 ---------------- ---------------- ----------------
     0.0000000000     0.0000000000    -0.0000000000
 
 
            XYZ format geometry
            -------------------
     8
 geometry
 H                     0.00000000     0.00000000    -4.68586454
 H                     0.00000000     0.00000000    -3.34704610
 H                     0.00000000     0.00000000    -2.00822766
 H                     0.00000000     0.00000000    -0.66940922
 H                     0.00000000     0.00000000     0.66940922
 H                     0.00000000     0.00000000     2.00822766
 H                     0.00000000     0.00000000     3.34704610
 H                     0.00000000     0.00000000     4.68586454
 


 Summary of "ao basis" -> "" (spherical)
 ------------------------------------------------------------------------------
       Tag                 Description            Shells   Functions and Types
 ---------------- ------------------------------  ------  ---------------------
 *                          cc-pVTZ                   on all atoms 


                      Basis "ao basis" -> "ao basis" (spherical)
                      -----
  H (Hydrogen)
  ------------
            Exponent  Coefficients 
       -------------- ---------------------------------------------------------
  1 S  3.38700000E+01  0.006068
  1 S  5.09500000E+00  0.045308
  1 S  1.15900000E+00  0.202822
 
  2 S  3.25800000E-01  1.000000
 
  3 S  1.02700000E-01  1.000000
 
  4 P  1.40700000E+00  1.000000
 
  5 P  3.88000000E-01  1.000000
 
  6 D  1.05700000E+00  1.000000
 


 Summary of "ao basis" -> "ao basis" (spherical)
 ------------------------------------------------------------------------------
       Tag                 Description            Shells   Functions and Types
 ---------------- ------------------------------  ------  ---------------------
 H                          cc-pVTZ                  6       14   3s2p1d


                                 NWChem SCF Module
                                 -----------------
 
 
                                        H8
 
 

  ao basis        = "ao basis"
  functions       =   112
  atoms           =     8
  closed shells   =     4
  open shells     =     0
  charge          =   0.00
  wavefunction    = RHF 
  input vectors   = atomic
  output vectors  = ./H8.movecs
  use symmetry    = F
  symmetry adapt  = F


 Summary of "ao basis" -> "ao basis" (spherical)
 ------------------------------------------------------------------------------
       Tag                 Description            Shells   Functions and Types
 ---------------- ------------------------------  ------  ---------------------
 H                          cc-pVTZ                  6       14   3s2p1d



 Forming initial guess at       1.8s

 
      Superposition of Atomic Density Guess
      -------------------------------------
 
 Sum of atomic energies:          -3.99847357
 
      Non-variational initial energy
      ------------------------------

 Total energy =      -3.207322
 1-e energy   =     -14.738832
 2-e energy   =       6.099551
 HOMO         =      -0.256707
 LUMO         =      -0.123000
 

 Starting SCF solution at       1.8s



 ----------------------------------------------
         Quadratically convergent ROHF

 Convergence threshold     :          1.000E-08
 Maximum no. of iterations :           30
 Final Fock-matrix accuracy:          1.000E-10
 ----------------------------------------------


              iter       energy          gnorm     gmax       time
             ----- ------------------- --------- --------- --------
                 1       -4.1151817076  2.08D-01  1.08D-01      2.2
                 2       -4.1290369323  8.53D-02  2.94D-02      2.9
                 3       -4.1301364391  5.56D-03  3.27D-03      3.7
                 4       -4.1301468135  1.18D-05  7.53D-06      5.0
                 5       -4.1301468135  2.98D-10  1.00D-10      7.0


       Final RHF  results 
       ------------------ 

         Total SCF energy =     -4.130146813505
      One-electron energy =    -15.245906781848
      Two-electron energy =      5.683800623340
 Nuclear repulsion energy =      5.431959345003

        Time for solution =      5.2s


             Final eigenvalues
             -----------------

              1      
    1   -0.5816
    2   -0.5350
    3   -0.4598
    4   -0.3627
    5   -0.0566
    6    0.0654
    7    0.1891
    8    0.3066
    9    0.3396
   10    0.3765
   11    0.3990
   12    0.4563
   13    0.4862
   14    0.5603
 
                       ROHF Final Molecular Orbital Analysis
                       -------------------------------------
 
 Vector    1  Occ=2.000000D+00  E=-5.815890D-01
              MO Center=  5.0D-16, -1.6D-16,  1.1D-12, r^2= 5.3D+00
   Bfn.  Coefficient  Atom+Function         Bfn.  Coefficient  Atom+Function  
  ----- ------------  ---------------      ----- ------------  ---------------
    44      0.182138  4 H  s                 58      0.182138  5 H  s          
    30      0.163357  3 H  s                 72      0.163357  6 H  s          
 
 Vector    2  Occ=2.000000D+00  E=-5.350132D-01
              MO Center=  7.5D-17,  1.1D-16,  2.7D-12, r^2= 1.1D+01
   Bfn.  Coefficient  Atom+Function         Bfn.  Coefficient  Atom+Function  
  ----- ------------  ---------------      ----- ------------  ---------------
    16      0.176813  2 H  s                 86     -0.176813  7 H  s          
    30      0.154141  3 H  s                 72     -0.154141  6 H  s          
 
 Vector    3  Occ=2.000000D+00  E=-4.598040D-01
              MO Center= -3.9D-17,  2.0D-17, -9.2D-13, r^2= 1.3D+01
   Bfn.  Coefficient  Atom+Function         Bfn.  Coefficient  Atom+Function  
  ----- ------------  ---------------      ----- ------------  ---------------
     2      0.171985  1 H  s                 17      0.171229  2 H  s          
    87      0.171229  7 H  s                100      0.171985  8 H  s          
    16      0.167457  2 H  s                 86      0.167457  7 H  s          
 
 Vector    4  Occ=2.000000D+00  E=-3.627465D-01
              MO Center=  1.2D-17,  5.8D-17, -4.7D-12, r^2= 1.1D+01
   Bfn.  Coefficient  Atom+Function         Bfn.  Coefficient  Atom+Function  
  ----- ------------  ---------------      ----- ------------  ---------------
    31      0.214589  3 H  s                 73     -0.214589  6 H  s          
    30      0.176594  3 H  s                 72     -0.176594  6 H  s          
    45      0.170320  4 H  s                 59     -0.170320  5 H  s          
     3     -0.163615  1 H  s                101      0.163615  8 H  s          
     2     -0.159228  1 H  s                100      0.159228  8 H  s          
 
 Vector    5  Occ=0.000000D+00  E=-5.663196D-02
              MO Center= -3.9D-17, -8.6D-18,  3.2D-12, r^2= 1.2D+01
   Bfn.  Coefficient  Atom+Function         Bfn.  Coefficient  Atom+Function  
  ----- ------------  ---------------      ----- ------------  ---------------
     3      0.378197  1 H  s                101      0.378197  8 H  s          
    31     -0.312339  3 H  s                 73     -0.312339  6 H  s          
    45      0.254288  4 H  s                 59      0.254288  5 H  s          
    17     -0.172099  2 H  s                 30     -0.171428  3 H  s          
    72     -0.171428  6 H  s                 87     -0.172099  7 H  s          
 
 Vector    6  Occ=0.000000D+00  E= 6.543812D-02
              MO Center= -9.3D-17,  7.4D-17,  2.6D-11, r^2= 1.7D+01
   Bfn.  Coefficient  Atom+Function         Bfn.  Coefficient  Atom+Function  
  ----- ------------  ---------------      ----- ------------  ---------------
    17     -0.729292  2 H  s                 87      0.729292  7 H  s          
     3      0.710573  1 H  s                101     -0.710573  8 H  s          
    45      0.292529  4 H  s                 59     -0.292529  5 H  s          
    31      0.181347  3 H  s                 73     -0.181347  6 H  s          
    44      0.174349  4 H  s                 58     -0.174349  5 H  s          
 
 Vector    7  Occ=0.000000D+00  E= 1.890574D-01
              MO Center= -2.2D-17,  2.2D-19, -1.3D-11, r^2= 1.7D+01
   Bfn.  Coefficient  Atom+Function         Bfn.  Coefficient  Atom+Function  
  ----- ------------  ---------------      ----- ------------  ---------------
    17      1.288325  2 H  s                 87      1.288325  7 H  s          
    31     -1.115220  3 H  s                 73     -1.115220  6 H  s          
     3     -0.993663  1 H  s                101     -0.993663  8 H  s          
    45      0.458890  4 H  s                 59      0.458890  5 H  s          
    16      0.169403  2 H  s                 86      0.169403  7 H  s          
 
 Vector    8  Occ=0.000000D+00  E= 3.065653D-01
              MO Center=  2.1D-16, -1.2D-16,  9.9D-11, r^2= 1.8D+01
   Bfn.  Coefficient  Atom+Function         Bfn.  Coefficient  Atom+Function  
  ----- ------------  ---------------      ----- ------------  ---------------
    45     -2.318500  4 H  s                 59      2.318500  5 H  s          
    31      2.148668  3 H  s                 73     -2.148668  6 H  s          
    17     -1.491456  2 H  s                 87      1.491456  7 H  s          
     3      1.253660  1 H  s                101     -1.253660  8 H  s          
     2     -0.466298  1 H  s                100      0.466298  8 H  s          
 
 Vector    9  Occ=0.000000D+00  E= 3.395716D-01
              MO Center=  1.7D-16, -8.2D-17, -1.1D-10, r^2= 8.2D+00
   Bfn.  Coefficient  Atom+Function         Bfn.  Coefficient  Atom+Function  
  ----- ------------  ---------------      ----- ------------  ---------------
    44      0.569931  4 H  s                 58      0.569931  5 H  s          
    30      0.543018  3 H  s                 72      0.543018  6 H  s          
    45     -0.517603  4 H  s                 59     -0.517603  5 H  s          
    31     -0.394653  3 H  s                 73     -0.394653  6 H  s          
    17     -0.385208  2 H  s                 87     -0.385208  7 H  s          
 
 Vector   10  Occ=0.000000D+00  E= 3.764587D-01
              MO Center= -1.2D-17,  1.8D-16,  1.1D-10, r^2= 1.1D+01
   Bfn.  Coefficient  Atom+Function         Bfn.  Coefficient  Atom+Function  
  ----- ------------  ---------------      ----- ------------  ---------------
    17      1.258321  2 H  s                 87     -1.258321  7 H  s          
    45      1.168164  4 H  s                 59     -1.168164  5 H  s          
    30     -0.614158  3 H  s                 72      0.614158  6 H  s          
    16     -0.536267  2 H  s                 86      0.536267  7 H  s          
    31     -0.343756  3 H  s                 73      0.343756  6 H  s          
 
 Vector   11  Occ=0.000000D+00  E= 3.990434D-01
              MO Center= -1.8D-17, -1.7D-16, -1.3D-10, r^2= 1.8D+01
   Bfn.  Coefficient  Atom+Function         Bfn.  Coefficient  Atom+Function  
  ----- ------------  ---------------      ----- ------------  ---------------
     3     -0.809414  1 H  s                101     -0.809414  8 H  s          
     2      0.777018  1 H  s                100      0.777018  8 H  s          
    44     -0.507893  4 H  s                 58     -0.507893  5 H  s          
    45      0.503081  4 H  s                 59      0.503081  5 H  s          
    17     -0.254811  2 H  s                 87     -0.254811  7 H  s          
 
 Vector   12  Occ=0.000000D+00  E= 4.563246D-01
              MO Center= -1.6D-16, -1.8D-16, -8.9D-12, r^2= 1.6D+01
   Bfn.  Coefficient  Atom+Function         Bfn.  Coefficient  Atom+Function  
  ----- ------------  ---------------      ----- ------------  ---------------
    31     -0.878885  3 H  s                 73      0.878885  6 H  s          
     3      0.820381  1 H  s                101     -0.820381  8 H  s          
     2     -0.741935  1 H  s                100      0.741935  8 H  s          
    44      0.487355  4 H  s                 58     -0.487355  5 H  s          
    16      0.263344  2 H  s                 86     -0.263344  7 H  s          
 
 Vector   13  Occ=0.000000D+00  E= 4.861757D-01
              MO Center=  1.4D-16, -6.0D-16,  3.2D-10, r^2= 1.6D+01
   Bfn.  Coefficient  Atom+Function         Bfn.  Coefficient  Atom+Function  
  ----- ------------  ---------------      ----- ------------  ---------------
    17      1.594563  2 H  s                 87      1.594563  7 H  s          
     3     -1.096599  1 H  s                101     -1.096599  8 H  s          
    16     -0.811368  2 H  s                 86     -0.811368  7 H  s          
    45     -0.553243  4 H  s                 59     -0.553243  5 H  s          
     2      0.453134  1 H  s                100      0.453134  8 H  s          
 
 Vector   14  Occ=0.000000D+00  E= 5.603369D-01
              MO Center=  2.4D-16,  1.2D-17, -1.2D-10, r^2= 1.3D+01
   Bfn.  Coefficient  Atom+Function         Bfn.  Coefficient  Atom+Function  
  ----- ------------  ---------------      ----- ------------  ---------------
    17      2.505759  2 H  s                 87     -2.505759  7 H  s          
    31     -1.925676  3 H  s                 73      1.925676  6 H  s          
     3     -0.995396  1 H  s                101      0.995396  8 H  s          
    16     -0.894811  2 H  s                 86      0.894811  7 H  s          
    30      0.636028  3 H  s                 72     -0.636028  6 H  s          
 

 center of mass
 --------------
 x =   0.00000000 y =   0.00000000 z =  -0.00000000

 moments of inertia (a.u.)
 ------------------
         270.941455785000           0.000000000000           0.000000000000
           0.000000000000         270.941455785000           0.000000000000
           0.000000000000           0.000000000000           0.000000000000
 
  Mulliken analysis of the total density
  --------------------------------------

    Atom       Charge   Shell Charges
 -----------   ------   -------------------------------------------------------
    1 H    1     0.96   0.15  0.44  0.36  0.00  0.01  0.00
    2 H    1     1.05   0.16  0.47  0.40  0.00  0.02  0.00
    3 H    1     0.98   0.16  0.47  0.33  0.00  0.02  0.00
    4 H    1     1.01   0.16  0.47  0.35  0.00  0.02  0.00
    5 H    1     1.01   0.16  0.47  0.35  0.00  0.02  0.00
    6 H    1     0.98   0.16  0.47  0.33  0.00  0.02  0.00
    7 H    1     1.05   0.16  0.47  0.40  0.00  0.02  0.00
    8 H    1     0.96   0.15  0.44  0.36  0.00  0.01  0.00
 
       Multipole analysis of the density wrt the origin
       ------------------------------------------------
 
     L   x y z        total         open         nuclear
     -   - - -        -----         ----         -------
     0   0 0 0     -0.000000      0.000000      8.000000
 
     1   1 0 0     -0.000000      0.000000      0.000000
     1   0 1 0     -0.000000      0.000000      0.000000
     1   0 0 1      0.000000      0.000000     -0.000000
 
     2   2 0 0     -8.258739      0.000000      0.000000
     2   1 1 0      0.000000      0.000000      0.000000
     2   1 0 1     -0.000000      0.000000      0.000000
     2   0 2 0     -8.258739      0.000000      0.000000
     2   0 1 1     -0.000000      0.000000      0.000000
     2   0 0 2     -3.378026      0.000000    268.837800
 
 ------------------------------------
     Number of active orbitals      8
     Number of active alpha electrons      4
     Number of active beta electrons       4
 ------------------------------------
                   NWChem Extensible Many-Electron Theory Module
                   ---------------------------------------------
 
              ======================================================
                   This portion of the program was automatically
                  generated by a Tensor Contraction Engine (TCE).
                  The development of this portion of the program
                 and TCE was supported by US Department of Energy,
                Office of Science, Office of Basic Energy Science.
                      TCE is a product of Battelle and PNNL.
              Please cite: S.Hirata, J.Phys.Chem.A 107, 9887 (2003).
              ======================================================
 
                                        H8
 
 
            General Information
            -------------------
      Number of processors :     1
         Wavefunction type : Restricted Hartree-Fock
          No. of electrons :     8
           Alpha electrons :     4
            Beta electrons :     4
           No. of orbitals :   224
            Alpha orbitals :   112
             Beta orbitals :   112
        Alpha frozen cores :     0
         Beta frozen cores :     0
     Alpha frozen virtuals :   104
      Beta frozen virtuals :   104
         Spin multiplicity : singlet 
    Number of AO functions :   112
       Number of AO shells :    48
        Use of symmetry is : off
      Symmetry adaption is : off
         Schwarz screening : 0.10D-09
 
          Correlation Information
          -----------------------
          Calculation type : Coupled-cluster singles & doubles                           
   Perturbative correction : none                                                        
            Max iterations :      300
        Residual threshold : 0.10D-07
     T(0) DIIS level shift : 0.00D+00
     L(0) DIIS level shift : 0.00D+00
     T(1) DIIS level shift : 0.00D+00
     L(1) DIIS level shift : 0.00D+00
     T(R) DIIS level shift : 0.00D+00
     T(I) DIIS level shift : 0.00D+00
   CC-T/L Amplitude update :  5-th order DIIS
                I/O scheme : Global Array Library
        L-threshold :  0.10D-07
        EOM-threshold :  0.10D-07
 no EOMCCSD initial starts read in
 TCE RESTART OPTIONS
 READ_INT:   F
 WRITE_INT:  F
 READ_TA:    F
 WRITE_TA:   F
 READ_XA:    F
 WRITE_XA:   F
 READ_IN3:   F
 WRITE_IN3:  F
 SLICE:      F
 D4D5:       F
 quantumc:   T
 qrotation:  F
 pwtce:      F
 qducc:      F
 nacto:                          0
 nrotv:                          0
 nrot:                           0
 
            Memory Information
            ------------------
          Available GA space size is    8053051136 doubles
          Available MA space size is    8053060452 doubles
 
 Maximum block size supplied by input
 Maximum block size         1 doubles

 tile_dim =      1

 Block   Spin    Irrep     Size     Offset   Alpha
 -------------------------------------------------
   1    alpha     a      1 doubles       0       1
   2    alpha     a      1 doubles       1       2
   3    alpha     a      1 doubles       2       3
   4    alpha     a      1 doubles       3       4
   5    beta      a      1 doubles       4       1
   6    beta      a      1 doubles       5       2
   7    beta      a      1 doubles       6       3
   8    beta      a      1 doubles       7       4
   9    alpha     a      1 doubles       8       9
  10    alpha     a      1 doubles       9      10
  11    alpha     a      1 doubles      10      11
  12    alpha     a      1 doubles      11      12
  13    beta      a      1 doubles      12       9
  14    beta      a      1 doubles      13      10
  15    beta      a      1 doubles      14      11
  16    beta      a      1 doubles      15      12

 Global array virtual files algorithm will be used

 Parallel file system coherency ......... OK
 
 Fock matrix recomputed
 1-e file size   =               64
 1-e file name   = ./H8.f1
 Cpu & wall time / sec            0.3            0.3
 4-electron integrals stored in orbital form
 
 v2    file size   =              666
 4-index algorithm nr.  13 is used
 imaxsize =       30
 imaxsize ichop =        0
 begin_one_electron_integrals
    1    1        -2.0724778471
    3    1         0.1125330879
    5    1         0.0355132812
    7    1        -0.0347144681
    2    2        -1.9255049470
    4    2        -0.1488742625
    6    2         0.0914200866
    8    2         0.0474874025
    1    3         0.1125330879
    3    3        -1.8214756835
    5    3         0.1734960772
    7    3        -0.0759430775
    2    4        -0.1488742625
    4    4        -1.8034949133
    6    4        -0.1547137090
    8    4        -0.0485355021
    1    5         0.0355132812
    3    5         0.1734960772
    5    5        -1.6853849273
    7    5        -0.2109570642
    2    6         0.0914200866
    4    6        -0.1547137090
    6    6        -1.4712922587
    8    6         0.2464557086
    1    7        -0.0347144681
    3    7        -0.0759430775
    5    7        -0.2109570642
    7    7        -1.3482127549
    2    8         0.0474874025
    4    8        -0.0485355021
    6    8         0.2464557086
    8    8        -1.1900987053
 end_one_electron_integrals
 begin_two_electron_integrals
    1    1    1    1        0.2993081214
    2    1    2    1        0.1059922878
    3    1    1    1       -0.0587025495
    3    1    3    1        0.0727079853
    3    1    2    2        0.0178032940
    4    1    2    1        0.0414795510
    4    1    4    1        0.0672269771
    4    1    3    2       -0.0277647868
    5    1    1    1        0.0028646636
    5    1    3    1       -0.0290163873
    5    1    5    1        0.0507620763
    5    1    2    2       -0.0291300075
    5    1    4    2       -0.0098586142
    5    1    3    3        0.0116709954
    5    1    4    4       -0.0030526970
    6    1    2    1       -0.0049739697
    6    1    4    1        0.0190670193
    6    1    6    1        0.0293648216
    6    1    3    2       -0.0219188034
    6    1    5    2        0.0189588132
    6    1    4    3       -0.0090985929
    6    1    5    4        0.0044234847
    7    1    1    1        0.0036556276
    7    1    3    1       -0.0005990975
    7    1    5    1        0.0209077094
    7    1    7    1        0.0263115301
    7    1    2    2        0.0014791537
    7    1    4    2       -0.0172083402
    7    1    6    2       -0.0066604985
    7    1    3    3        0.0189804779
    7    1    5    3       -0.0137568199
    7    1    4    4       -0.0067399258
    7    1    6    4        0.0075994063
    7    1    5    5        0.0004389644
    7    1    6    6        0.0079155035
    8    1    2    1       -0.0037275093
    8    1    4    1       -0.0038905111
    8    1    6    1       -0.0159087729
    8    1    8    1        0.0233676123
    8    1    3    2       -0.0020421018
    8    1    5    2       -0.0157212174
    8    1    7    2       -0.0093235989
    8    1    4    3        0.0178742206
    8    1    6    3        0.0076471340
    8    1    5    4       -0.0108481956
    8    1    7    4       -0.0067036887
    8    1    6    5       -0.0074209888
    8    1    7    6        0.0005946205
    2    2    1    1        0.2376808627
    2    2    2    2        0.2566599644
    3    2    2    1        0.0645040621
    3    2    3    2        0.0947938799
    4    2    1    1        0.0613780493
    4    2    3    1       -0.0560350480
    4    2    2    2        0.0036577189
    4    2    4    2        0.0697346388
    4    2    3    3       -0.0164134657
    5    2    2    1       -0.0401741414
    5    2    4    1       -0.0320745784
    5    2    3    2       -0.0040090117
    5    2    5    2        0.0481849328
    5    2    4    3       -0.0005427276
    6    2    1    1       -0.0075564743
    6    2    3    1       -0.0228061096
    6    2    5    1        0.0296566098
    6    2    2    2       -0.0314177275
    6    2    4    2        0.0014794700
    6    2    6    2        0.0383303572
    6    2    3    3       -0.0069696429
    6    2    5    3        0.0133731592
    6    2    4    4        0.0026421195
    6    2    5    5       -0.0051130805
    7    2    2    1       -0.0002611623
    7    2    4    1       -0.0234203788
    7    2    6    1       -0.0147958852
    7    2    3    2        0.0235234048
    7    2    5    2        0.0019838139
    7    2    7    2        0.0294054590
    7    2    4    3       -0.0043657447
    7    2    6    3       -0.0131736080
    7    2    5    4        0.0127506550
    7    2    6    5        0.0021150682
    8    2    1    1       -0.0079342563
    8    2    3    1       -0.0016040528
    8    2    5    1       -0.0197182420
    8    2    7    1       -0.0155444429
    8    2    2    2       -0.0088207102
    8    2    4    2        0.0181613897
    8    2    6    2       -0.0050364778
    8    2    8    2        0.0189691592
    8    2    3    3       -0.0272037500
    8    2    5    3       -0.0009416722
    8    2    7    3       -0.0015424929
    8    2    4    4       -0.0110727551
    8    2    6    4       -0.0034481770
    8    2    5    5       -0.0045811630
    8    2    7    5        0.0057978487
    8    2    6    6       -0.0131272036
    8    2    7    7       -0.0055182696
    3    3    1    1        0.2278897216
    3    3    3    1        0.0055780298
    3    3    2    2        0.2327596594
    3    3    3    3        0.2440746666
    4    3    2    1       -0.0789649959
    4    3    4    1       -0.0114782714
    4    3    3    2       -0.0712898985
    4    3    4    3        0.0875473394
    5    3    1    1       -0.0547191761
    5    3    3    1        0.0426662209
    5    3    5    1       -0.0070162199
    5    3    2    2       -0.0092454501
    5    3    4    2       -0.0402996101
    5    3    3    3       -0.0053241455
    5    3    5    3        0.0503423723
    5    3    4    4       -0.0120029691
    6    3    2    1       -0.0311811914
    6    3    4    1       -0.0307237362
    6    3    6    1        0.0065568215
    6    3    3    2        0.0018979662
    6    3    5    2        0.0320842458
    6    3    4    3        0.0042820238
    6    3    6    3        0.0434902027
    6    3    5    4       -0.0126653895
    7    3    1    1        0.0069815155
    7    3    3    1        0.0255833926
    7    3    5    1       -0.0269205251
    7    3    7    1        0.0011556453
    7    3    2    2        0.0342545656
    7    3    4    2       -0.0064613386
    7    3    6    2       -0.0282696593
    7    3    3    3        0.0142510685
    7    3    5    3       -0.0010846883
    7    3    7    3        0.0303202089
    7    3    4    4        0.0090207293
    7    3    6    4        0.0059415221
    7    3    5    5        0.0027407106
    7    3    6    6        0.0092480279
    8    3    2    1       -0.0061991273
    8    3    4    1        0.0255055326
    8    3    6    1        0.0158914595
    8    3    8    1       -0.0057930845
    8    3    3    2       -0.0323722645
    8    3    5    2       -0.0019237442
    8    3    7    2       -0.0116767901
    8    3    4    3        0.0116870011
    8    3    6    3       -0.0082327642
    8    3    8    3        0.0238821512
    8    3    5    4        0.0146735299
    8    3    7    4        0.0047751837
    8    3    6    5       -0.0062397042
    8    3    7    6        0.0142486565
    4    4    1    1        0.2531833839
    4    4    3    1       -0.0209946826
    4    4    2    2        0.2317357597
    4    4    4    2        0.0254770292
    4    4    3    3        0.2256737441
    4    4    4    4        0.2440715587
    5    4    2    1       -0.0530970602
    5    4    4    1       -0.0051375528
    5    4    3    2       -0.0490660087
    5    4    5    2        0.0103121549
    5    4    4    3        0.0492621406
    5    4    5    4        0.0527010365
    6    4    1    1        0.0556970105
    6    4    3    1       -0.0402261134
    6    4    5    1        0.0053131795
    6    4    2    2        0.0133772301
    6    4    4    2        0.0393103675
    6    4    6    2       -0.0075910385
    6    4    3    3        0.0095481005
    6    4    5    3       -0.0416226632
    6    4    4    4        0.0222975392
    6    4    6    4        0.0430396154
    6    4    5    5        0.0155712785
    7    4    2    1       -0.0435238232
    7    4    4    1       -0.0289416591
    7    4    6    1        0.0098145339
    7    4    3    2       -0.0125152827
    7    4    5    2        0.0349127065
    7    4    7    2        0.0011497204
    7    4    4    3        0.0158973032
    7    4    6    3        0.0263082544
    7    4    5    4        0.0156430568
    7    4    7    4        0.0353319797
    7    4    6    5       -0.0097136769
    8    4    1    1       -0.0087557420
    8    4    3    1        0.0358649074
    8    4    5    1       -0.0267232691
    8    4    7    1       -0.0078982914
    8    4    2    2        0.0294580732
    8    4    4    2       -0.0176550568
    8    4    6    2       -0.0167240553
    8    4    8    2        0.0035024097
    8    4    3    3        0.0124531933
    8    4    5    3        0.0195771765
    8    4    7    3        0.0191280139
    8    4    4    4        0.0081823311
    8    4    6    4       -0.0173119935
    8    4    8    4        0.0293654977
    8    4    5    5        0.0075531818
    8    4    7    5       -0.0093822846
    8    4    6    6        0.0073928630
    8    4    7    7        0.0103658799
    5    5    1    1        0.2448214542
    5    5    3    1       -0.0187763070
    5    5    5    1       -0.0024743475
    5    5    2    2        0.2249526584
    5    5    4    2        0.0222368242
    5    5    3    3        0.2183670651
    5    5    5    3       -0.0188357783
    5    5    4    4        0.2272305123
    5    5    5    5        0.2291337545
    6    5    2    1        0.0713338980
    6    5    4    1        0.0079213729
    6    5    6    1        0.0001110484
    6    5    3    2        0.0656086328
    6    5    5    2       -0.0072558330
    6    5    4    3       -0.0715572999
    6    5    6    3       -0.0023036258
    6    5    5    4       -0.0469126881
    6    5    6    5        0.0716958047
    7    5    1    1        0.0651024410
    7    5    3    1       -0.0460728721
    7    5    5    1        0.0009522854
    7    5    7    1       -0.0044094319
    7    5    2    2        0.0170392599
    7    5    4    2        0.0493704115
    7    5    6    2        0.0000268556
    7    5    3    3        0.0087323421
    7    5    5    3       -0.0364126658
    7    5    7    3       -0.0030979240
    7    5    4    4        0.0333294350
    7    5    6    4        0.0347926248
    7    5    5    5        0.0310903959
    7    5    7    5        0.0477761854
    7    5    6    6        0.0014022561
    8    5    2    1       -0.0432064839
    8    5    4    1       -0.0331857274
    8    5    6    1       -0.0055542372
    8    5    8    1        0.0048978010
    8    5    3    2       -0.0094957504
    8    5    5    2        0.0205504202
    8    5    7    2        0.0062510012
    8    5    4    3        0.0268670803
    8    5    6    3        0.0193213841
    8    5    8    3       -0.0040131479
    8    5    5    4        0.0156715423
    8    5    7    4        0.0218982059
    8    5    6    5       -0.0216203474
    8    5    8    5        0.0311212695
    8    5    7    6        0.0029236383
    6    6    1    1        0.2090642207
    6    6    3    1        0.0056202035
    6    6    5    1       -0.0001295274
    6    6    2    2        0.2145518973
    6    6    4    2       -0.0062353923
    6    6    6    2       -0.0074947979
    6    6    3    3        0.2148300946
    6    6    5    3       -0.0031436233
    6    6    4    4        0.2070314737
    6    6    6    4        0.0040651584
    6    6    5    5        0.2051671823
    6    6    6    6        0.2057741956
    7    6    2    1       -0.0532669913
    7    6    4    1        0.0101046118
    7    6    6    1        0.0089035919
    7    6    3    2       -0.0654090428
    7    6    5    2        0.0030386220
    7    6    7    2       -0.0077075412
    7    6    4    3        0.0574958064
    7    6    6    3       -0.0041634678
    7    6    5    4        0.0416176239
    7    6    7    4        0.0069602225
    7    6    6    5       -0.0571471021
    7    6    7    6        0.0600339255
    8    6    1    1       -0.0611590655
    8    6    3    1        0.0364501150
    8    6    5    1       -0.0100368299
    8    6    7    1       -0.0023450821
    8    6    2    2       -0.0228192637
    8    6    4    2       -0.0316732314
    8    6    6    2       -0.0045238737
    8    6    8    2        0.0036828309
    8    6    3    3       -0.0244816292
    8    6    5    3        0.0271218781
    8    6    7    3        0.0048029827
    8    6    4    4       -0.0380128923
    8    6    6    4       -0.0270573847
    8    6    8    4        0.0105285840
    8    6    5    5       -0.0345826522
    8    6    7    5       -0.0334241013
    8    6    6    6       -0.0154773263
    8    6    8    6        0.0349310869
    8    6    7    7       -0.0132288408
    7    7    1    1        0.2118161534
    7    7    3    1       -0.0008196290
    7    7    5    1       -0.0090986466
    7    7    7    1        0.0011373649
    7    7    2    2        0.2109613740
    7    7    4    2        0.0078914751
    7    7    6    2       -0.0113596038
    7    7    3    3        0.2022068509
    7    7    5    3       -0.0091885917
    7    7    7    3        0.0123638250
    7    7    4    4        0.2043353005
    7    7    6    4        0.0102486751
    7    7    5    5        0.2016377243
    7    7    7    5        0.0135174434
    7    7    6    6        0.1933963054
    7    7    7    7        0.1945699226
    8    7    2    1       -0.0564269591
    8    7    4    1       -0.0138966993
    8    7    6    1        0.0000482706
    8    7    8    1        0.0021545008
    8    7    3    2       -0.0436293634
    8    7    5    2        0.0120718306
    8    7    7    2        0.0019333719
    8    7    4    3        0.0507473316
    8    7    6    3        0.0062181901
    8    7    8    3        0.0014331241
    8    7    5    4        0.0352155750
    8    7    7    4        0.0138197690
    8    7    6    5       -0.0498231396
    8    7    8    5        0.0143338623
    8    7    7    6        0.0439522103
    8    7    8    7        0.0462280277
    8    8    1    1        0.2111894726
    8    8    3    1       -0.0185278532
    8    8    5    1        0.0070868669
    8    8    7    1        0.0034663099
    8    8    2    2        0.1915363063
    8    8    4    2        0.0143834325
    8    8    6    2        0.0022694297
    8    8    8    2       -0.0087217188
    8    8    3    3        0.1941596222
    8    8    5    3       -0.0141652944
    8    8    7    3       -0.0000729541
    8    8    4    4        0.1992388625
    8    8    6    4        0.0155731173
    8    8    8    4       -0.0028405038
    8    8    5    5        0.1951360552
    8    8    7    5        0.0192284102
    8    8    6    6        0.1843844073
    8    8    8    6       -0.0224891137
    8    8    7    7        0.1812863181
    8    8    8    8        0.1826847284
 end_two_electron_integrals
 enrep_tce =    5.43195934500282     
  EHF(A)             =        -4.13014682
  EHF(total)         =        -4.13014681
  Shift (HFtot-HFA)  =         0.00000000
 Cpu & wall time / sec           21.0           21.0
 T1-number-of-tasks                    16
 
 t1 file size   =               16
 t1 file name   = ./H8.t1
 t1 file handle =       -998
 T2-number-of-boxes                   356
 
 t2 file size   =              356
 t2 file name   = ./H8.t2
 t2 file handle =       -996
CCSD iterations
 ---------------------------------------------------------
 Iter          Residuum       Correlation     Cpu    Wall 
 ---------------------------------------------------------
NEW TASK SCHEDULING
CCSD_T1_NTS --- OK
CCSD_T2_NTS --- OK
    1   0.0841616358386  -0.0552444445982     1.3     1.3
    2   0.0399375543623  -0.0725576882031     1.3     1.3
    3   0.0229002894023  -0.0794030532494     1.3     1.3
    4   0.0146733967308  -0.0825546807992     1.3     1.3
    5   0.0100484887765  -0.0842332155746     1.3     1.3
 MICROCYCLE DIIS UPDATE:                     5                     5
    6   0.0024214200165  -0.0868808678135     1.3     1.3
    7   0.0015825418878  -0.0869965082497     1.4     1.4
    8   0.0011495165597  -0.0870350917568     1.4     1.4
    9   0.0008703354680  -0.0870581957393     1.3     1.3
   10   0.0006582693103  -0.0870794562670     1.3     1.3
 MICROCYCLE DIIS UPDATE:                    10                     5
   11   0.0001814300178  -0.0871319885280     1.3     1.3
   12   0.0000947406873  -0.0871558507296     1.3     1.3
   13   0.0000596262329  -0.0871683728168     1.3     1.3
   14   0.0000405936269  -0.0871743991342     1.3     1.3
   15   0.0000286039974  -0.0871781335835     1.3     1.3
 MICROCYCLE DIIS UPDATE:                    15                     5
   16   0.0000089005205  -0.0871849994624     1.4     1.4
   17   0.0000059112584  -0.0871851895147     1.4     1.4
   18   0.0000043250261  -0.0871852795636     1.4     1.4
   19   0.0000032702180  -0.0871853525479     1.4     1.4
   20   0.0000024723407  -0.0871854332978     1.4     1.4
 MICROCYCLE DIIS UPDATE:                    20                     5
   21   0.0000006485569  -0.0871856772369     1.4     1.4
   22   0.0000003233848  -0.0871857545509     1.4     1.4
   23   0.0000002045412  -0.0871857922077     1.3     1.3
   24   0.0000001430837  -0.0871858094773     1.4     1.4
   25   0.0000001025327  -0.0871858207514     1.3     1.3
 MICROCYCLE DIIS UPDATE:                    25                     5
   26   0.0000000343897  -0.0871858430509     1.4     1.4
   27   0.0000000229659  -0.0871858437601     1.3     1.3
   28   0.0000000165579  -0.0871858441284     1.4     1.4
   29   0.0000000123889  -0.0871858444275     1.4     1.4
   30   0.0000000092926  -0.0871858447511     1.3     1.3
 -----------------------------------------------------------------
 Iterations converged
 CCSD correlation energy / hartree =        -0.087185844751073
 CCSD total energy / hartree       =        -4.217332658256572

 Singles contributions
     5a   (alpha) ---     3a   (alpha)       -0.0238502519
     6a   (alpha) ---     4a   (alpha)       -0.0365281800
     7a   (alpha) ---     3a   (alpha)       -0.0216368964

 Doubles contributions
     5a   (alpha)     6a   (alpha) ---     2a   (alpha)     3a   (alpha)       -0.0226043949
     5a   (alpha)     6a   (alpha) ---     3a   (alpha)     4a   (alpha)        0.0505450545
     5a   (alpha)     7a   (alpha) ---     2a   (alpha)     4a   (alpha)       -0.0349595482
     5a   (alpha)     8a   (alpha) ---     1a   (alpha)     4a   (alpha)        0.0240485584
     5a   (alpha)     5a   (beta ) ---     1a   (alpha)     1a   (beta )       -0.0382141422
     5a   (alpha)     5a   (beta ) ---     2a   (alpha)     2a   (beta )       -0.0478814946
     5a   (alpha)     5a   (beta ) ---     3a   (alpha)     3a   (beta )       -0.0805666210
     5a   (alpha)     5a   (beta ) ---     4a   (alpha)     4a   (beta )       -0.2395014820
     5a   (alpha)     6a   (beta ) ---     1a   (alpha)     2a   (beta )       -0.0271425502
     5a   (alpha)     6a   (beta ) ---     2a   (alpha)     3a   (beta )       -0.0401586320
     5a   (alpha)     6a   (beta ) ---     3a   (alpha)     4a   (beta )        0.1078210201
     5a   (alpha)     6a   (beta ) ---     4a   (alpha)     3a   (beta )        0.0572759656
     5a   (alpha)     7a   (beta ) ---     1a   (alpha)     3a   (beta )        0.0312581727
     5a   (alpha)     7a   (beta ) ---     2a   (alpha)     4a   (beta )       -0.0696523056
     5a   (alpha)     7a   (beta ) ---     4a   (alpha)     2a   (beta )       -0.0346927573
     5a   (alpha)     7a   (beta ) ---     4a   (alpha)     4a   (beta )       -0.0281409562
     5a   (alpha)     8a   (beta ) ---     1a   (alpha)     4a   (beta )        0.0476862208
     5a   (alpha)     8a   (beta ) ---     3a   (alpha)     4a   (beta )       -0.0299263591
     5a   (alpha)     8a   (beta ) ---     4a   (alpha)     1a   (beta )        0.0236376624
     5a   (alpha)     8a   (beta ) ---     4a   (alpha)     3a   (beta )       -0.0230267928
     6a   (alpha)     7a   (alpha) ---     3a   (alpha)     4a   (alpha)       -0.0218817897
     6a   (alpha)     5a   (beta ) ---     2a   (alpha)     1a   (beta )       -0.0271425502
     6a   (alpha)     5a   (beta ) ---     3a   (alpha)     2a   (beta )       -0.0401586320
     6a   (alpha)     5a   (beta ) ---     3a   (alpha)     4a   (beta )        0.0572759656
     6a   (alpha)     5a   (beta ) ---     4a   (alpha)     3a   (beta )        0.1078210201
     6a   (alpha)     6a   (beta ) ---     1a   (alpha)     1a   (beta )       -0.0269986296
     6a   (alpha)     6a   (beta ) ---     2a   (alpha)     2a   (beta )       -0.0402608391
     6a   (alpha)     6a   (beta ) ---     2a   (alpha)     4a   (beta )        0.0214098224
     6a   (alpha)     6a   (beta ) ---     3a   (alpha)     3a   (beta )       -0.0807206642
     6a   (alpha)     6a   (beta ) ---     4a   (alpha)     2a   (beta )        0.0214098224
     6a   (alpha)     6a   (beta ) ---     4a   (alpha)     4a   (beta )       -0.0629821926
     6a   (alpha)     7a   (beta ) ---     2a   (alpha)     3a   (beta )        0.0428043697
     6a   (alpha)     7a   (beta ) ---     3a   (alpha)     2a   (beta )        0.0242174062
     6a   (alpha)     7a   (beta ) ---     3a   (alpha)     4a   (beta )       -0.0287608958
     6a   (alpha)     8a   (beta ) ---     1a   (alpha)     3a   (beta )       -0.0241412864
     7a   (alpha)     5a   (beta ) ---     2a   (alpha)     4a   (beta )       -0.0346927573
     7a   (alpha)     5a   (beta ) ---     3a   (alpha)     1a   (beta )        0.0312581727
     7a   (alpha)     5a   (beta ) ---     4a   (alpha)     2a   (beta )       -0.0696523056
     7a   (alpha)     5a   (beta ) ---     4a   (alpha)     4a   (beta )       -0.0281409562
     7a   (alpha)     6a   (beta ) ---     2a   (alpha)     3a   (beta )        0.0242174062
     7a   (alpha)     6a   (beta ) ---     3a   (alpha)     2a   (beta )        0.0428043697
     7a   (alpha)     6a   (beta ) ---     4a   (alpha)     3a   (beta )       -0.0287608958
     7a   (alpha)     7a   (beta ) ---     1a   (alpha)     1a   (beta )       -0.0230435781
     7a   (alpha)     7a   (beta ) ---     2a   (alpha)     2a   (beta )       -0.0373140910
     7a   (alpha)     7a   (beta ) ---     3a   (alpha)     3a   (beta )       -0.0274574685
     7a   (alpha)     7a   (beta ) ---     4a   (alpha)     4a   (beta )       -0.0303548634
     8a   (alpha)     5a   (beta ) ---     1a   (alpha)     4a   (beta )        0.0236376624
     8a   (alpha)     5a   (beta ) ---     3a   (alpha)     4a   (beta )       -0.0230267928
     8a   (alpha)     5a   (beta ) ---     4a   (alpha)     1a   (beta )        0.0476862208
     8a   (alpha)     5a   (beta ) ---     4a   (alpha)     3a   (beta )       -0.0299263591
     8a   (alpha)     6a   (beta ) ---     3a   (alpha)     1a   (beta )       -0.0241412864
     8a   (alpha)     8a   (beta ) ---     1a   (alpha)     1a   (beta )       -0.0213391587
 Ground state specification:
 exp(T)|Ref>~(1+T)|Ref>
 ------- a(p)+/a(q) strings ----------

 singles norm

 doubles norm

 Reference string
  0.961978058306807      :(1a)+ (2a)+ (3a)+ (4a)+ (1b)+ (2b)+ (3b)+ (4b)+ |0>

 Singles strings

 Doubles strings
 -0.230395170659599      :(5a)+ (5b)+ (4b)  (4a)  (1a)+ (2a)+ (3a)+ (4a)+ (1b)+ 
 (2b)+ (3b)+ (4b)+ |0>
  0.103721455526329      :(5a)+ (6b)+ (4b)  (3a)  (1a)+ (2a)+ (3a)+ (4a)+ (1b)+ 
 (2b)+ (3b)+ (4b)+ |0>
  0.103721455526329      :(6a)+ (5b)+ (3b)  (4a)  (1a)+ (2a)+ (3a)+ (4a)+ (1b)+ 
 (2b)+ (3b)+ (4b)+ |0>
 -------------------------------------

 Task  times  cpu:       67.2s     wall:       67.2s
 
 
                                NWChem Input Module
                                -------------------
 
 
 Summary of allocated global arrays
-----------------------------------
  No active global arrays


MA_summarize_allocated_blocks: starting scan ...
MA_summarize_allocated_blocks: scan completed: 0 heap blocks, 0 stack blocks
MA usage statistics:

	allocation statistics:
					      heap	     stack
					      ----	     -----
	current number of blocks	         0	         0
	maximum number of blocks	        16	        42
	current total bytes		         0	         0
	maximum total bytes		     80104	  33006664
	maximum total K-bytes		        81	     33007
	maximum total M-bytes		         1	        34
 
 
                                     CITATION
                                     --------
                Please cite the following reference when publishing
                           results obtained with NWChem:
 
          E. Apra, E. J. Bylaska, W. A. de Jong, N. Govind, K. Kowalski,
       T. P. Straatsma, M. Valiev, H. J. J. van Dam, Y. Alexeev, J. Anchell,
       V. Anisimov, F. W. Aquino, R. Atta-Fynn, J. Autschbach, N. P. Bauman,
     J. C. Becca, D. E. Bernholdt, K. Bhaskaran-Nair, S. Bogatko, P. Borowski,
         J. Boschen, J. Brabec, A. Bruner, E. Cauet, Y. Chen, G. N. Chuev,
      C. J. Cramer, J. Daily, M. J. O. Deegan, T. H. Dunning Jr., M. Dupuis,
   K. G. Dyall, G. I. Fann, S. A. Fischer, A. Fonari, H. Fruchtl, L. Gagliardi,
      J. Garza, N. Gawande, S. Ghosh, K. Glaesemann, A. W. Gotz, J. Hammond,
       V. Helms, E. D. Hermes, K. Hirao, S. Hirata, M. Jacquelin, L. Jensen,
   B. G. Johnson, H. Jonsson, R. A. Kendall, M. Klemm, R. Kobayashi, V. Konkov,
      S. Krishnamoorthy, M. Krishnan, Z. Lin, R. D. Lins, R. J. Littlefield,
      A. J. Logsdail, K. Lopata, W. Ma, A. V. Marenich, J. Martin del Campo,
   D. Mejia-Rodriguez, J. E. Moore, J. M. Mullin, T. Nakajima, D. R. Nascimento,
    J. A. Nichols, P. J. Nichols, J. Nieplocha, A. Otero-de-la-Roza, B. Palmer,
    A. Panyala, T. Pirojsirikul, B. Peng, R. Peverati, J. Pittner, L. Pollack,
   R. M. Richard, P. Sadayappan, G. C. Schatz, W. A. Shelton, D. W. Silverstein,
   D. M. A. Smith, T. A. Soares, D. Song, M. Swart, H. L. Taylor, G. S. Thomas,
            V. Tipparaju, D. G. Truhlar, K. Tsemekhman, T. Van Voorhis,
      A. Vazquez-Mayagoitia, P. Verma, O. Villa, A. Vishnu, K. D. Vogiatzis,
        D. Wang, J. H. Weare, M. J. Williamson, T. L. Windus, K. Wolinski,
        A. T. Wong, Q. Wu, C. Yang, Q. Yu, M. Zacharias, Z. Zhang, Y. Zhao,
                                and R. J. Harrison
                        "NWChem: Past, present, and future
                         J. Chem. Phys. 152, 184102 (2020)
                               doi:10.1063/5.0004997
 
                                      AUTHORS
                                      -------
  E. Apra, E. J. Bylaska, N. Govind, K. Kowalski, M. Valiev, D. Mejia-Rodriguez,
       A. Kunitsa, N. P. Bauman, A. Panyala, W. A. de Jong, T. P. Straatsma,
   H. J. J. van Dam, D. Wang, T. L. Windus, J. Hammond, J. Autschbach, A. Woods,
    K. Bhaskaran-Nair, J. Brabec, K. Lopata, S. A. Fischer, S. Krishnamoorthy,
     M. Jacquelin, W. Ma, M. Klemm, O. Villa, Y. Chen, V. Anisimov, F. Aquino,
     S. Hirata, M. T. Hackler, E. Hermes, L. Jensen, J. E. Moore, J. C. Becca,
      V. Konjkov, T. Risthaus, M. Malagoli, A. Marenich, A. Otero-de-la-Roza,
        J. Mullin, P. Nichols, R. Peverati, J. Pittner, Y. Zhao, P.-D. Fan,
        A. Fonari, M. J. Williamson, R. J. Harrison, J. R. Rehr, M. Dupuis,
     D. Silverstein, D. M. A. Smith, J. Nieplocha, V. Tipparaju, M. Krishnan,
     B. E. Van Kuiken, A. Vazquez-Mayagoitia, M. Swart, Q. Wu, T. Van Voorhis,
     A. A. Auer, M. Nooijen, L. D. Crosby, E. Brown, G. Cisneros, G. I. Fann,
   H. Fruchtl, J. Garza, K. Hirao, R. A. Kendall, J. A. Nichols, K. Tsemekhman,
    K. Wolinski, J. Anchell, D. E. Bernholdt, P. Borowski, T. Clark, D. Clerc,
   H. Dachsel, M. J. O. Deegan, K. Dyall, D. Elwood, E. Glendening, M. Gutowski,
   A. C. Hess, J. Jaffe, B. G. Johnson, J. Ju, R. Kobayashi, R. Kutteh, Z. Lin,
   R. Littlefield, X. Long, B. Meng, T. Nakajima, S. Niu, L. Pollack, M. Rosing,
   K. Glaesemann, G. Sandrone, M. Stave, H. Taylor, G. Thomas, J. H. van Lenthe,
                               A. T. Wong, Z. Zhang.

 Total times  cpu:       69.0s     wall:       69.0s
