 argument  1 = input.nw
  NWChem w/ OpenMP: maximum threads =    1
 


============================== echo of input deck ==============================

echo
start H8
title "H8"

memory total 120 gb

geometry units bohr
symmetry c1
H 0 0 0
H 0 0 2.63
H 0 0 5.26
H 0 0 7.89
H 0 0 10.52
H 0 0 13.15
H 0 0 15.78
H 0 0 18.41
end

basis spherical
  * library cc-pVTZ
end

scf
thresh 1e-8
end

tce
  2eorb
  2emet 13
  ccsd
  thresh 1e-8
  maxiter 300
end

set tce:print_integrals T
set tce:qorb 8
set tce:qela 4
set tce:qelb 4

# set tce:qducc T
# set tce:nactv 4
# set tce:nonhf T
# set tce:ducc_model 6

set tce:printtol 0.02

task tce
================================================================================


                                         
                                         
 
 
             Northwest Computational Chemistry Package (NWChem) 7.2.3
             --------------------------------------------------------
 
 
                    Environmental Molecular Sciences Laboratory
                       Pacific Northwest National Laboratory
                                Richland, WA 99352
 
                              Copyright (c) 1994-2022
                       Pacific Northwest National Laboratory
                            Battelle Memorial Institute
 
             NWChem is an open-source computational chemistry package
                        distributed under the terms of the
                      Educational Community License (ECL) 2.0
             A copy of the license is included with this distribution
                              in the LICENSE.TXT file
 
                                  ACKNOWLEDGMENT
                                  --------------

            This software and its documentation were developed at the
            EMSL at Pacific Northwest National Laboratory, a multiprogram
            national laboratory, operated for the U.S. Department of Energy
            by Battelle under Contract Number DE-AC05-76RL01830. Support
            for this work was provided by the Department of Energy Office
            of Biological and Environmental Research, Office of Basic
            Energy Sciences, and the Office of Advanced Scientific Computing.


           Job information
           ---------------

    hostname        = koothan
    program         = /hpc/home/baum612/code/nwchem/bin/LINUX64/nwchem
    date            = Fri Nov 15 11:31:46 2024

    compiled        = Wed_Nov_13_16:23:19_2024
    source          = /hpc/home/baum612/code/nwchem
    nwchem branch   = 7.2.3
    nwchem revision = v7.2.0-beta1-1280-g0779ca2e41
    ga revision     = 5.8.0
    use scalapack   = T
    input           = input.nw
    prefix          = H8.
    data base       = ./H8.db
    status          = startup
    nproc           =        1
    time left       =     -1s



           Memory information
           ------------------

    heap     =   4026531840 doubles =    30720.0 Mbytes
    stack    =   4026531837 doubles =    30720.0 Mbytes
    global   =   8053063680 doubles =    61440.0 Mbytes (distinct from heap & stack)
    total    =  16106127357 doubles =   122880.0 Mbytes
    verify   = yes
    hardfail = no 


           Directory information
           ---------------------
 
  0 permanent = .
  0 scratch   = .
 
 
 
 
                                NWChem Input Module
                                -------------------
 
 
                                        H8
                                        --
 Turning off AUTOSYM since
 SYMMETRY directive was detected!
 

          ------
          auto-z
          ------
     1 autoz failed with cvr_scaling = 1.2 changing to 1.3
     2 autoz failed with cvr_scaling = 1.3 changing to 1.4
     3 autoz failed with cvr_scaling = 1.4 changing to 1.5
     4 autoz failed with cvr_scaling = 1.5 changing to 1.6
     5 autoz failed with cvr_scaling = 1.6 changing to 1.7

 AUTOZ failed to generate good internal coordinates.
 Cartesian coordinates will be used in optimizations.

 
 
                             Geometry "geometry" -> ""
                             -------------------------
 
 Output coordinates in a.u. (scale by  1.000000000 to convert to a.u.)
 
  No.       Tag          Charge          X              Y              Z
 ---- ---------------- ---------- -------------- -------------- --------------
    1 H                    1.0000     0.00000000     0.00000000    -9.20500000
    2 H                    1.0000     0.00000000     0.00000000    -6.57500000
    3 H                    1.0000     0.00000000     0.00000000    -3.94500000
    4 H                    1.0000     0.00000000     0.00000000    -1.31500000
    5 H                    1.0000     0.00000000     0.00000000     1.31500000
    6 H                    1.0000     0.00000000     0.00000000     3.94500000
    7 H                    1.0000     0.00000000     0.00000000     6.57500000
    8 H                    1.0000     0.00000000     0.00000000     9.20500000
 
      Atomic Mass 
      ----------- 
 
      H                  1.007825
 

 Effective nuclear repulsion energy (a.u.)       5.2254209669

            Nuclear Dipole moment (a.u.) 
            ----------------------------
        X                 Y               Z
 ---------------- ---------------- ----------------
     0.0000000000     0.0000000000     0.0000000000
 
 
            XYZ format geometry
            -------------------
     8
 geometry
 H                     0.00000000     0.00000000    -4.87107658
 H                     0.00000000     0.00000000    -3.47934041
 H                     0.00000000     0.00000000    -2.08760425
 H                     0.00000000     0.00000000    -0.69586808
 H                     0.00000000     0.00000000     0.69586808
 H                     0.00000000     0.00000000     2.08760425
 H                     0.00000000     0.00000000     3.47934041
 H                     0.00000000     0.00000000     4.87107658
 


 Summary of "ao basis" -> "" (spherical)
 ------------------------------------------------------------------------------
       Tag                 Description            Shells   Functions and Types
 ---------------- ------------------------------  ------  ---------------------
 *                          cc-pVTZ                   on all atoms 


                      Basis "ao basis" -> "ao basis" (spherical)
                      -----
  H (Hydrogen)
  ------------
            Exponent  Coefficients 
       -------------- ---------------------------------------------------------
  1 S  3.38700000E+01  0.006068
  1 S  5.09500000E+00  0.045308
  1 S  1.15900000E+00  0.202822
 
  2 S  3.25800000E-01  1.000000
 
  3 S  1.02700000E-01  1.000000
 
  4 P  1.40700000E+00  1.000000
 
  5 P  3.88000000E-01  1.000000
 
  6 D  1.05700000E+00  1.000000
 


 Summary of "ao basis" -> "ao basis" (spherical)
 ------------------------------------------------------------------------------
       Tag                 Description            Shells   Functions and Types
 ---------------- ------------------------------  ------  ---------------------
 H                          cc-pVTZ                  6       14   3s2p1d


                                 NWChem SCF Module
                                 -----------------
 
 
                                        H8
 
 

  ao basis        = "ao basis"
  functions       =   112
  atoms           =     8
  closed shells   =     4
  open shells     =     0
  charge          =   0.00
  wavefunction    = RHF 
  input vectors   = atomic
  output vectors  = ./H8.movecs
  use symmetry    = F
  symmetry adapt  = F


 Summary of "ao basis" -> "ao basis" (spherical)
 ------------------------------------------------------------------------------
       Tag                 Description            Shells   Functions and Types
 ---------------- ------------------------------  ------  ---------------------
 H                          cc-pVTZ                  6       14   3s2p1d



 Forming initial guess at       1.8s

 
      Superposition of Atomic Density Guess
      -------------------------------------
 
 Sum of atomic energies:          -3.99847357
 
      Non-variational initial energy
      ------------------------------

 Total energy =      -3.154998
 1-e energy   =     -14.349362
 2-e energy   =       5.968943
 HOMO         =      -0.254736
 LUMO         =      -0.130364
 

 Starting SCF solution at       1.9s



 ----------------------------------------------
         Quadratically convergent ROHF

 Convergence threshold     :          1.000E-08
 Maximum no. of iterations :           30
 Final Fock-matrix accuracy:          1.000E-10
 ----------------------------------------------


              iter       energy          gnorm     gmax       time
             ----- ------------------- --------- --------- --------
                 1       -4.0789273247  2.03D-01  1.04D-01      2.2
                 2       -4.0929521180  8.70D-02  3.23D-02      2.9
                 3       -4.0940698916  5.53D-03  3.33D-03      3.6
                 4       -4.0940811735  1.36D-05  9.11D-06      4.8
                 5       -4.0940811736  3.69D-10  1.76D-10      6.6


       Final RHF  results 
       ------------------ 

         Total SCF energy =     -4.094081173599
      One-electron energy =    -14.834241087999
      Two-electron energy =      5.514738947534
 Nuclear repulsion energy =      5.225420966866

        Time for solution =      4.8s


             Final eigenvalues
             -----------------

              1      
    1   -0.5662
    2   -0.5225
    3   -0.4521
    4   -0.3616
    5   -0.0657
    6    0.0500
    7    0.1693
    8    0.2887
    9    0.3430
   10    0.3725
   11    0.3949
   12    0.4404
   13    0.4793
   14    0.5493
 
                       ROHF Final Molecular Orbital Analysis
                       -------------------------------------
 
 Vector    1  Occ=2.000000D+00  E=-5.661552D-01
              MO Center= -7.2D-18, -9.7D-17, -1.8D-12, r^2= 5.7D+00
   Bfn.  Coefficient  Atom+Function         Bfn.  Coefficient  Atom+Function  
  ----- ------------  ---------------      ----- ------------  ---------------
    44      0.181227  4 H  s                 58      0.181227  5 H  s          
    30      0.162620  3 H  s                 72      0.162620  6 H  s          
 
 Vector    2  Occ=2.000000D+00  E=-5.225423D-01
              MO Center=  4.2D-17, -2.7D-17,  7.7D-12, r^2= 1.2D+01
   Bfn.  Coefficient  Atom+Function         Bfn.  Coefficient  Atom+Function  
  ----- ------------  ---------------      ----- ------------  ---------------
    16      0.175624  2 H  s                 86     -0.175624  7 H  s          
    30      0.152551  3 H  s                 72     -0.152551  6 H  s          
 
 Vector    3  Occ=2.000000D+00  E=-4.521087D-01
              MO Center=  6.9D-17, -5.0D-16, -3.1D-12, r^2= 1.4D+01
   Bfn.  Coefficient  Atom+Function         Bfn.  Coefficient  Atom+Function  
  ----- ------------  ---------------      ----- ------------  ---------------
    17      0.173357  2 H  s                 87      0.173357  7 H  s          
     2      0.170961  1 H  s                100      0.170961  8 H  s          
    16      0.165468  2 H  s                 86      0.165468  7 H  s          
 
 Vector    4  Occ=2.000000D+00  E=-3.615754D-01
              MO Center=  7.1D-17, -4.1D-17, -4.2D-12, r^2= 1.1D+01
   Bfn.  Coefficient  Atom+Function         Bfn.  Coefficient  Atom+Function  
  ----- ------------  ---------------      ----- ------------  ---------------
    31      0.213718  3 H  s                 73     -0.213718  6 H  s          
    30      0.173782  3 H  s                 72     -0.173782  6 H  s          
    45      0.172189  4 H  s                 59     -0.172189  5 H  s          
     3     -0.164438  1 H  s                101      0.164438  8 H  s          
     2     -0.156445  1 H  s                100      0.156445  8 H  s          
 
 Vector    5  Occ=0.000000D+00  E=-6.574783D-02
              MO Center= -3.0D-17,  9.6D-17,  8.0D-12, r^2= 1.2D+01
   Bfn.  Coefficient  Atom+Function         Bfn.  Coefficient  Atom+Function  
  ----- ------------  ---------------      ----- ------------  ---------------
     3      0.357729  1 H  s                101      0.357729  8 H  s          
    31     -0.310467  3 H  s                 73     -0.310467  6 H  s          
    45      0.250144  4 H  s                 59      0.250144  5 H  s          
    30     -0.168528  3 H  s                 72     -0.168528  6 H  s          
    17     -0.157821  2 H  s                 87     -0.157821  7 H  s          
 
 Vector    6  Occ=0.000000D+00  E= 5.000153D-02
              MO Center=  1.8D-16, -1.2D-17, -8.7D-12, r^2= 1.7D+01
   Bfn.  Coefficient  Atom+Function         Bfn.  Coefficient  Atom+Function  
  ----- ------------  ---------------      ----- ------------  ---------------
     3      0.643360  1 H  s                101     -0.643360  8 H  s          
    17     -0.639013  2 H  s                 87      0.639013  7 H  s          
    45      0.330374  4 H  s                 59     -0.330374  5 H  s          
    44      0.168183  4 H  s                 58     -0.168183  5 H  s          
    16     -0.154541  2 H  s                 86      0.154541  7 H  s          
 
 Vector    7  Occ=0.000000D+00  E= 1.693032D-01
              MO Center= -1.8D-18,  1.8D-17, -1.0D-10, r^2= 1.7D+01
   Bfn.  Coefficient  Atom+Function         Bfn.  Coefficient  Atom+Function  
  ----- ------------  ---------------      ----- ------------  ---------------
    17      1.132058  2 H  s                 87      1.132058  7 H  s          
    31     -0.970808  3 H  s                 73     -0.970808  6 H  s          
     3     -0.871469  1 H  s                101     -0.871469  8 H  s          
    45      0.401753  4 H  s                 59      0.401753  5 H  s          
    16      0.172083  2 H  s                 86      0.172083  7 H  s          
 
 Vector    8  Occ=0.000000D+00  E= 2.886604D-01
              MO Center= -3.1D-16, -9.3D-17,  1.2D-10, r^2= 1.6D+01
   Bfn.  Coefficient  Atom+Function         Bfn.  Coefficient  Atom+Function  
  ----- ------------  ---------------      ----- ------------  ---------------
    45     -1.999572  4 H  s                 59      1.999572  5 H  s          
    31      1.831587  3 H  s                 73     -1.831587  6 H  s          
    17     -1.332878  2 H  s                 87      1.332878  7 H  s          
     3      1.069823  1 H  s                101     -1.069823  8 H  s          
     2     -0.344012  1 H  s                100      0.344012  8 H  s          
 
 Vector    9  Occ=0.000000D+00  E= 3.430327D-01
              MO Center=  2.1D-16,  8.8D-17, -3.0D-10, r^2= 9.0D+00
   Bfn.  Coefficient  Atom+Function         Bfn.  Coefficient  Atom+Function  
  ----- ------------  ---------------      ----- ------------  ---------------
    44      0.571655  4 H  s                 58      0.571655  5 H  s          
    30      0.547585  3 H  s                 72      0.547585  6 H  s          
    45     -0.503160  4 H  s                 59     -0.503160  5 H  s          
    31     -0.429529  3 H  s                 73     -0.429529  6 H  s          
    16      0.367024  2 H  s                 86      0.367024  7 H  s          
 
 Vector   10  Occ=0.000000D+00  E= 3.724679D-01
              MO Center= -5.1D-16,  6.7D-17,  1.6D-10, r^2= 1.4D+01
   Bfn.  Coefficient  Atom+Function         Bfn.  Coefficient  Atom+Function  
  ----- ------------  ---------------      ----- ------------  ---------------
    17      0.881560  2 H  s                 87     -0.881560  7 H  s          
    45      0.678548  4 H  s                 59     -0.678548  5 H  s          
    30     -0.602286  3 H  s                 72      0.602286  6 H  s          
    16     -0.501376  2 H  s                 86      0.501376  7 H  s          
     2     -0.472348  1 H  s                100      0.472348  8 H  s          
 
 Vector   11  Occ=0.000000D+00  E= 3.948679D-01
              MO Center= -1.9D-16,  2.8D-16,  1.1D-11, r^2= 2.0D+01
   Bfn.  Coefficient  Atom+Function         Bfn.  Coefficient  Atom+Function  
  ----- ------------  ---------------      ----- ------------  ---------------
     3      0.875638  1 H  s                101      0.875638  8 H  s          
     2     -0.786644  1 H  s                100     -0.786644  8 H  s          
    45     -0.520399  4 H  s                 59     -0.520399  5 H  s          
    44      0.509978  4 H  s                 58      0.509978  5 H  s          
 
 Vector   12  Occ=0.000000D+00  E= 4.403833D-01
              MO Center=  3.1D-16, -2.5D-16, -2.6D-10, r^2= 1.8D+01
   Bfn.  Coefficient  Atom+Function         Bfn.  Coefficient  Atom+Function  
  ----- ------------  ---------------      ----- ------------  ---------------
     3      0.972433  1 H  s                101     -0.972433  8 H  s          
     2     -0.740346  1 H  s                100      0.740346  8 H  s          
    31     -0.521234  3 H  s                 73      0.521234  6 H  s          
    44      0.460460  4 H  s                 58     -0.460460  5 H  s          
    17     -0.385121  2 H  s                 87      0.385121  7 H  s          
 
 Vector   13  Occ=0.000000D+00  E= 4.793351D-01
              MO Center=  9.3D-17, -1.4D-16, -2.3D-11, r^2= 1.6D+01
   Bfn.  Coefficient  Atom+Function         Bfn.  Coefficient  Atom+Function  
  ----- ------------  ---------------      ----- ------------  ---------------
    17      1.510960  2 H  s                 87      1.510960  7 H  s          
     3     -1.030196  1 H  s                101     -1.030196  8 H  s          
    16     -0.800223  2 H  s                 86     -0.800223  7 H  s          
    45     -0.565545  4 H  s                 59     -0.565545  5 H  s          
     2      0.429695  1 H  s                 44      0.430039  4 H  s          
 
 Vector   14  Occ=0.000000D+00  E= 5.493012D-01
              MO Center=  4.4D-16,  7.5D-16, -2.0D-11, r^2= 1.4D+01
   Bfn.  Coefficient  Atom+Function         Bfn.  Coefficient  Atom+Function  
  ----- ------------  ---------------      ----- ------------  ---------------
    17      2.321282  2 H  s                 87     -2.321282  7 H  s          
    31     -1.732775  3 H  s                 73      1.732775  6 H  s          
     3     -0.900366  1 H  s                101      0.900366  8 H  s          
    16     -0.879150  2 H  s                 86      0.879150  7 H  s          
    30      0.598617  3 H  s                 72     -0.598617  6 H  s          
 

 center of mass
 --------------
 x =   0.00000000 y =   0.00000000 z =   0.00000000

 moments of inertia (a.u.)
 ------------------
         292.783039185000           0.000000000000           0.000000000000
           0.000000000000         292.783039185000           0.000000000000
           0.000000000000           0.000000000000           0.000000000000
 
  Mulliken analysis of the total density
  --------------------------------------

    Atom       Charge   Shell Charges
 -----------   ------   -------------------------------------------------------
    1 H    1     0.96   0.14  0.43  0.37  0.00  0.01  0.00
    2 H    1     1.05   0.15  0.46  0.41  0.00  0.02  0.00
    3 H    1     0.98   0.15  0.46  0.35  0.00  0.02  0.00
    4 H    1     1.01   0.15  0.46  0.37  0.00  0.02  0.00
    5 H    1     1.01   0.15  0.46  0.37  0.00  0.02  0.00
    6 H    1     0.98   0.15  0.46  0.35  0.00  0.02  0.00
    7 H    1     1.05   0.15  0.46  0.41  0.00  0.02  0.00
    8 H    1     0.96   0.14  0.43  0.37  0.00  0.01  0.00
 
       Multipole analysis of the density wrt the origin
       ------------------------------------------------
 
     L   x y z        total         open         nuclear
     -   - - -        -----         ----         -------
     0   0 0 0     -0.000000      0.000000      8.000000
 
     1   1 0 0     -0.000000      0.000000      0.000000
     1   0 1 0      0.000000      0.000000      0.000000
     1   0 0 1      0.000000      0.000000      0.000000
 
     2   2 0 0     -8.473282      0.000000      0.000000
     2   1 1 0     -0.000000      0.000000      0.000000
     2   1 0 1      0.000000      0.000000      0.000000
     2   0 2 0     -8.473282      0.000000      0.000000
     2   0 1 1      0.000000      0.000000      0.000000
     2   0 0 2     -2.840474      0.000000    290.509800
 
 ------------------------------------
     Number of active orbitals      8
     Number of active alpha electrons      4
     Number of active beta electrons       4
 ------------------------------------
                   NWChem Extensible Many-Electron Theory Module
                   ---------------------------------------------
 
              ======================================================
                   This portion of the program was automatically
                  generated by a Tensor Contraction Engine (TCE).
                  The development of this portion of the program
                 and TCE was supported by US Department of Energy,
                Office of Science, Office of Basic Energy Science.
                      TCE is a product of Battelle and PNNL.
              Please cite: S.Hirata, J.Phys.Chem.A 107, 9887 (2003).
              ======================================================
 
                                        H8
 
 
            General Information
            -------------------
      Number of processors :     1
         Wavefunction type : Restricted Hartree-Fock
          No. of electrons :     8
           Alpha electrons :     4
            Beta electrons :     4
           No. of orbitals :   224
            Alpha orbitals :   112
             Beta orbitals :   112
        Alpha frozen cores :     0
         Beta frozen cores :     0
     Alpha frozen virtuals :   104
      Beta frozen virtuals :   104
         Spin multiplicity : singlet 
    Number of AO functions :   112
       Number of AO shells :    48
        Use of symmetry is : off
      Symmetry adaption is : off
         Schwarz screening : 0.10D-09
 
          Correlation Information
          -----------------------
          Calculation type : Coupled-cluster singles & doubles                           
   Perturbative correction : none                                                        
            Max iterations :      300
        Residual threshold : 0.10D-07
     T(0) DIIS level shift : 0.00D+00
     L(0) DIIS level shift : 0.00D+00
     T(1) DIIS level shift : 0.00D+00
     L(1) DIIS level shift : 0.00D+00
     T(R) DIIS level shift : 0.00D+00
     T(I) DIIS level shift : 0.00D+00
   CC-T/L Amplitude update :  5-th order DIIS
                I/O scheme : Global Array Library
        L-threshold :  0.10D-07
        EOM-threshold :  0.10D-07
 no EOMCCSD initial starts read in
 TCE RESTART OPTIONS
 READ_INT:   F
 WRITE_INT:  F
 READ_TA:    F
 WRITE_TA:   F
 READ_XA:    F
 WRITE_XA:   F
 READ_IN3:   F
 WRITE_IN3:  F
 SLICE:      F
 D4D5:       F
 quantumc:   T
 qrotation:  F
 pwtce:      F
 qducc:      F
 nacto:                          0
 nrotv:                          0
 nrot:                           0
 
            Memory Information
            ------------------
          Available GA space size is    8053051136 doubles
          Available MA space size is    8053060452 doubles
 
 Maximum block size supplied by input
 Maximum block size         1 doubles

 tile_dim =      1

 Block   Spin    Irrep     Size     Offset   Alpha
 -------------------------------------------------
   1    alpha     a      1 doubles       0       1
   2    alpha     a      1 doubles       1       2
   3    alpha     a      1 doubles       2       3
   4    alpha     a      1 doubles       3       4
   5    beta      a      1 doubles       4       1
   6    beta      a      1 doubles       5       2
   7    beta      a      1 doubles       6       3
   8    beta      a      1 doubles       7       4
   9    alpha     a      1 doubles       8       9
  10    alpha     a      1 doubles       9      10
  11    alpha     a      1 doubles      10      11
  12    alpha     a      1 doubles      11      12
  13    beta      a      1 doubles      12       9
  14    beta      a      1 doubles      13      10
  15    beta      a      1 doubles      14      11
  16    beta      a      1 doubles      15      12

 Global array virtual files algorithm will be used

 Parallel file system coherency ......... OK
 
 Fock matrix recomputed
 1-e file size   =               64
 1-e file name   = ./H8.f1
 Cpu & wall time / sec            0.3            0.3
 4-electron integrals stored in orbital form
 
 v2    file size   =              666
 4-index algorithm nr.  13 is used
 imaxsize =       30
 imaxsize ichop =        0
 begin_one_electron_integrals
    1    1        -2.0116254671
    3    1         0.1091369623
    5    1         0.0340815124
    7    1        -0.0341720553
    2    2        -1.8706397696
    4    2        -0.1434520120
    6    2         0.0891119002
    8    2         0.0382899291
    1    3         0.1091369623
    3    3        -1.7730146137
    5    3         0.1655617414
    7    3        -0.0733921812
    2    4        -0.1434520120
    4    4        -1.7618406936
    6    4        -0.1460667656
    8    4        -0.0484757641
    1    5         0.0340815124
    3    5         0.1655617414
    5    5        -1.6554724718
    7    5        -0.1951712015
    2    6         0.0891119002
    4    6        -0.1460667656
    6    6        -1.4602715719
    8    6         0.2237414885
    1    7        -0.0341720553
    3    7        -0.0733921812
    5    7        -0.1951712015
    7    7        -1.3594179835
    2    8         0.0382899291
    4    8        -0.0484757641
    6    8         0.2237414885
    8    8        -1.2647989382
 end_one_electron_integrals
 begin_two_electron_integrals
    1    1    1    1        0.2904509192
    2    1    2    1        0.1036480852
    3    1    1    1       -0.0572641193
    3    1    3    1        0.0714126412
    3    1    2    2        0.0177913912
    4    1    2    1        0.0406385418
    4    1    4    1        0.0668099124
    4    1    3    2       -0.0280952734
    5    1    1    1        0.0028364470
    5    1    3    1       -0.0283299509
    5    1    5    1        0.0509008352
    5    1    2    2       -0.0284335294
    5    1    4    2       -0.0098518638
    5    1    3    3        0.0117802683
    5    1    4    4       -0.0029695799
    6    1    2    1       -0.0052029339
    6    1    4    1        0.0184817863
    6    1    6    1        0.0298294166
    6    1    3    2       -0.0213543444
    6    1    5    2        0.0197006920
    6    1    4    3       -0.0094220006
    6    1    5    4        0.0046857698
    7    1    1    1        0.0036068197
    7    1    3    1       -0.0004335902
    7    1    5    1        0.0206490374
    7    1    7    1        0.0272477602
    7    1    2    2        0.0015522461
    7    1    4    2       -0.0167813035
    7    1    6    2       -0.0073513724
    7    1    3    3        0.0183022464
    7    1    5    3       -0.0148608730
    7    1    4    4       -0.0074697593
    7    1    6    4        0.0087345305
    7    1    5    5       -0.0001398364
    7    1    6    6        0.0081229353
    8    1    2    1       -0.0017940639
    8    1    4    1       -0.0027571696
    8    1    6    1       -0.0165280275
    8    1    8    1        0.0285736833
    8    1    3    2       -0.0013794513
    8    1    5    2       -0.0170501225
    8    1    7    2       -0.0121513429
    8    1    4    3        0.0167624467
    8    1    6    3        0.0098436992
    8    1    5    4       -0.0152517488
    8    1    7    4       -0.0088982136
    8    1    6    5       -0.0068042589
    8    1    7    6        0.0000507411
    2    2    1    1        0.2304092955
    2    2    2    2        0.2493606542
    3    2    2    1        0.0629341067
    3    2    3    2        0.0934087100
    4    2    1    1        0.0597957420
    4    2    3    1       -0.0555123002
    4    2    2    2        0.0026915668
    4    2    4    2        0.0688190071
    4    2    3    3       -0.0168180773
    5    2    2    1       -0.0391043980
    5    2    4    1       -0.0316581849
    5    2    3    2       -0.0032716733
    5    2    5    2        0.0477930301
    5    2    4    3       -0.0005699668
    6    2    1    1       -0.0077108376
    6    2    3    1       -0.0219142135
    6    2    5    1        0.0301592534
    6    2    2    2       -0.0306159959
    6    2    4    2        0.0005601100
    6    2    6    2        0.0390936651
    6    2    3    3       -0.0059039319
    6    2    5    3        0.0138301493
    6    2    4    4        0.0029120559
    6    2    5    5       -0.0047811635
    7    2    2    1       -0.0001382960
    7    2    4    1       -0.0227281439
    7    2    6    1       -0.0154319385
    7    2    3    2        0.0227031678
    7    2    5    2        0.0005278698
    7    2    7    2        0.0310282425
    7    2    4    3       -0.0029567942
    7    2    6    3       -0.0150693876
    7    2    5    4        0.0142458202
    7    2    6    5        0.0013642503
    8    2    1    1       -0.0063504801
    8    2    3    1       -0.0012264936
    8    2    5    1       -0.0207879345
    8    2    7    1       -0.0186881056
    8    2    2    2       -0.0066799708
    8    2    4    2        0.0183059230
    8    2    6    2       -0.0028779013
    8    2    8    2        0.0213097804
    8    2    3    3       -0.0252608645
    8    2    5    3        0.0028116143
    8    2    7    3       -0.0022446976
    8    2    4    4       -0.0066796297
    8    2    6    4       -0.0063095161
    8    2    5    5       -0.0011156989
    8    2    7    5        0.0069593459
    8    2    6    6       -0.0119650141
    8    2    7    7       -0.0041157406
    3    3    1    1        0.2210483101
    3    3    3    1        0.0061487121
    3    3    2    2        0.2265237543
    3    3    3    3        0.2377751606
    4    3    2    1       -0.0779007959
    4    3    4    1       -0.0117451867
    4    3    3    2       -0.0698774191
    4    3    4    3        0.0862031977
    5    3    1    1       -0.0527769521
    5    3    3    1        0.0420013209
    5    3    5    1       -0.0073211315
    5    3    2    2       -0.0080097708
    5    3    4    2       -0.0393839991
    5    3    3    3       -0.0044660568
    5    3    5    3        0.0495876667
    5    3    4    4       -0.0116687529
    6    3    2    1       -0.0298527236
    6    3    4    1       -0.0308113250
    6    3    6    1        0.0069290106
    6    3    3    2        0.0033996428
    6    3    5    2        0.0320037013
    6    3    4    3        0.0033951604
    6    3    6    3        0.0443631154
    6    3    5    4       -0.0136293010
    7    3    1    1        0.0075704660
    7    3    3    1        0.0241638814
    7    3    5    1       -0.0280005027
    7    3    7    1        0.0018391819
    7    3    2    2        0.0333383346
    7    3    4    2       -0.0044808295
    7    3    6    2       -0.0300168423
    7    3    3    3        0.0123399077
    7    3    5    3       -0.0031207800
    7    3    7    3        0.0319566109
    7    3    4    4        0.0077379121
    7    3    6    4        0.0074119236
    7    3    5    5        0.0019635809
    7    3    6    6        0.0084793243
    8    3    2    1       -0.0064206954
    8    3    4    1        0.0243145456
    8    3    6    1        0.0190505698
    8    3    8    1       -0.0089073519
    8    3    3    2       -0.0307708808
    8    3    5    2        0.0027515011
    8    3    7    2       -0.0127308491
    8    3    4    3        0.0076739370
    8    3    6    3       -0.0049445530
    8    3    8    3        0.0242608514
    8    3    5    4        0.0127194712
    8    3    7    4        0.0070930773
    8    3    6    5       -0.0035814705
    8    3    7    6        0.0146475923
    4    4    1    1        0.2469873791
    4    4    3    1       -0.0212077084
    4    4    2    2        0.2253732419
    4    4    4    2        0.0255662390
    4    4    3    3        0.2195055991
    4    4    4    4        0.2383649999
    5    4    2    1       -0.0518581460
    5    4    4    1       -0.0052246460
    5    4    3    2       -0.0476006115
    5    4    5    2        0.0105077573
    5    4    4    3        0.0477863574
    5    4    5    4        0.0519134055
    6    4    1    1        0.0538570372
    6    4    3    1       -0.0401799504
    6    4    5    1        0.0057927571
    6    4    2    2        0.0115907524
    6    4    4    2        0.0388937690
    6    4    6    2       -0.0081786167
    6    4    3    3        0.0081788408
    6    4    5    3       -0.0416756807
    6    4    4    4        0.0212505610
    6    4    6    4        0.0433086239
    6    4    5    5        0.0151159865
    7    4    2    1       -0.0423331480
    7    4    4    1       -0.0298213544
    7    4    6    1        0.0109066443
    7    4    3    2       -0.0101837639
    7    4    5    2        0.0361989622
    7    4    7    2        0.0004986076
    7    4    4    3        0.0139715740
    7    4    6    3        0.0273452834
    7    4    5    4        0.0146590832
    7    4    7    4        0.0367169341
    7    4    6    5       -0.0088317863
    8    4    1    1       -0.0068222540
    8    4    3    1        0.0348903306
    8    4    5    1       -0.0325129955
    8    4    7    1       -0.0104267828
    8    4    2    2        0.0305295247
    8    4    4    2       -0.0124070449
    8    4    6    2       -0.0205538303
    8    4    8    2        0.0084903443
    8    4    3    3        0.0084686700
    8    4    5    3        0.0169951568
    8    4    7    3        0.0217895185
    8    4    4    4        0.0073465729
    8    4    6    4       -0.0153244535
    8    4    8    4        0.0329914780
    8    4    5    5        0.0068541406
    8    4    7    5       -0.0072171668
    8    4    6    6        0.0053554118
    8    4    7    7        0.0125272955
    5    5    1    1        0.2398154670
    5    5    3    1       -0.0192952797
    5    5    5    1       -0.0024008484
    5    5    2    2        0.2194464000
    5    5    4    2        0.0226883541
    5    5    3    3        0.2129565038
    5    5    5    3       -0.0185531949
    5    5    4    4        0.2227414209
    5    5    5    5        0.2252907831
    6    5    2    1        0.0713955095
    6    5    4    1        0.0085815296
    6    5    6    1        0.0005174974
    6    5    3    2        0.0649430951
    6    5    5    2       -0.0072797051
    6    5    4    3       -0.0715007311
    6    5    6    3       -0.0019727831
    6    5    5    4       -0.0460334698
    6    5    6    5        0.0719303143
    7    5    1    1        0.0631424283
    7    5    3    1       -0.0473529974
    7    5    5    1        0.0007209523
    7    5    7    1       -0.0048446657
    7    5    2    2        0.0138204144
    7    5    4    2        0.0508622672
    7    5    6    2       -0.0002879960
    7    5    3    3        0.0052531481
    7    5    5    3       -0.0367895012
    7    5    7    3       -0.0024806971
    7    5    4    4        0.0317272152
    7    5    6    4        0.0352804814
    7    5    5    5        0.0301232060
    7    5    7    5        0.0494253873
    7    5    6    6       -0.0001533116
    8    5    2    1       -0.0440124075
    8    5    4    1       -0.0402802649
    8    5    6    1       -0.0065220769
    8    5    8    1        0.0031655233
    8    5    3    2       -0.0027519896
    8    5    5    2        0.0246461665
    8    5    7    2        0.0087391782
    8    5    4    3        0.0239614800
    8    5    6    3        0.0229675811
    8    5    8    3       -0.0078427493
    8    5    5    4        0.0137881717
    8    5    7    4        0.0248015130
    8    5    6    5       -0.0200437827
    8    5    8    5        0.0367168126
    8    5    7    6       -0.0001527477
    6    6    1    1        0.2059697387
    6    6    3    1        0.0056168246
    6    6    5    1        0.0003289029
    6    6    2    2        0.2114324400
    6    6    4    2       -0.0065479241
    6    6    6    2       -0.0071430482
    6    6    3    3        0.2120443482
    6    6    5    3       -0.0031046909
    6    6    4    4        0.2039874338
    6    6    6    4        0.0037748948
    6    6    5    5        0.2024755703
    6    6    6    6        0.2043763741
    7    6    2    1       -0.0541013907
    7    6    4    1        0.0112324885
    7    6    6    1        0.0095618536
    7    6    3    2       -0.0673269754
    7    6    5    2        0.0029578713
    7    6    7    2       -0.0083250949
    7    6    4    3        0.0584573098
    7    6    6    3       -0.0047003475
    7    6    5    4        0.0416045298
    7    6    7    4        0.0064222408
    7    6    6    5       -0.0578413254
    7    6    7    6        0.0616458759
    8    6    1    1       -0.0612811760
    8    6    3    1        0.0426461915
    8    6    5    1       -0.0119634587
    8    6    7    1       -0.0021106141
    8    6    2    2       -0.0164833320
    8    6    4    2       -0.0370467390
    8    6    6    2       -0.0058737886
    8    6    8    2        0.0023304655
    8    6    3    3       -0.0185709937
    8    6    5    3        0.0309359289
    8    6    7    3        0.0068729814
    8    6    4    4       -0.0353727109
    8    6    6    4       -0.0304438195
    8    6    8    4        0.0144279547
    8    6    5    5       -0.0327802281
    8    6    7    5       -0.0372154356
    8    6    6    6       -0.0122100060
    8    6    8    6        0.0391695220
    8    6    7    7       -0.0117713310
    7    7    1    1        0.2112093766
    7    7    3    1       -0.0000451935
    7    7    5    1       -0.0102867548
    7    7    7    1        0.0012887325
    7    7    2    2        0.2111857867
    7    7    4    2        0.0078078452
    7    7    6    2       -0.0128089988
    7    7    3    3        0.2016463080
    7    7    5    3       -0.0093433755
    7    7    7    3        0.0138102663
    7    7    4    4        0.2037938848
    7    7    6    4        0.0103311703
    7    7    5    5        0.2013299392
    7    7    7    5        0.0131854453
    7    7    6    6        0.1935969347
    7    7    7    7        0.1966237090
    8    7    2    1       -0.0645979986
    8    7    4    1       -0.0188149415
    8    7    6    1        0.0009318915
    8    7    8    1        0.0010321061
    8    7    3    2       -0.0466422278
    8    7    5    2        0.0168326982
    8    7    7    2        0.0022043811
    8    7    4    3        0.0554714804
    8    7    6    3        0.0097915189
    8    7    8    3        0.0017748500
    8    7    5    4        0.0381096566
    8    7    7    4        0.0185919097
    8    7    6    5       -0.0539758073
    8    7    8    5        0.0201134567
    8    7    7    6        0.0459241156
    8    7    8    7        0.0527669528
    8    8    1    1        0.2285362944
    8    8    3    1       -0.0296416824
    8    8    5    1        0.0059837165
    8    8    7    1        0.0031714409
    8    8    2    2        0.1973222401
    8    8    4    2        0.0274338608
    8    8    6    2       -0.0002576014
    8    8    8    2       -0.0061822238
    8    8    3    3        0.1965336176
    8    8    5    3       -0.0249948456
    8    8    7    3        0.0010527069
    8    8    4    4        0.2079054072
    8    8    6    4        0.0258451828
    8    8    8    4       -0.0055521197
    8    8    5    5        0.2039316566
    8    8    7    5        0.0306998603
    8    8    6    6        0.1875277561
    8    8    8    6       -0.0323528830
    8    8    7    7        0.1879220184
    8    8    8    8        0.1995344493
 end_two_electron_integrals
 enrep_tce =    5.22542096686583     
  EHF(A)             =        -4.09408117
  EHF(total)         =        -4.09408117
  Shift (HFtot-HFA)  =         0.00000000
 Cpu & wall time / sec           17.3           17.3
 T1-number-of-tasks                    16
 
 t1 file size   =               16
 t1 file name   = ./H8.t1
 t1 file handle =       -998
 T2-number-of-boxes                   356
 
 t2 file size   =              356
 t2 file name   = ./H8.t2
 t2 file handle =       -996
CCSD iterations
 ---------------------------------------------------------
 Iter          Residuum       Correlation     Cpu    Wall 
 ---------------------------------------------------------
NEW TASK SCHEDULING
CCSD_T1_NTS --- OK
CCSD_T2_NTS --- OK
    1   0.0954327065175  -0.0609568725755     1.6     1.6
    2   0.0468464357883  -0.0816887938955     1.6     1.6
    3   0.0269644577271  -0.0904923137917     1.6     1.6
    4   0.0172192970755  -0.0946782499084     1.6     1.6
    5   0.0118403598704  -0.0969383656338     1.6     1.6
 MICROCYCLE DIIS UPDATE:                     5                     5
    6   0.0031538947493  -0.1004728997633     1.6     1.6
    7   0.0020285935343  -0.1006757148282     1.6     1.6
    8   0.0015353421922  -0.1007227332065     1.6     1.6
    9   0.0011897280307  -0.1007569504215     1.6     1.6
   10   0.0009252344291  -0.1007879778418     1.6     1.6
 MICROCYCLE DIIS UPDATE:                    10                     5
   11   0.0002681136353  -0.1008719503563     1.6     1.6
   12   0.0001443310946  -0.1009122351706     1.6     1.6
   13   0.0000915146470  -0.1009329864057     1.6     1.6
   14   0.0000626096144  -0.1009432146489     1.6     1.6
   15   0.0000446782076  -0.1009495981631     1.6     1.6
 MICROCYCLE DIIS UPDATE:                    15                     5
   16   0.0000151035513  -0.1009613972940     1.6     1.6
   17   0.0000104483794  -0.1009618240836     1.6     1.6
   18   0.0000079831757  -0.1009619821120     1.6     1.6
   19   0.0000062421866  -0.1009621229127     1.6     1.6
   20   0.0000048749241  -0.1009622874230     1.6     1.6
 MICROCYCLE DIIS UPDATE:                    20                     5
   21   0.0000013644347  -0.1009628623041     1.6     1.6
   22   0.0000006923710  -0.1009630408797     1.6     1.6
   23   0.0000004357319  -0.1009631258857     1.6     1.6
   24   0.0000003056720  -0.1009631650757     1.6     1.6
   25   0.0000002221096  -0.1009631910141     1.6     1.6
 MICROCYCLE DIIS UPDATE:                    25                     5
   26   0.0000000790200  -0.1009632430327     1.6     1.6
   27   0.0000000548592  -0.1009632452500     1.6     1.6
   28   0.0000000412535  -0.1009632459711     1.6     1.6
   29   0.0000000320066  -0.1009632466473     1.6     1.6
   30   0.0000000248642  -0.1009632474763     1.6     1.6
 MICROCYCLE DIIS UPDATE:                    30                     5
   31   0.0000000058096  -0.1009632508895     1.6     1.6
 -----------------------------------------------------------------
 Iterations converged
 CCSD correlation energy / hartree =        -0.100963250889512
 CCSD total energy / hartree       =        -4.195044424488112

 Singles contributions
     6a   (alpha) ---     4a   (alpha)       -0.0350772946
     7a   (alpha) ---     3a   (alpha)       -0.0217075240

 Doubles contributions
     5a   (alpha)     6a   (alpha) ---     2a   (alpha)     3a   (alpha)       -0.0230521069
     5a   (alpha)     6a   (alpha) ---     3a   (alpha)     4a   (alpha)        0.0523111536
     5a   (alpha)     7a   (alpha) ---     2a   (alpha)     4a   (alpha)       -0.0378234786
     5a   (alpha)     8a   (alpha) ---     1a   (alpha)     4a   (alpha)        0.0295482990
     5a   (alpha)     5a   (beta ) ---     1a   (alpha)     1a   (beta )       -0.0406485024
     5a   (alpha)     5a   (beta ) ---     2a   (alpha)     2a   (beta )       -0.0500376834
     5a   (alpha)     5a   (beta ) ---     2a   (alpha)     4a   (beta )       -0.0223481987
     5a   (alpha)     5a   (beta ) ---     3a   (alpha)     3a   (beta )       -0.0830209752
     5a   (alpha)     5a   (beta ) ---     4a   (alpha)     2a   (beta )       -0.0223481987
     5a   (alpha)     5a   (beta ) ---     4a   (alpha)     4a   (beta )       -0.2599626077
     5a   (alpha)     6a   (beta ) ---     1a   (alpha)     2a   (beta )       -0.0290739175
     5a   (alpha)     6a   (beta ) ---     2a   (alpha)     3a   (beta )       -0.0416056529
     5a   (alpha)     6a   (beta ) ---     3a   (alpha)     4a   (beta )        0.1193587162
     5a   (alpha)     6a   (beta ) ---     4a   (alpha)     3a   (beta )        0.0670475626
     5a   (alpha)     7a   (beta ) ---     1a   (alpha)     3a   (beta )        0.0344187577
     5a   (alpha)     7a   (beta ) ---     2a   (alpha)     4a   (beta )       -0.0799948569
     5a   (alpha)     7a   (beta ) ---     4a   (alpha)     2a   (beta )       -0.0421713783
     5a   (alpha)     7a   (beta ) ---     4a   (alpha)     4a   (beta )       -0.0278863911
     5a   (alpha)     8a   (beta ) ---     1a   (alpha)     2a   (beta )        0.0215174428
     5a   (alpha)     8a   (beta ) ---     1a   (alpha)     4a   (beta )        0.0635179750
     5a   (alpha)     8a   (beta ) ---     3a   (alpha)     4a   (beta )       -0.0276153460
     5a   (alpha)     8a   (beta ) ---     4a   (alpha)     1a   (beta )        0.0339696761
     5a   (alpha)     8a   (beta ) ---     4a   (alpha)     3a   (beta )       -0.0210664506
     6a   (alpha)     7a   (alpha) ---     2a   (alpha)     3a   (alpha)        0.0202489462
     6a   (alpha)     7a   (alpha) ---     3a   (alpha)     4a   (alpha)       -0.0222950032
     6a   (alpha)     5a   (beta ) ---     2a   (alpha)     1a   (beta )       -0.0290739175
     6a   (alpha)     5a   (beta ) ---     3a   (alpha)     2a   (beta )       -0.0416056529
     6a   (alpha)     5a   (beta ) ---     3a   (alpha)     4a   (beta )        0.0670475626
     6a   (alpha)     5a   (beta ) ---     4a   (alpha)     3a   (beta )        0.1193587162
     6a   (alpha)     6a   (beta ) ---     1a   (alpha)     1a   (beta )       -0.0295441592
     6a   (alpha)     6a   (beta ) ---     2a   (alpha)     2a   (beta )       -0.0437481354
     6a   (alpha)     6a   (beta ) ---     2a   (alpha)     4a   (beta )        0.0251460689
     6a   (alpha)     6a   (beta ) ---     3a   (alpha)     3a   (beta )       -0.0923290328
     6a   (alpha)     6a   (beta ) ---     4a   (alpha)     2a   (beta )        0.0251460689
     6a   (alpha)     6a   (beta ) ---     4a   (alpha)     4a   (beta )       -0.0674131000
     6a   (alpha)     7a   (beta ) ---     1a   (alpha)     4a   (beta )       -0.0207668593
     6a   (alpha)     7a   (beta ) ---     2a   (alpha)     3a   (beta )        0.0505998387
     6a   (alpha)     7a   (beta ) ---     3a   (alpha)     2a   (beta )        0.0303508925
     6a   (alpha)     7a   (beta ) ---     3a   (alpha)     4a   (beta )       -0.0317205731
     6a   (alpha)     8a   (beta ) ---     1a   (alpha)     3a   (beta )       -0.0326567174
     6a   (alpha)     8a   (beta ) ---     2a   (alpha)     4a   (beta )        0.0216749634
     7a   (alpha)     5a   (beta ) ---     2a   (alpha)     4a   (beta )       -0.0421713783
     7a   (alpha)     5a   (beta ) ---     3a   (alpha)     1a   (beta )        0.0344187577
     7a   (alpha)     5a   (beta ) ---     4a   (alpha)     2a   (beta )       -0.0799948569
     7a   (alpha)     5a   (beta ) ---     4a   (alpha)     4a   (beta )       -0.0278863911
     7a   (alpha)     6a   (beta ) ---     2a   (alpha)     3a   (beta )        0.0303508925
     7a   (alpha)     6a   (beta ) ---     3a   (alpha)     2a   (beta )        0.0505998387
     7a   (alpha)     6a   (beta ) ---     4a   (alpha)     1a   (beta )       -0.0207668593
     7a   (alpha)     6a   (beta ) ---     4a   (alpha)     3a   (beta )       -0.0317205731
     7a   (alpha)     7a   (beta ) ---     1a   (alpha)     1a   (beta )       -0.0264996681
     7a   (alpha)     7a   (beta ) ---     2a   (alpha)     2a   (beta )       -0.0451777842
     7a   (alpha)     7a   (beta ) ---     3a   (alpha)     3a   (beta )       -0.0312043248
     7a   (alpha)     7a   (beta ) ---     4a   (alpha)     4a   (beta )       -0.0328898849
     7a   (alpha)     8a   (beta ) ---     1a   (alpha)     2a   (beta )        0.0248327522
     8a   (alpha)     5a   (beta ) ---     1a   (alpha)     4a   (beta )        0.0339696761
     8a   (alpha)     5a   (beta ) ---     2a   (alpha)     1a   (beta )        0.0215174428
     8a   (alpha)     5a   (beta ) ---     3a   (alpha)     4a   (beta )       -0.0210664506
     8a   (alpha)     5a   (beta ) ---     4a   (alpha)     1a   (beta )        0.0635179750
     8a   (alpha)     5a   (beta ) ---     4a   (alpha)     3a   (beta )       -0.0276153460
     8a   (alpha)     6a   (beta ) ---     3a   (alpha)     1a   (beta )       -0.0326567174
     8a   (alpha)     6a   (beta ) ---     4a   (alpha)     2a   (beta )        0.0216749634
     8a   (alpha)     7a   (beta ) ---     2a   (alpha)     1a   (beta )        0.0248327522
     8a   (alpha)     8a   (beta ) ---     1a   (alpha)     1a   (beta )       -0.0314134225
     8a   (alpha)     8a   (beta ) ---     4a   (alpha)     4a   (beta )       -0.0201978544
 Ground state specification:
 exp(T)|Ref>~(1+T)|Ref>
 ------- a(p)+/a(q) strings ----------

 singles norm

 doubles norm

 Reference string
  0.955168844898169      :(1a)+ (2a)+ (3a)+ (4a)+ (1b)+ (2b)+ (3b)+ (4b)+ |0>

 Singles strings

 Doubles strings
 -0.248308183667833      :(5a)+ (5b)+ (4b)  (4a)  (1a)+ (2a)+ (3a)+ (4a)+ (1b)+ 
 (2b)+ (3b)+ (4b)+ |0>
  0.114007727061544      :(5a)+ (6b)+ (4b)  (3a)  (1a)+ (2a)+ (3a)+ (4a)+ (1b)+ 
 (2b)+ (3b)+ (4b)+ |0>
  0.114007727061544      :(6a)+ (5b)+ (3b)  (4a)  (1a)+ (2a)+ (3a)+ (4a)+ (1b)+ 
 (2b)+ (3b)+ (4b)+ |0>
 -------------------------------------

 Task  times  cpu:       73.3s     wall:       73.3s
 
 
                                NWChem Input Module
                                -------------------
 
 
 Summary of allocated global arrays
-----------------------------------
  No active global arrays


MA_summarize_allocated_blocks: starting scan ...
MA_summarize_allocated_blocks: scan completed: 0 heap blocks, 0 stack blocks
MA usage statistics:

	allocation statistics:
					      heap	     stack
					      ----	     -----
	current number of blocks	         0	         0
	maximum number of blocks	        16	        42
	current total bytes		         0	         0
	maximum total bytes		     80104	  33006664
	maximum total K-bytes		        81	     33007
	maximum total M-bytes		         1	        34
 
 
                                     CITATION
                                     --------
                Please cite the following reference when publishing
                           results obtained with NWChem:
 
          E. Apra, E. J. Bylaska, W. A. de Jong, N. Govind, K. Kowalski,
       T. P. Straatsma, M. Valiev, H. J. J. van Dam, Y. Alexeev, J. Anchell,
       V. Anisimov, F. W. Aquino, R. Atta-Fynn, J. Autschbach, N. P. Bauman,
     J. C. Becca, D. E. Bernholdt, K. Bhaskaran-Nair, S. Bogatko, P. Borowski,
         J. Boschen, J. Brabec, A. Bruner, E. Cauet, Y. Chen, G. N. Chuev,
      C. J. Cramer, J. Daily, M. J. O. Deegan, T. H. Dunning Jr., M. Dupuis,
   K. G. Dyall, G. I. Fann, S. A. Fischer, A. Fonari, H. Fruchtl, L. Gagliardi,
      J. Garza, N. Gawande, S. Ghosh, K. Glaesemann, A. W. Gotz, J. Hammond,
       V. Helms, E. D. Hermes, K. Hirao, S. Hirata, M. Jacquelin, L. Jensen,
   B. G. Johnson, H. Jonsson, R. A. Kendall, M. Klemm, R. Kobayashi, V. Konkov,
      S. Krishnamoorthy, M. Krishnan, Z. Lin, R. D. Lins, R. J. Littlefield,
      A. J. Logsdail, K. Lopata, W. Ma, A. V. Marenich, J. Martin del Campo,
   D. Mejia-Rodriguez, J. E. Moore, J. M. Mullin, T. Nakajima, D. R. Nascimento,
    J. A. Nichols, P. J. Nichols, J. Nieplocha, A. Otero-de-la-Roza, B. Palmer,
    A. Panyala, T. Pirojsirikul, B. Peng, R. Peverati, J. Pittner, L. Pollack,
   R. M. Richard, P. Sadayappan, G. C. Schatz, W. A. Shelton, D. W. Silverstein,
   D. M. A. Smith, T. A. Soares, D. Song, M. Swart, H. L. Taylor, G. S. Thomas,
            V. Tipparaju, D. G. Truhlar, K. Tsemekhman, T. Van Voorhis,
      A. Vazquez-Mayagoitia, P. Verma, O. Villa, A. Vishnu, K. D. Vogiatzis,
        D. Wang, J. H. Weare, M. J. Williamson, T. L. Windus, K. Wolinski,
        A. T. Wong, Q. Wu, C. Yang, Q. Yu, M. Zacharias, Z. Zhang, Y. Zhao,
                                and R. J. Harrison
                        "NWChem: Past, present, and future
                         J. Chem. Phys. 152, 184102 (2020)
                               doi:10.1063/5.0004997
 
                                      AUTHORS
                                      -------
  E. Apra, E. J. Bylaska, N. Govind, K. Kowalski, M. Valiev, D. Mejia-Rodriguez,
       A. Kunitsa, N. P. Bauman, A. Panyala, W. A. de Jong, T. P. Straatsma,
   H. J. J. van Dam, D. Wang, T. L. Windus, J. Hammond, J. Autschbach, A. Woods,
    K. Bhaskaran-Nair, J. Brabec, K. Lopata, S. A. Fischer, S. Krishnamoorthy,
     M. Jacquelin, W. Ma, M. Klemm, O. Villa, Y. Chen, V. Anisimov, F. Aquino,
     S. Hirata, M. T. Hackler, E. Hermes, L. Jensen, J. E. Moore, J. C. Becca,
      V. Konjkov, T. Risthaus, M. Malagoli, A. Marenich, A. Otero-de-la-Roza,
        J. Mullin, P. Nichols, R. Peverati, J. Pittner, Y. Zhao, P.-D. Fan,
        A. Fonari, M. J. Williamson, R. J. Harrison, J. R. Rehr, M. Dupuis,
     D. Silverstein, D. M. A. Smith, J. Nieplocha, V. Tipparaju, M. Krishnan,
     B. E. Van Kuiken, A. Vazquez-Mayagoitia, M. Swart, Q. Wu, T. Van Voorhis,
     A. A. Auer, M. Nooijen, L. D. Crosby, E. Brown, G. Cisneros, G. I. Fann,
   H. Fruchtl, J. Garza, K. Hirao, R. A. Kendall, J. A. Nichols, K. Tsemekhman,
    K. Wolinski, J. Anchell, D. E. Bernholdt, P. Borowski, T. Clark, D. Clerc,
   H. Dachsel, M. J. O. Deegan, K. Dyall, D. Elwood, E. Glendening, M. Gutowski,
   A. C. Hess, J. Jaffe, B. G. Johnson, J. Ju, R. Kobayashi, R. Kutteh, Z. Lin,
   R. Littlefield, X. Long, B. Meng, T. Nakajima, S. Niu, L. Pollack, M. Rosing,
   K. Glaesemann, G. Sandrone, M. Stave, H. Taylor, G. Thomas, J. H. van Lenthe,
                               A. T. Wong, Z. Zhang.

 Total times  cpu:       75.0s     wall:       75.0s
