 argument  1 = input.nw
  NWChem w/ OpenMP: maximum threads =    1
 


============================== echo of input deck ==============================

echo
start H8
title "H8"

memory total 120 gb

geometry units bohr
symmetry c1
H 0 0 0
H 0 0 2.64
H 0 0 5.28
H 0 0 7.92
H 0 0 10.56
H 0 0 13.20
H 0 0 15.84
H 0 0 18.48
end

basis spherical
  * library cc-pVTZ
end

scf
thresh 1e-8
end

tce
  2eorb
  2emet 13
  ccsd
  thresh 1e-8
  maxiter 300
end

set tce:print_integrals T
set tce:qorb 8
set tce:qela 4
set tce:qelb 4

# set tce:qducc T
# set tce:nactv 4
# set tce:nonhf T
# set tce:ducc_model 6

set tce:printtol 0.02

task tce
================================================================================


                                         
                                         
 
 
             Northwest Computational Chemistry Package (NWChem) 7.2.3
             --------------------------------------------------------
 
 
                    Environmental Molecular Sciences Laboratory
                       Pacific Northwest National Laboratory
                                Richland, WA 99352
 
                              Copyright (c) 1994-2022
                       Pacific Northwest National Laboratory
                            Battelle Memorial Institute
 
             NWChem is an open-source computational chemistry package
                        distributed under the terms of the
                      Educational Community License (ECL) 2.0
             A copy of the license is included with this distribution
                              in the LICENSE.TXT file
 
                                  ACKNOWLEDGMENT
                                  --------------

            This software and its documentation were developed at the
            EMSL at Pacific Northwest National Laboratory, a multiprogram
            national laboratory, operated for the U.S. Department of Energy
            by Battelle under Contract Number DE-AC05-76RL01830. Support
            for this work was provided by the Department of Energy Office
            of Biological and Environmental Research, Office of Basic
            Energy Sciences, and the Office of Advanced Scientific Computing.


           Job information
           ---------------

    hostname        = koothan
    program         = /hpc/home/baum612/code/nwchem/bin/LINUX64/nwchem
    date            = Fri Nov 15 11:30:29 2024

    compiled        = Wed_Nov_13_16:23:19_2024
    source          = /hpc/home/baum612/code/nwchem
    nwchem branch   = 7.2.3
    nwchem revision = v7.2.0-beta1-1280-g0779ca2e41
    ga revision     = 5.8.0
    use scalapack   = T
    input           = input.nw
    prefix          = H8.
    data base       = ./H8.db
    status          = startup
    nproc           =        1
    time left       =     -1s



           Memory information
           ------------------

    heap     =   4026531840 doubles =    30720.0 Mbytes
    stack    =   4026531837 doubles =    30720.0 Mbytes
    global   =   8053063680 doubles =    61440.0 Mbytes (distinct from heap & stack)
    total    =  16106127357 doubles =   122880.0 Mbytes
    verify   = yes
    hardfail = no 


           Directory information
           ---------------------
 
  0 permanent = .
  0 scratch   = .
 
 
 
 
                                NWChem Input Module
                                -------------------
 
 
                                        H8
                                        --
 Turning off AUTOSYM since
 SYMMETRY directive was detected!
 

          ------
          auto-z
          ------
     1 autoz failed with cvr_scaling = 1.2 changing to 1.3
     2 autoz failed with cvr_scaling = 1.3 changing to 1.4
     3 autoz failed with cvr_scaling = 1.4 changing to 1.5
     4 autoz failed with cvr_scaling = 1.5 changing to 1.6
     5 autoz failed with cvr_scaling = 1.6 changing to 1.7

 AUTOZ failed to generate good internal coordinates.
 Cartesian coordinates will be used in optimizations.

 
 
                             Geometry "geometry" -> ""
                             -------------------------
 
 Output coordinates in a.u. (scale by  1.000000000 to convert to a.u.)
 
  No.       Tag          Charge          X              Y              Z
 ---- ---------------- ---------- -------------- -------------- --------------
    1 H                    1.0000     0.00000000     0.00000000    -9.24000000
    2 H                    1.0000     0.00000000     0.00000000    -6.60000000
    3 H                    1.0000     0.00000000     0.00000000    -3.96000000
    4 H                    1.0000     0.00000000     0.00000000    -1.32000000
    5 H                    1.0000     0.00000000     0.00000000     1.32000000
    6 H                    1.0000     0.00000000     0.00000000     3.96000000
    7 H                    1.0000     0.00000000     0.00000000     6.60000000
    8 H                    1.0000     0.00000000     0.00000000     9.24000000
 
      Atomic Mass 
      ----------- 
 
      H                  1.007825
 

 Effective nuclear repulsion energy (a.u.)       5.2056277056

            Nuclear Dipole moment (a.u.) 
            ----------------------------
        X                 Y               Z
 ---------------- ---------------- ----------------
     0.0000000000     0.0000000000     0.0000000000
 
 
            XYZ format geometry
            -------------------
     8
 geometry
 H                     0.00000000     0.00000000    -4.88959778
 H                     0.00000000     0.00000000    -3.49256984
 H                     0.00000000     0.00000000    -2.09554191
 H                     0.00000000     0.00000000    -0.69851397
 H                     0.00000000     0.00000000     0.69851397
 H                     0.00000000     0.00000000     2.09554191
 H                     0.00000000     0.00000000     3.49256984
 H                     0.00000000     0.00000000     4.88959778
 


 Summary of "ao basis" -> "" (spherical)
 ------------------------------------------------------------------------------
       Tag                 Description            Shells   Functions and Types
 ---------------- ------------------------------  ------  ---------------------
 *                          cc-pVTZ                   on all atoms 


                      Basis "ao basis" -> "ao basis" (spherical)
                      -----
  H (Hydrogen)
  ------------
            Exponent  Coefficients 
       -------------- ---------------------------------------------------------
  1 S  3.38700000E+01  0.006068
  1 S  5.09500000E+00  0.045308
  1 S  1.15900000E+00  0.202822
 
  2 S  3.25800000E-01  1.000000
 
  3 S  1.02700000E-01  1.000000
 
  4 P  1.40700000E+00  1.000000
 
  5 P  3.88000000E-01  1.000000
 
  6 D  1.05700000E+00  1.000000
 


 Summary of "ao basis" -> "ao basis" (spherical)
 ------------------------------------------------------------------------------
       Tag                 Description            Shells   Functions and Types
 ---------------- ------------------------------  ------  ---------------------
 H                          cc-pVTZ                  6       14   3s2p1d


                                 NWChem SCF Module
                                 -----------------
 
 
                                        H8
 
 

  ao basis        = "ao basis"
  functions       =   112
  atoms           =     8
  closed shells   =     4
  open shells     =     0
  charge          =   0.00
  wavefunction    = RHF 
  input vectors   = atomic
  output vectors  = ./H8.movecs
  use symmetry    = F
  symmetry adapt  = F


 Summary of "ao basis" -> "ao basis" (spherical)
 ------------------------------------------------------------------------------
       Tag                 Description            Shells   Functions and Types
 ---------------- ------------------------------  ------  ---------------------
 H                          cc-pVTZ                  6       14   3s2p1d



 Forming initial guess at       1.8s

 
      Superposition of Atomic Density Guess
      -------------------------------------
 
 Sum of atomic energies:          -3.99847357
 
      Non-variational initial energy
      ------------------------------

 Total energy =      -3.150060
 1-e energy   =     -14.311867
 2-e energy   =       5.956179
 HOMO         =      -0.254528
 LUMO         =      -0.131050
 

 Starting SCF solution at       1.9s



 ----------------------------------------------
         Quadratically convergent ROHF

 Convergence threshold     :          1.000E-08
 Maximum no. of iterations :           30
 Final Fock-matrix accuracy:          1.000E-10
 ----------------------------------------------


              iter       energy          gnorm     gmax       time
             ----- ------------------- --------- --------- --------
                 1       -4.0752822411  2.02D-01  1.03D-01      2.3
                 2       -4.0893253320  8.72D-02  3.26D-02      3.0
                 3       -4.0904453704  5.52D-03  3.34D-03      3.7
                 4       -4.0904567396  1.38D-05  9.26D-06      4.9
                 5       -4.0904567397  4.08D-10  1.98D-10      6.6


       Final RHF  results 
       ------------------ 

         Total SCF energy =     -4.090456739659
      One-electron energy =    -14.794530771820
      Two-electron energy =      5.498446326533
 Nuclear repulsion energy =      5.205627705628

        Time for solution =      4.7s


             Final eigenvalues
             -----------------

              1      
    1   -0.5647
    2   -0.5213
    3   -0.4514
    4   -0.3614
    5   -0.0666
    6    0.0485
    7    0.1673
    8    0.2866
    9    0.3434
   10    0.3721
   11    0.3945
   12    0.4392
   13    0.4787
   14    0.5483
 
                       ROHF Final Molecular Orbital Analysis
                       -------------------------------------
 
 Vector    1  Occ=2.000000D+00  E=-5.646741D-01
              MO Center=  5.2D-16,  7.8D-17,  5.5D-12, r^2= 5.8D+00
   Bfn.  Coefficient  Atom+Function         Bfn.  Coefficient  Atom+Function  
  ----- ------------  ---------------      ----- ------------  ---------------
    44      0.181125  4 H  s                 58      0.181125  5 H  s          
    30      0.162537  3 H  s                 72      0.162537  6 H  s          
 
 Vector    2  Occ=2.000000D+00  E=-5.213404D-01
              MO Center=  8.8D-17, -6.0D-17, -2.6D-12, r^2= 1.2D+01
   Bfn.  Coefficient  Atom+Function         Bfn.  Coefficient  Atom+Function  
  ----- ------------  ---------------      ----- ------------  ---------------
    16      0.175500  2 H  s                 86     -0.175500  7 H  s          
    30      0.152387  3 H  s                 72     -0.152387  6 H  s          
 
 Vector    3  Occ=2.000000D+00  E=-4.513590D-01
              MO Center=  4.6D-16, -2.9D-16, -3.0D-12, r^2= 1.4D+01
   Bfn.  Coefficient  Atom+Function         Bfn.  Coefficient  Atom+Function  
  ----- ------------  ---------------      ----- ------------  ---------------
    17      0.173583  2 H  s                 87      0.173583  7 H  s          
     2      0.170858  1 H  s                100      0.170858  8 H  s          
    16      0.165274  2 H  s                 86      0.165274  7 H  s          
 
 Vector    4  Occ=2.000000D+00  E=-3.614455D-01
              MO Center= -2.8D-16, -7.7D-17, -3.8D-13, r^2= 1.1D+01
   Bfn.  Coefficient  Atom+Function         Bfn.  Coefficient  Atom+Function  
  ----- ------------  ---------------      ----- ------------  ---------------
    31      0.213658  3 H  s                 73     -0.213658  6 H  s          
    30      0.173520  3 H  s                 72     -0.173520  6 H  s          
    45      0.172393  4 H  s                 59     -0.172393  5 H  s          
     3     -0.164528  1 H  s                101      0.164528  8 H  s          
     2     -0.156174  1 H  s                100      0.156174  8 H  s          
 
 Vector    5  Occ=0.000000D+00  E=-6.660414D-02
              MO Center= -1.6D-17,  2.8D-17, -1.2D-11, r^2= 1.2D+01
   Bfn.  Coefficient  Atom+Function         Bfn.  Coefficient  Atom+Function  
  ----- ------------  ---------------      ----- ------------  ---------------
     3      0.355887  1 H  s                101      0.355887  8 H  s          
    31     -0.310250  3 H  s                 73     -0.310250  6 H  s          
    45      0.249763  4 H  s                 59      0.249763  5 H  s          
    30     -0.168256  3 H  s                 72     -0.168256  6 H  s          
    17     -0.156597  2 H  s                 87     -0.156597  7 H  s          
 
 Vector    6  Occ=0.000000D+00  E= 4.851892D-02
              MO Center= -8.3D-17,  1.7D-17,  2.2D-11, r^2= 1.7D+01
   Bfn.  Coefficient  Atom+Function         Bfn.  Coefficient  Atom+Function  
  ----- ------------  ---------------      ----- ------------  ---------------
     3      0.637460  1 H  s                101     -0.637460  8 H  s          
    17     -0.631311  2 H  s                 87      0.631311  7 H  s          
    45      0.332954  4 H  s                 59     -0.332954  5 H  s          
    44      0.167609  4 H  s                 58     -0.167609  5 H  s          
    16     -0.154303  2 H  s                 86      0.154303  7 H  s          
 
 Vector    7  Occ=0.000000D+00  E= 1.673390D-01
              MO Center= -3.6D-17,  2.0D-17,  2.2D-10, r^2= 1.7D+01
   Bfn.  Coefficient  Atom+Function         Bfn.  Coefficient  Atom+Function  
  ----- ------------  ---------------      ----- ------------  ---------------
    17      1.118074  2 H  s                 87      1.118074  7 H  s          
    31     -0.958045  3 H  s                 73     -0.958045  6 H  s          
     3     -0.860523  1 H  s                101     -0.860523  8 H  s          
    45      0.396694  4 H  s                 59      0.396694  5 H  s          
    16      0.172294  2 H  s                 86      0.172294  7 H  s          
 
 Vector    8  Occ=0.000000D+00  E= 2.866060D-01
              MO Center=  1.5D-16,  4.4D-17, -1.4D-10, r^2= 1.6D+01
   Bfn.  Coefficient  Atom+Function         Bfn.  Coefficient  Atom+Function  
  ----- ------------  ---------------      ----- ------------  ---------------
    45     -1.967103  4 H  s                 59      1.967103  5 H  s          
    31      1.799979  3 H  s                 73     -1.799979  6 H  s          
    17     -1.314527  2 H  s                 87      1.314527  7 H  s          
     3      1.049931  1 H  s                101     -1.049931  8 H  s          
     2     -0.331753  1 H  s                100      0.331753  8 H  s          
 
 Vector    9  Occ=0.000000D+00  E= 3.433808D-01
              MO Center= -4.7D-17, -7.2D-17,  7.3D-11, r^2= 9.1D+00
   Bfn.  Coefficient  Atom+Function         Bfn.  Coefficient  Atom+Function  
  ----- ------------  ---------------      ----- ------------  ---------------
    44      0.571917  4 H  s                 58      0.571917  5 H  s          
    30      0.548072  3 H  s                 72      0.548072  6 H  s          
    45     -0.502022  4 H  s                 59     -0.502022  5 H  s          
    31     -0.432349  3 H  s                 73     -0.432349  6 H  s          
    16      0.368044  2 H  s                 86      0.368044  7 H  s          
 
 Vector   10  Occ=0.000000D+00  E= 3.721474D-01
              MO Center= -5.4D-17, -1.5D-16, -6.6D-11, r^2= 1.4D+01
   Bfn.  Coefficient  Atom+Function         Bfn.  Coefficient  Atom+Function  
  ----- ------------  ---------------      ----- ------------  ---------------
    17      0.849606  2 H  s                 87     -0.849606  7 H  s          
    45      0.638844  4 H  s                 59     -0.638844  5 H  s          
    30     -0.600166  3 H  s                 72      0.600166  6 H  s          
    16     -0.498245  2 H  s                 86      0.498245  7 H  s          
     2     -0.484853  1 H  s                100      0.484853  8 H  s          
 
 Vector   11  Occ=0.000000D+00  E= 3.945405D-01
              MO Center= -1.1D-16, -1.8D-16, -9.3D-11, r^2= 2.0D+01
   Bfn.  Coefficient  Atom+Function         Bfn.  Coefficient  Atom+Function  
  ----- ------------  ---------------      ----- ------------  ---------------
     3      0.880476  1 H  s                101      0.880476  8 H  s          
     2     -0.787302  1 H  s                100     -0.787302  8 H  s          
    45     -0.521805  4 H  s                 59     -0.521805  5 H  s          
    44      0.510509  4 H  s                 58      0.510509  5 H  s          
 
 Vector   12  Occ=0.000000D+00  E= 4.391500D-01
              MO Center= -6.6D-17, -6.3D-17,  7.1D-11, r^2= 1.8D+01
   Bfn.  Coefficient  Atom+Function         Bfn.  Coefficient  Atom+Function  
  ----- ------------  ---------------      ----- ------------  ---------------
     3      0.981560  1 H  s                101     -0.981560  8 H  s          
     2     -0.738750  1 H  s                100      0.738750  8 H  s          
    31     -0.498405  3 H  s                 73      0.498405  6 H  s          
    44      0.457920  4 H  s                 58     -0.457920  5 H  s          
    17     -0.412944  2 H  s                 87      0.412944  7 H  s          
 
 Vector   13  Occ=0.000000D+00  E= 4.787149D-01
              MO Center= -6.8D-18,  1.3D-16, -9.3D-11, r^2= 1.6D+01
   Bfn.  Coefficient  Atom+Function         Bfn.  Coefficient  Atom+Function  
  ----- ------------  ---------------      ----- ------------  ---------------
    17      1.502742  2 H  s                 87      1.502742  7 H  s          
     3     -1.024005  1 H  s                101     -1.024005  8 H  s          
    16     -0.799245  2 H  s                 86     -0.799245  7 H  s          
    45     -0.566609  4 H  s                 59     -0.566609  5 H  s          
    44      0.431625  4 H  s                 58      0.431625  5 H  s          
 
 Vector   14  Occ=0.000000D+00  E= 5.483076D-01
              MO Center=  2.7D-17, -1.3D-16,  4.4D-10, r^2= 1.4D+01
   Bfn.  Coefficient  Atom+Function         Bfn.  Coefficient  Atom+Function  
  ----- ------------  ---------------      ----- ------------  ---------------
    17      2.302859  2 H  s                 87     -2.302859  7 H  s          
    31     -1.712744  3 H  s                 73      1.712744  6 H  s          
     3     -0.891782  1 H  s                101      0.891782  8 H  s          
    16     -0.877812  2 H  s                 86      0.877812  7 H  s          
    30      0.595106  3 H  s                 72     -0.595106  6 H  s          
 

 center of mass
 --------------
 x =   0.00000000 y =   0.00000000 z =   0.00000000

 moments of inertia (a.u.)
 ------------------
         295.013759040000           0.000000000000           0.000000000000
           0.000000000000         295.013759040000           0.000000000000
           0.000000000000           0.000000000000           0.000000000000
 
  Mulliken analysis of the total density
  --------------------------------------

    Atom       Charge   Shell Charges
 -----------   ------   -------------------------------------------------------
    1 H    1     0.96   0.14  0.43  0.38  0.00  0.01  0.00
    2 H    1     1.05   0.15  0.46  0.41  0.00  0.02  0.00
    3 H    1     0.98   0.15  0.46  0.35  0.00  0.02  0.00
    4 H    1     1.01   0.15  0.46  0.37  0.00  0.02  0.00
    5 H    1     1.01   0.15  0.46  0.37  0.00  0.02  0.00
    6 H    1     0.98   0.15  0.46  0.35  0.00  0.02  0.00
    7 H    1     1.05   0.15  0.46  0.41  0.00  0.02  0.00
    8 H    1     0.96   0.14  0.43  0.38  0.00  0.01  0.00
 
       Multipole analysis of the density wrt the origin
       ------------------------------------------------
 
     L   x y z        total         open         nuclear
     -   - - -        -----         ----         -------
     0   0 0 0     -0.000000      0.000000      8.000000
 
     1   1 0 0     -0.000000      0.000000      0.000000
     1   0 1 0      0.000000      0.000000      0.000000
     1   0 0 1      0.000000      0.000000      0.000000
 
     2   2 0 0     -8.494285      0.000000      0.000000
     2   1 1 0      0.000000      0.000000      0.000000
     2   1 0 1      0.000000      0.000000      0.000000
     2   0 2 0     -8.494285      0.000000      0.000000
     2   0 1 1      0.000000      0.000000      0.000000
     2   0 0 2     -2.787721      0.000000    292.723200
 
 ------------------------------------
     Number of active orbitals      8
     Number of active alpha electrons      4
     Number of active beta electrons       4
 ------------------------------------
                   NWChem Extensible Many-Electron Theory Module
                   ---------------------------------------------
 
              ======================================================
                   This portion of the program was automatically
                  generated by a Tensor Contraction Engine (TCE).
                  The development of this portion of the program
                 and TCE was supported by US Department of Energy,
                Office of Science, Office of Basic Energy Science.
                      TCE is a product of Battelle and PNNL.
              Please cite: S.Hirata, J.Phys.Chem.A 107, 9887 (2003).
              ======================================================
 
                                        H8
 
 
            General Information
            -------------------
      Number of processors :     1
         Wavefunction type : Restricted Hartree-Fock
          No. of electrons :     8
           Alpha electrons :     4
            Beta electrons :     4
           No. of orbitals :   224
            Alpha orbitals :   112
             Beta orbitals :   112
        Alpha frozen cores :     0
         Beta frozen cores :     0
     Alpha frozen virtuals :   104
      Beta frozen virtuals :   104
         Spin multiplicity : singlet 
    Number of AO functions :   112
       Number of AO shells :    48
        Use of symmetry is : off
      Symmetry adaption is : off
         Schwarz screening : 0.10D-09
 
          Correlation Information
          -----------------------
          Calculation type : Coupled-cluster singles & doubles                           
   Perturbative correction : none                                                        
            Max iterations :      300
        Residual threshold : 0.10D-07
     T(0) DIIS level shift : 0.00D+00
     L(0) DIIS level shift : 0.00D+00
     T(1) DIIS level shift : 0.00D+00
     L(1) DIIS level shift : 0.00D+00
     T(R) DIIS level shift : 0.00D+00
     T(I) DIIS level shift : 0.00D+00
   CC-T/L Amplitude update :  5-th order DIIS
                I/O scheme : Global Array Library
        L-threshold :  0.10D-07
        EOM-threshold :  0.10D-07
 no EOMCCSD initial starts read in
 TCE RESTART OPTIONS
 READ_INT:   F
 WRITE_INT:  F
 READ_TA:    F
 WRITE_TA:   F
 READ_XA:    F
 WRITE_XA:   F
 READ_IN3:   F
 WRITE_IN3:  F
 SLICE:      F
 D4D5:       F
 quantumc:   T
 qrotation:  F
 pwtce:      F
 qducc:      F
 nacto:                          0
 nrotv:                          0
 nrot:                           0
 
            Memory Information
            ------------------
          Available GA space size is    8053051136 doubles
          Available MA space size is    8053060452 doubles
 
 Maximum block size supplied by input
 Maximum block size         1 doubles

 tile_dim =      1

 Block   Spin    Irrep     Size     Offset   Alpha
 -------------------------------------------------
   1    alpha     a      1 doubles       0       1
   2    alpha     a      1 doubles       1       2
   3    alpha     a      1 doubles       2       3
   4    alpha     a      1 doubles       3       4
   5    beta      a      1 doubles       4       1
   6    beta      a      1 doubles       5       2
   7    beta      a      1 doubles       6       3
   8    beta      a      1 doubles       7       4
   9    alpha     a      1 doubles       8       9
  10    alpha     a      1 doubles       9      10
  11    alpha     a      1 doubles      10      11
  12    alpha     a      1 doubles      11      12
  13    beta      a      1 doubles      12       9
  14    beta      a      1 doubles      13      10
  15    beta      a      1 doubles      14      11
  16    beta      a      1 doubles      15      12

 Global array virtual files algorithm will be used

 Parallel file system coherency ......... OK
 
 Fock matrix recomputed
 1-e file size   =               64
 1-e file name   = ./H8.f1
 Cpu & wall time / sec            0.3            0.3
 4-electron integrals stored in orbital form
 
 v2    file size   =              666
 4-index algorithm nr.  13 is used
 imaxsize =       30
 imaxsize ichop =        0
 begin_one_electron_integrals
    1    1        -2.0057726509
    3    1         0.1088093732
    5    1         0.0339430749
    7    1        -0.0341265247
    2    2        -1.8653564437
    4    2        -0.1429315457
    6    2         0.0888876895
    8    2         0.0375111216
    1    3         0.1088093732
    3    3        -1.7683356640
    5    3         0.1648040853
    7    3        -0.0731401894
    2    4        -0.1429315457
    4    4        -1.7578006273
    6    4        -0.1452527280
    8    4        -0.0482570716
    1    5         0.0339430749
    3    5         0.1648040853
    5    5        -1.6525162394
    7    5        -0.1937128635
    2    6         0.0888876895
    4    6        -0.1452527280
    6    6        -1.4589975783
    8    6         0.2212447559
    1    7        -0.0341265247
    3    7        -0.0731401894
    5    7        -0.1937128635
    7    7        -1.3600963043
    2    8         0.0375111216
    4    8        -0.0482570716
    6    8         0.2212447559
    8    8        -1.2719041827
 end_one_electron_integrals
 begin_two_electron_integrals
    1    1    1    1        0.2895998729
    2    1    2    1        0.1034212615
    3    1    1    1       -0.0571258891
    3    1    3    1        0.0712863798
    3    1    2    2        0.0177892566
    4    1    2    1        0.0405579979
    4    1    4    1        0.0667696623
    4    1    3    2       -0.0281273355
    5    1    1    1        0.0028343945
    5    1    3    1       -0.0282633711
    5    1    5    1        0.0509132595
    5    1    2    2       -0.0283657539
    5    1    4    2       -0.0098490226
    5    1    3    3        0.0117884690
    5    1    4    4       -0.0029615586
    6    1    2    1       -0.0052246324
    6    1    4    1        0.0184237094
    6    1    6    1        0.0298681040
    6    1    3    2       -0.0212985337
    6    1    5    2        0.0197700894
    6    1    4    3       -0.0094487063
    6    1    5    4        0.0047127515
    7    1    1    1        0.0036063524
    7    1    3    1       -0.0004203232
    7    1    5    1        0.0206215793
    7    1    7    1        0.0273239747
    7    1    2    2        0.0015610250
    7    1    4    2       -0.0167350311
    7    1    6    2       -0.0074126393
    7    1    3    3        0.0182367739
    7    1    5    3       -0.0149615530
    7    1    4    4       -0.0075282958
    7    1    6    4        0.0088457437
    7    1    5    5       -0.0001923104
    7    1    6    6        0.0081421910
    8    1    2    1       -0.0016387665
    8    1    4    1       -0.0026698269
    8    1    6    1       -0.0165634086
    8    1    8    1        0.0290476725
    8    1    3    2       -0.0013202322
    8    1    5    2       -0.0171321754
    8    1    7    2       -0.0124144700
    8    1    4    3        0.0166438674
    8    1    6    3        0.0100632519
    8    1    5    4       -0.0156456733
    8    1    7    4       -0.0090717348
    8    1    6    5       -0.0067476308
    8    1    7    6        0.0000025662
    2    2    1    1        0.2297098951
    2    2    2    2        0.2486577756
    3    2    2    1        0.0627818298
    3    2    3    2        0.0932758313
    4    2    1    1        0.0596442897
    4    2    3    1       -0.0554617425
    4    2    2    2        0.0025990248
    4    2    4    2        0.0687300907
    4    2    3    3       -0.0168569500
    5    2    2    1       -0.0390009277
    5    2    4    1       -0.0316152159
    5    2    3    2       -0.0032029646
    5    2    5    2        0.0477529287
    5    2    4    3       -0.0005704631
    6    2    1    1       -0.0077248265
    6    2    3    1       -0.0218272629
    6    2    5    1        0.0302038839
    6    2    2    2       -0.0305370990
    6    2    4    2        0.0004757604
    6    2    6    2        0.0391613293
    6    2    3    3       -0.0058057971
    6    2    5    3        0.0138707432
    6    2    4    4        0.0029333725
    6    2    5    5       -0.0047497012
    7    2    2    1       -0.0001252579
    7    2    4    1       -0.0226563683
    7    2    6    1       -0.0154844133
    7    2    3    2        0.0226213519
    7    2    5    2        0.0003936824
    7    2    7    2        0.0311754573
    7    2    4    3       -0.0028308333
    7    2    6    3       -0.0152491288
    7    2    5    4        0.0143812407
    7    2    6    5        0.0012929695
    8    2    1    1       -0.0062299699
    8    2    3    1       -0.0011855264
    8    2    5    1       -0.0208443397
    8    2    7    1       -0.0189692082
    8    2    2    2       -0.0065022865
    8    2    4    2        0.0182743046
    8    2    6    2       -0.0026485103
    8    2    8    2        0.0215397838
    8    2    3    3       -0.0250558909
    8    2    5    3        0.0031814595
    8    2    7    3       -0.0023436850
    8    2    4    4       -0.0062834445
    8    2    6    4       -0.0065949743
    8    2    5    5       -0.0008145195
    8    2    7    5        0.0070371100
    8    2    6    6       -0.0118564521
    8    2    7    7       -0.0040010953
    3    3    1    1        0.2203886533
    3    3    3    1        0.0062051882
    3    3    2    2        0.2259240611
    3    3    3    3        0.2371679628
    4    3    2    1       -0.0777977321
    4    3    4    1       -0.0117718118
    4    3    3    2       -0.0697404948
    4    3    4    3        0.0860730714
    5    3    1    1       -0.0525897805
    5    3    3    1        0.0419332069
    5    3    5    1       -0.0073513663
    5    3    2    2       -0.0078942569
    5    3    4    2       -0.0392923336
    5    3    3    3       -0.0043859716
    5    3    5    3        0.0495117781
    5    3    4    4       -0.0116381473
    6    3    2    1       -0.0297238251
    6    3    4    1       -0.0308118742
    6    3    6    1        0.0069657026
    6    3    3    2        0.0035369628
    6    3    5    2        0.0319899277
    6    3    4    3        0.0033152560
    6    3    6    3        0.0444397850
    6    3    5    4       -0.0137194839
    7    3    1    1        0.0076206945
    7    3    3    1        0.0240280825
    7    3    5    1       -0.0280927680
    7    3    7    1        0.0019110706
    7    3    2    2        0.0332445938
    7    3    4    2       -0.0043038973
    7    3    6    2       -0.0301766807
    7    3    3    3        0.0121652590
    7    3    5    3       -0.0033054592
    7    3    7    3        0.0321103269
    7    3    4    4        0.0076215033
    7    3    6    4        0.0075464504
    7    3    5    5        0.0018950258
    7    3    6    6        0.0084016226
    8    3    2    1       -0.0064337725
    8    3    4    1        0.0241688202
    8    3    6    1        0.0193394380
    8    3    8    1       -0.0091735307
    8    3    3    2       -0.0305761435
    8    3    5    2        0.0032026498
    8    3    7    2       -0.0128408886
    8    3    4    3        0.0072825669
    8    3    6    3       -0.0046099226
    8    3    8    3        0.0243251209
    8    3    5    4        0.0125246270
    8    3    7    4        0.0073412479
    8    3    6    5       -0.0033220754
    8    3    7    6        0.0146572841
    4    4    1    1        0.2463894615
    4    4    3    1       -0.0212285835
    4    4    2    2        0.2247587451
    4    4    4    2        0.0255753453
    4    4    3    3        0.2189092639
    4    4    4    4        0.2378129882
    5    4    2    1       -0.0517338577
    5    4    4    1       -0.0052324971
    5    4    3    2       -0.0474552840
    5    4    5    2        0.0105273579
    5    4    4    3        0.0476400798
    5    4    5    4        0.0518356883
    6    4    1    1        0.0536770826
    6    4    3    1       -0.0401650713
    6    4    5    1        0.0058392732
    6    4    2    2        0.0114261785
    6    4    4    2        0.0388437585
    6    4    6    2       -0.0082356071
    6    4    3    3        0.0080540120
    6    4    5    3       -0.0416740021
    6    4    4    4        0.0211529073
    6    4    6    4        0.0433242028
    6    4    5    5        0.0150736153
    7    4    2    1       -0.0422108604
    7    4    4    1       -0.0298839907
    7    4    6    1        0.0110150571
    7    4    3    2       -0.0099750070
    7    4    5    2        0.0363060103
    7    4    7    2        0.0004237719
    7    4    4    3        0.0137976238
    7    4    6    3        0.0274305868
    7    4    5    4        0.0145726268
    7    4    7    4        0.0368350236
    7    4    6    5       -0.0087505358
    8    4    1    1       -0.0066682746
    8    4    3    1        0.0347563047
    8    4    5    1       -0.0330148599
    8    4    7    1       -0.0106358628
    8    4    2    2        0.0305574610
    8    4    4    2       -0.0119148650
    8    4    6    2       -0.0208997690
    8    4    8    2        0.0089166596
    8    4    3    3        0.0080651131
    8    4    5    3        0.0167434133
    8    4    7    3        0.0220412634
    8    4    4    4        0.0072355171
    8    4    6    4       -0.0151267164
    8    4    8    4        0.0333578619
    8    4    5    5        0.0067608651
    8    4    7    5       -0.0069920170
    8    4    6    6        0.0051332499
    8    4    7    7        0.0127044176
    5    5    1    1        0.2393248034
    5    5    3    1       -0.0193448262
    5    5    5    1       -0.0023937561
    5    5    2    2        0.2189079853
    5    5    4    2        0.0227314448
    5    5    3    3        0.2124273975
    5    5    5    3       -0.0185240429
    5    5    4    4        0.2223026903
    5    5    5    5        0.2249094899
    6    5    2    1        0.0713905653
    6    5    4    1        0.0086448266
    6    5    6    1        0.0005575534
    6    5    3    2        0.0648690566
    6    5    5    2       -0.0072792315
    6    5    4    3       -0.0714874035
    6    5    6    3       -0.0019402029
    6    5    5    4       -0.0459399075
    6    5    6    5        0.0719424721
    7    5    1    1        0.0629484539
    7    5    3    1       -0.0474541688
    7    5    5    1        0.0006956063
    7    5    7    1       -0.0048804474
    7    5    2    2        0.0135279766
    7    5    4    2        0.0509842419
    7    5    6    2       -0.0003231938
    7    5    3    3        0.0049367357
    7    5    5    3       -0.0368072428
    7    5    7    3       -0.0024131508
    7    5    4    4        0.0315844804
    7    5    6    4        0.0353101844
    7    5    5    5        0.0300374061
    7    5    7    5        0.0495655349
    7    5    6    6       -0.0003048544
    8    5    2    1       -0.0440060667
    8    5    4    1       -0.0408875027
    8    5    6    1       -0.0066079246
    8    5    8    1        0.0030124893
    8    5    3    2       -0.0020993917
    8    5    5    2        0.0249748446
    8    5    7    2        0.0089442736
    8    5    4    3        0.0236630513
    8    5    6    3        0.0232736849
    8    5    8    3       -0.0081433117
    8    5    5    4        0.0135909843
    8    5    7    4        0.0250433872
    8    5    6    5       -0.0198677973
    8    5    8    5        0.0372460546
    8    5    7    6       -0.0004845363
    6    6    1    1        0.2056368221
    6    6    3    1        0.0056218225
    6    6    5    1        0.0003755451
    6    6    2    2        0.2111027464
    6    6    4    2       -0.0065850362
    6    6    6    2       -0.0071043460
    6    6    3    3        0.2117497953
    6    6    5    3       -0.0030941467
    6    6    4    4        0.2036655964
    6    6    6    4        0.0037413631
    6    6    5    5        0.2021879738
    6    6    6    6        0.2042113104
    7    6    2    1       -0.0541551970
    7    6    4    1        0.0113481081
    7    6    6    1        0.0096200764
    7    6    3    2       -0.0674924298
    7    6    5    2        0.0029409363
    7    6    7    2       -0.0083780964
    7    6    4    3        0.0585290941
    7    6    6    3       -0.0047615618
    7    6    5    4        0.0415873647
    7    6    7    4        0.0063581702
    7    6    6    5       -0.0578936740
    7    6    7    6        0.0618004376
    8    6    1    1       -0.0612042031
    8    6    3    1        0.0431889036
    8    6    5    1       -0.0121383402
    8    6    7    1       -0.0020859104
    8    6    2    2       -0.0158415565
    8    6    4    2       -0.0375168445
    8    6    6    2       -0.0059990978
    8    6    8    2        0.0022202371
    8    6    3    3       -0.0179699363
    8    6    5    3        0.0312536259
    8    6    7    3        0.0070516178
    8    6    4    4       -0.0350809609
    8    6    6    4       -0.0307304794
    8    6    8    4        0.0147533150
    8    6    5    5       -0.0325664616
    8    6    7    5       -0.0375546336
    8    6    6    6       -0.0118529132
    8    6    8    6        0.0395721886
    8    6    7    7       -0.0115521701
    7    7    1    1        0.2110666341
    7    7    3    1        0.0000516158
    7    7    5    1       -0.0103925189
    7    7    7    1        0.0013067941
    7    7    2    2        0.2111461471
    7    7    4    2        0.0077667490
    7    7    6    2       -0.0129359845
    7    7    3    3        0.2015457386
    7    7    5    3       -0.0093284860
    7    7    7    3        0.0139376226
    7    7    4    4        0.2036815481
    7    7    6    4        0.0103081974
    7    7    5    5        0.2012438266
    7    7    7    5        0.0131136321
    7    7    6    6        0.1935771222
    7    7    7    7        0.1967719721
    8    7    2    1       -0.0653166876
    8    7    4    1       -0.0192326000
    8    7    6    1        0.0010238804
    8    7    8    1        0.0009255415
    8    7    3    2       -0.0469223183
    8    7    5    2        0.0172443463
    8    7    7    2        0.0022066297
    8    7    4    3        0.0559050629
    8    7    6    3        0.0100995343
    8    7    8    3        0.0018395793
    8    7    5    4        0.0383620534
    8    7    7    4        0.0190130626
    8    7    6    5       -0.0543616406
    8    7    8    5        0.0206348610
    8    7    7    6        0.0461149467
    8    7    8    7        0.0534278685
    8    8    1    1        0.2300660347
    8    8    3    1       -0.0305977459
    8    8    5    1        0.0058564596
    8    8    7    1        0.0031548246
    8    8    2    2        0.1978596695
    8    8    4    2        0.0285784055
    8    8    6    2       -0.0005229778
    8    8    8    2       -0.0059858048
    8    8    3    3        0.1967535775
    8    8    5    3       -0.0259327175
    8    8    7    3        0.0012263321
    8    8    4    4        0.2087110279
    8    8    6    4        0.0267498430
    8    8    8    4       -0.0056720490
    8    8    5    5        0.2047523488
    8    8    7    5        0.0317431911
    8    8    6    6        0.1878272924
    8    8    8    6       -0.0332926524
    8    8    7    7        0.1885441260
    8    8    8    8        0.2014202645
 end_two_electron_integrals
 enrep_tce =    5.20562770562771     
  EHF(A)             =        -4.09045674
  EHF(total)         =        -4.09045674
  Shift (HFtot-HFA)  =         0.00000000
 Cpu & wall time / sec           16.9           16.9
 T1-number-of-tasks                    16
 
 t1 file size   =               16
 t1 file name   = ./H8.t1
 t1 file handle =       -998
 T2-number-of-boxes                   356
 
 t2 file size   =              356
 t2 file name   = ./H8.t2
 t2 file handle =       -996
CCSD iterations
 ---------------------------------------------------------
 Iter          Residuum       Correlation     Cpu    Wall 
 ---------------------------------------------------------
NEW TASK SCHEDULING
CCSD_T1_NTS --- OK
CCSD_T2_NTS --- OK
    1   0.0965552662152  -0.0615421488042     1.7     1.7
    2   0.0475546478100  -0.0826359907550     1.7     1.7
    3   0.0273918367901  -0.0916522824462     1.7     1.7
    4   0.0174889874773  -0.0959531933363     1.6     1.6
    5   0.0120306033813  -0.0982791563940     1.7     1.7
 MICROCYCLE DIIS UPDATE:                     5                     5
    6   0.0032445806510  -0.1019115358354     1.7     1.7
    7   0.0020824223844  -0.1021273030226     1.7     1.7
    8   0.0015834326112  -0.1021755079113     1.7     1.7
    9   0.0012299254268  -0.1022114306143     1.7     1.7
   10   0.0009592324311  -0.1022438664016     1.7     1.7
 MICROCYCLE DIIS UPDATE:                    10                     5
   11   0.0002785685496  -0.1023326199405     1.7     1.7
   12   0.0001502259743  -0.1023752064204     1.6     1.6
   13   0.0000952519093  -0.1023969896225     1.6     1.6
   14   0.0000651422190  -0.1024077509545     1.5     1.5
   15   0.0000465153441  -0.1024144662859     1.6     1.6
 MICROCYCLE DIIS UPDATE:                    15                     5
   16   0.0000158429680  -0.1024268358411     1.6     1.6
   17   0.0000110210688  -0.1024273217808     1.6     1.6
   18   0.0000084579195  -0.1024274929370     1.6     1.6
   19   0.0000066362419  -0.1024276446188     1.6     1.6
   20   0.0000051993893  -0.1024278214991     1.6     1.6
 MICROCYCLE DIIS UPDATE:                    20                     5
   21   0.0000014607784  -0.1024284477368     1.6     1.6
   22   0.0000007421460  -0.1024286413292     1.6     1.6
   23   0.0000004667610  -0.1024287331601     1.6     1.6
   24   0.0000003273988  -0.1024287754398     1.6     1.6
   25   0.0000002381697  -0.1024288034286     1.6     1.6
 MICROCYCLE DIIS UPDATE:                    25                     5
   26   0.0000000851560  -0.1024288594816     1.6     1.6
   27   0.0000000594161  -0.1024288620359     1.6     1.6
   28   0.0000000448545  -0.1024288628280     1.6     1.6
   29   0.0000000349220  -0.1024288635608     1.6     1.6
   30   0.0000000272209  -0.1024288644666     1.6     1.6
 MICROCYCLE DIIS UPDATE:                    30                     5
   31   0.0000000064269  -0.1024288682482     1.6     1.6
 -----------------------------------------------------------------
 Iterations converged
 CCSD correlation energy / hartree =        -0.102428868248237
 CCSD total energy / hartree       =        -4.192885607907479

 Singles contributions
     6a   (alpha) ---     4a   (alpha)       -0.0349014594
     7a   (alpha) ---     3a   (alpha)       -0.0216907614

 Doubles contributions
     5a   (alpha)     6a   (alpha) ---     2a   (alpha)     3a   (alpha)       -0.0230980443
     5a   (alpha)     6a   (alpha) ---     3a   (alpha)     4a   (alpha)        0.0524978633
     5a   (alpha)     7a   (alpha) ---     2a   (alpha)     4a   (alpha)       -0.0381224677
     5a   (alpha)     8a   (alpha) ---     1a   (alpha)     4a   (alpha)        0.0300926799
     5a   (alpha)     5a   (beta ) ---     1a   (alpha)     1a   (beta )       -0.0408867039
     5a   (alpha)     5a   (beta ) ---     2a   (alpha)     2a   (beta )       -0.0502352423
     5a   (alpha)     5a   (beta ) ---     2a   (alpha)     4a   (beta )       -0.0227109597
     5a   (alpha)     5a   (beta ) ---     3a   (alpha)     3a   (beta )       -0.0832703324
     5a   (alpha)     5a   (beta ) ---     4a   (alpha)     2a   (beta )       -0.0227109597
     5a   (alpha)     5a   (beta ) ---     4a   (alpha)     4a   (beta )       -0.2620645097
     5a   (alpha)     6a   (beta ) ---     1a   (alpha)     2a   (beta )       -0.0292645800
     5a   (alpha)     6a   (beta ) ---     2a   (alpha)     3a   (beta )       -0.0417499934
     5a   (alpha)     6a   (beta ) ---     3a   (alpha)     4a   (beta )        0.1205522368
     5a   (alpha)     6a   (beta ) ---     4a   (alpha)     3a   (beta )        0.0680543735
     5a   (alpha)     7a   (beta ) ---     1a   (alpha)     3a   (beta )        0.0347275520
     5a   (alpha)     7a   (beta ) ---     2a   (alpha)     4a   (beta )       -0.0810505371
     5a   (alpha)     7a   (beta ) ---     4a   (alpha)     2a   (beta )       -0.0429280693
     5a   (alpha)     7a   (beta ) ---     4a   (alpha)     4a   (beta )       -0.0278828454
     5a   (alpha)     8a   (beta ) ---     1a   (alpha)     2a   (beta )        0.0218189259
     5a   (alpha)     8a   (beta ) ---     1a   (alpha)     4a   (beta )        0.0650859592
     5a   (alpha)     8a   (beta ) ---     3a   (alpha)     4a   (beta )       -0.0273952690
     5a   (alpha)     8a   (beta ) ---     4a   (alpha)     1a   (beta )        0.0349932793
     5a   (alpha)     8a   (beta ) ---     4a   (alpha)     3a   (beta )       -0.0208759818
     6a   (alpha)     7a   (alpha) ---     2a   (alpha)     3a   (alpha)        0.0204235849
     6a   (alpha)     7a   (alpha) ---     3a   (alpha)     4a   (alpha)       -0.0223311048
     6a   (alpha)     5a   (beta ) ---     2a   (alpha)     1a   (beta )       -0.0292645800
     6a   (alpha)     5a   (beta ) ---     3a   (alpha)     2a   (beta )       -0.0417499934
     6a   (alpha)     5a   (beta ) ---     3a   (alpha)     4a   (beta )        0.0680543735
     6a   (alpha)     5a   (beta ) ---     4a   (alpha)     3a   (beta )        0.1205522368
     6a   (alpha)     6a   (beta ) ---     1a   (alpha)     1a   (beta )       -0.0297923518
     6a   (alpha)     6a   (beta ) ---     2a   (alpha)     2a   (beta )       -0.0441029783
     6a   (alpha)     6a   (beta ) ---     2a   (alpha)     4a   (beta )        0.0255375231
     6a   (alpha)     6a   (beta ) ---     3a   (alpha)     3a   (beta )       -0.0935538346
     6a   (alpha)     6a   (beta ) ---     4a   (alpha)     2a   (beta )        0.0255375231
     6a   (alpha)     6a   (beta ) ---     4a   (alpha)     4a   (beta )       -0.0678445151
     6a   (alpha)     7a   (beta ) ---     1a   (alpha)     4a   (beta )       -0.0211366145
     6a   (alpha)     7a   (beta ) ---     2a   (alpha)     3a   (beta )        0.0514203022
     6a   (alpha)     7a   (beta ) ---     3a   (alpha)     2a   (beta )        0.0309967173
     6a   (alpha)     7a   (beta ) ---     3a   (alpha)     4a   (beta )       -0.0320051078
     6a   (alpha)     8a   (beta ) ---     1a   (alpha)     3a   (beta )       -0.0335392923
     6a   (alpha)     8a   (beta ) ---     2a   (alpha)     4a   (beta )        0.0222285709
     7a   (alpha)     5a   (beta ) ---     2a   (alpha)     4a   (beta )       -0.0429280693
     7a   (alpha)     5a   (beta ) ---     3a   (alpha)     1a   (beta )        0.0347275520
     7a   (alpha)     5a   (beta ) ---     4a   (alpha)     2a   (beta )       -0.0810505371
     7a   (alpha)     5a   (beta ) ---     4a   (alpha)     4a   (beta )       -0.0278828454
     7a   (alpha)     6a   (beta ) ---     2a   (alpha)     3a   (beta )        0.0309967173
     7a   (alpha)     6a   (beta ) ---     3a   (alpha)     2a   (beta )        0.0514203022
     7a   (alpha)     6a   (beta ) ---     4a   (alpha)     1a   (beta )       -0.0211366145
     7a   (alpha)     6a   (beta ) ---     4a   (alpha)     3a   (beta )       -0.0320051078
     7a   (alpha)     7a   (beta ) ---     1a   (alpha)     1a   (beta )       -0.0268459662
     7a   (alpha)     7a   (beta ) ---     2a   (alpha)     2a   (beta )       -0.0460120042
     7a   (alpha)     7a   (beta ) ---     3a   (alpha)     3a   (beta )       -0.0315947800
     7a   (alpha)     7a   (beta ) ---     4a   (alpha)     4a   (beta )       -0.0331359370
     7a   (alpha)     8a   (beta ) ---     1a   (alpha)     2a   (beta )        0.0255638581
     8a   (alpha)     5a   (beta ) ---     1a   (alpha)     4a   (beta )        0.0349932793
     8a   (alpha)     5a   (beta ) ---     2a   (alpha)     1a   (beta )        0.0218189259
     8a   (alpha)     5a   (beta ) ---     3a   (alpha)     4a   (beta )       -0.0208759818
     8a   (alpha)     5a   (beta ) ---     4a   (alpha)     1a   (beta )        0.0650859592
     8a   (alpha)     5a   (beta ) ---     4a   (alpha)     3a   (beta )       -0.0273952690
     8a   (alpha)     6a   (beta ) ---     3a   (alpha)     1a   (beta )       -0.0335392923
     8a   (alpha)     6a   (beta ) ---     4a   (alpha)     2a   (beta )        0.0222285709
     8a   (alpha)     7a   (beta ) ---     2a   (alpha)     1a   (beta )        0.0255638581
     8a   (alpha)     8a   (beta ) ---     1a   (alpha)     1a   (beta )       -0.0324925369
     8a   (alpha)     8a   (beta ) ---     4a   (alpha)     4a   (beta )       -0.0204547025
 Ground state specification:
 exp(T)|Ref>~(1+T)|Ref>
 ------- a(p)+/a(q) strings ----------

 singles norm

 doubles norm

 Reference string
  0.954442049646608      :(1a)+ (2a)+ (3a)+ (4a)+ (1b)+ (2b)+ (3b)+ (4b)+ |0>

 Singles strings

 Doubles strings
 -0.250125387744029      :(5a)+ (5b)+ (4b)  (4a)  (1a)+ (2a)+ (3a)+ (4a)+ (1b)+ 
 (2b)+ (3b)+ (4b)+ |0>
  0.115060124005409      :(5a)+ (6b)+ (4b)  (3a)  (1a)+ (2a)+ (3a)+ (4a)+ (1b)+ 
 (2b)+ (3b)+ (4b)+ |0>
  0.115060124005409      :(6a)+ (5b)+ (3b)  (4a)  (1a)+ (2a)+ (3a)+ (4a)+ (1b)+ 
 (2b)+ (3b)+ (4b)+ |0>
 -------------------------------------

 Task  times  cpu:       72.6s     wall:       72.6s
 
 
                                NWChem Input Module
                                -------------------
 
 
 Summary of allocated global arrays
-----------------------------------
  No active global arrays


MA_summarize_allocated_blocks: starting scan ...
MA_summarize_allocated_blocks: scan completed: 0 heap blocks, 0 stack blocks
MA usage statistics:

	allocation statistics:
					      heap	     stack
					      ----	     -----
	current number of blocks	         0	         0
	maximum number of blocks	        16	        42
	current total bytes		         0	         0
	maximum total bytes		     80104	  33006664
	maximum total K-bytes		        81	     33007
	maximum total M-bytes		         1	        34
 
 
                                     CITATION
                                     --------
                Please cite the following reference when publishing
                           results obtained with NWChem:
 
          E. Apra, E. J. Bylaska, W. A. de Jong, N. Govind, K. Kowalski,
       T. P. Straatsma, M. Valiev, H. J. J. van Dam, Y. Alexeev, J. Anchell,
       V. Anisimov, F. W. Aquino, R. Atta-Fynn, J. Autschbach, N. P. Bauman,
     J. C. Becca, D. E. Bernholdt, K. Bhaskaran-Nair, S. Bogatko, P. Borowski,
         J. Boschen, J. Brabec, A. Bruner, E. Cauet, Y. Chen, G. N. Chuev,
      C. J. Cramer, J. Daily, M. J. O. Deegan, T. H. Dunning Jr., M. Dupuis,
   K. G. Dyall, G. I. Fann, S. A. Fischer, A. Fonari, H. Fruchtl, L. Gagliardi,
      J. Garza, N. Gawande, S. Ghosh, K. Glaesemann, A. W. Gotz, J. Hammond,
       V. Helms, E. D. Hermes, K. Hirao, S. Hirata, M. Jacquelin, L. Jensen,
   B. G. Johnson, H. Jonsson, R. A. Kendall, M. Klemm, R. Kobayashi, V. Konkov,
      S. Krishnamoorthy, M. Krishnan, Z. Lin, R. D. Lins, R. J. Littlefield,
      A. J. Logsdail, K. Lopata, W. Ma, A. V. Marenich, J. Martin del Campo,
   D. Mejia-Rodriguez, J. E. Moore, J. M. Mullin, T. Nakajima, D. R. Nascimento,
    J. A. Nichols, P. J. Nichols, J. Nieplocha, A. Otero-de-la-Roza, B. Palmer,
    A. Panyala, T. Pirojsirikul, B. Peng, R. Peverati, J. Pittner, L. Pollack,
   R. M. Richard, P. Sadayappan, G. C. Schatz, W. A. Shelton, D. W. Silverstein,
   D. M. A. Smith, T. A. Soares, D. Song, M. Swart, H. L. Taylor, G. S. Thomas,
            V. Tipparaju, D. G. Truhlar, K. Tsemekhman, T. Van Voorhis,
      A. Vazquez-Mayagoitia, P. Verma, O. Villa, A. Vishnu, K. D. Vogiatzis,
        D. Wang, J. H. Weare, M. J. Williamson, T. L. Windus, K. Wolinski,
        A. T. Wong, Q. Wu, C. Yang, Q. Yu, M. Zacharias, Z. Zhang, Y. Zhao,
                                and R. J. Harrison
                        "NWChem: Past, present, and future
                         J. Chem. Phys. 152, 184102 (2020)
                               doi:10.1063/5.0004997
 
                                      AUTHORS
                                      -------
  E. Apra, E. J. Bylaska, N. Govind, K. Kowalski, M. Valiev, D. Mejia-Rodriguez,
       A. Kunitsa, N. P. Bauman, A. Panyala, W. A. de Jong, T. P. Straatsma,
   H. J. J. van Dam, D. Wang, T. L. Windus, J. Hammond, J. Autschbach, A. Woods,
    K. Bhaskaran-Nair, J. Brabec, K. Lopata, S. A. Fischer, S. Krishnamoorthy,
     M. Jacquelin, W. Ma, M. Klemm, O. Villa, Y. Chen, V. Anisimov, F. Aquino,
     S. Hirata, M. T. Hackler, E. Hermes, L. Jensen, J. E. Moore, J. C. Becca,
      V. Konjkov, T. Risthaus, M. Malagoli, A. Marenich, A. Otero-de-la-Roza,
        J. Mullin, P. Nichols, R. Peverati, J. Pittner, Y. Zhao, P.-D. Fan,
        A. Fonari, M. J. Williamson, R. J. Harrison, J. R. Rehr, M. Dupuis,
     D. Silverstein, D. M. A. Smith, J. Nieplocha, V. Tipparaju, M. Krishnan,
     B. E. Van Kuiken, A. Vazquez-Mayagoitia, M. Swart, Q. Wu, T. Van Voorhis,
     A. A. Auer, M. Nooijen, L. D. Crosby, E. Brown, G. Cisneros, G. I. Fann,
   H. Fruchtl, J. Garza, K. Hirao, R. A. Kendall, J. A. Nichols, K. Tsemekhman,
    K. Wolinski, J. Anchell, D. E. Bernholdt, P. Borowski, T. Clark, D. Clerc,
   H. Dachsel, M. J. O. Deegan, K. Dyall, D. Elwood, E. Glendening, M. Gutowski,
   A. C. Hess, J. Jaffe, B. G. Johnson, J. Ju, R. Kobayashi, R. Kutteh, Z. Lin,
   R. Littlefield, X. Long, B. Meng, T. Nakajima, S. Niu, L. Pollack, M. Rosing,
   K. Glaesemann, G. Sandrone, M. Stave, H. Taylor, G. Thomas, J. H. van Lenthe,
                               A. T. Wong, Z. Zhang.

 Total times  cpu:       74.3s     wall:       74.3s
