 argument  1 = input.nw
  NWChem w/ OpenMP: maximum threads =    1
 


============================== echo of input deck ==============================

echo
start H8
title "H8"

memory total 120 gb

geometry units bohr
symmetry c1
H 0 0 0
H 0 0 2.83
H 0 0 5.66
H 0 0 8.49
H 0 0 11.32
H 0 0 14.15
H 0 0 16.98
H 0 0 19.81
end

basis spherical
  * library cc-pVTZ
end

scf
thresh 1e-8
end

tce
  2eorb
  2emet 13
  ccsd
  thresh 1e-8
  maxiter 300
end

set tce:print_integrals T
set tce:qorb 8
set tce:qela 4
set tce:qelb 4

# set tce:qducc T
# set tce:nactv 4
# set tce:nonhf T
# set tce:ducc_model 6

set tce:printtol 0.02

task tce
================================================================================


                                         
                                         
 
 
             Northwest Computational Chemistry Package (NWChem) 7.2.3
             --------------------------------------------------------
 
 
                    Environmental Molecular Sciences Laboratory
                       Pacific Northwest National Laboratory
                                Richland, WA 99352
 
                              Copyright (c) 1994-2022
                       Pacific Northwest National Laboratory
                            Battelle Memorial Institute
 
             NWChem is an open-source computational chemistry package
                        distributed under the terms of the
                      Educational Community License (ECL) 2.0
             A copy of the license is included with this distribution
                              in the LICENSE.TXT file
 
                                  ACKNOWLEDGMENT
                                  --------------

            This software and its documentation were developed at the
            EMSL at Pacific Northwest National Laboratory, a multiprogram
            national laboratory, operated for the U.S. Department of Energy
            by Battelle under Contract Number DE-AC05-76RL01830. Support
            for this work was provided by the Department of Energy Office
            of Biological and Environmental Research, Office of Basic
            Energy Sciences, and the Office of Advanced Scientific Computing.


           Job information
           ---------------

    hostname        = koothan
    program         = /hpc/home/baum612/code/nwchem/bin/LINUX64/nwchem
    date            = Fri Nov 15 11:08:18 2024

    compiled        = Wed_Nov_13_16:23:19_2024
    source          = /hpc/home/baum612/code/nwchem
    nwchem branch   = 7.2.3
    nwchem revision = v7.2.0-beta1-1280-g0779ca2e41
    ga revision     = 5.8.0
    use scalapack   = T
    input           = input.nw
    prefix          = H8.
    data base       = ./H8.db
    status          = startup
    nproc           =        1
    time left       =     -1s



           Memory information
           ------------------

    heap     =   4026531840 doubles =    30720.0 Mbytes
    stack    =   4026531837 doubles =    30720.0 Mbytes
    global   =   8053063680 doubles =    61440.0 Mbytes (distinct from heap & stack)
    total    =  16106127357 doubles =   122880.0 Mbytes
    verify   = yes
    hardfail = no 


           Directory information
           ---------------------
 
  0 permanent = .
  0 scratch   = .
 
 
 
 
                                NWChem Input Module
                                -------------------
 
 
                                        H8
                                        --
 Turning off AUTOSYM since
 SYMMETRY directive was detected!
 

          ------
          auto-z
          ------
     1 autoz failed with cvr_scaling = 1.2 changing to 1.3
     2 autoz failed with cvr_scaling = 1.3 changing to 1.4
     3 autoz failed with cvr_scaling = 1.4 changing to 1.5
     4 autoz failed with cvr_scaling = 1.5 changing to 1.6
     5 autoz failed with cvr_scaling = 1.6 changing to 1.7

 AUTOZ failed to generate good internal coordinates.
 Cartesian coordinates will be used in optimizations.

 
 
                             Geometry "geometry" -> ""
                             -------------------------
 
 Output coordinates in a.u. (scale by  1.000000000 to convert to a.u.)
 
  No.       Tag          Charge          X              Y              Z
 ---- ---------------- ---------- -------------- -------------- --------------
    1 H                    1.0000     0.00000000     0.00000000    -9.90500000
    2 H                    1.0000     0.00000000     0.00000000    -7.07500000
    3 H                    1.0000     0.00000000     0.00000000    -4.24500000
    4 H                    1.0000     0.00000000     0.00000000    -1.41500000
    5 H                    1.0000     0.00000000     0.00000000     1.41500000
    6 H                    1.0000     0.00000000     0.00000000     4.24500000
    7 H                    1.0000     0.00000000     0.00000000     7.07500000
    8 H                    1.0000     0.00000000     0.00000000     9.90500000
 
      Atomic Mass 
      ----------- 
 
      H                  1.007825
 

 Effective nuclear repulsion energy (a.u.)       4.8561332660

            Nuclear Dipole moment (a.u.) 
            ----------------------------
        X                 Y               Z
 ---------------- ---------------- ----------------
     0.0000000000     0.0000000000    -0.0000000000
 
 
            XYZ format geometry
            -------------------
     8
 geometry
 H                     0.00000000     0.00000000    -5.24150065
 H                     0.00000000     0.00000000    -3.74392904
 H                     0.00000000     0.00000000    -2.24635742
 H                     0.00000000     0.00000000    -0.74878581
 H                     0.00000000     0.00000000     0.74878581
 H                     0.00000000     0.00000000     2.24635742
 H                     0.00000000     0.00000000     3.74392904
 H                     0.00000000     0.00000000     5.24150065
 


 Summary of "ao basis" -> "" (spherical)
 ------------------------------------------------------------------------------
       Tag                 Description            Shells   Functions and Types
 ---------------- ------------------------------  ------  ---------------------
 *                          cc-pVTZ                   on all atoms 


                      Basis "ao basis" -> "ao basis" (spherical)
                      -----
  H (Hydrogen)
  ------------
            Exponent  Coefficients 
       -------------- ---------------------------------------------------------
  1 S  3.38700000E+01  0.006068
  1 S  5.09500000E+00  0.045308
  1 S  1.15900000E+00  0.202822
 
  2 S  3.25800000E-01  1.000000
 
  3 S  1.02700000E-01  1.000000
 
  4 P  1.40700000E+00  1.000000
 
  5 P  3.88000000E-01  1.000000
 
  6 D  1.05700000E+00  1.000000
 


 Summary of "ao basis" -> "ao basis" (spherical)
 ------------------------------------------------------------------------------
       Tag                 Description            Shells   Functions and Types
 ---------------- ------------------------------  ------  ---------------------
 H                          cc-pVTZ                  6       14   3s2p1d


                                 NWChem SCF Module
                                 -----------------
 
 
                                        H8
 
 

  ao basis        = "ao basis"
  functions       =   112
  atoms           =     8
  closed shells   =     4
  open shells     =     0
  charge          =   0.00
  wavefunction    = RHF 
  input vectors   = atomic
  output vectors  = ./H8.movecs
  use symmetry    = F
  symmetry adapt  = F


 Summary of "ao basis" -> "ao basis" (spherical)
 ------------------------------------------------------------------------------
       Tag                 Description            Shells   Functions and Types
 ---------------- ------------------------------  ------  ---------------------
 H                          cc-pVTZ                  6       14   3s2p1d



 Forming initial guess at       0.5s

 
      Superposition of Atomic Density Guess
      -------------------------------------
 
 Sum of atomic energies:          -3.99847357
 
      Non-variational initial energy
      ------------------------------

 Total energy =      -3.065670
 1-e energy   =     -13.645146
 2-e energy   =       5.723343
 HOMO         =      -0.250284
 LUMO         =      -0.142554
 

 Starting SCF solution at       0.5s



 ----------------------------------------------
         Quadratically convergent ROHF

 Convergence threshold     :          1.000E-08
 Maximum no. of iterations :           30
 Final Fock-matrix accuracy:          1.000E-10
 ----------------------------------------------


              iter       energy          gnorm     gmax       time
             ----- ------------------- --------- --------- --------
                 1       -4.0059979204  1.95D-01  9.62D-02      0.7
                 2       -4.0212802988  2.52D-02  1.64D-02      1.3
                 3       -4.0216171765  4.58D-04  2.50D-04      1.9
                 4       -4.0216172671  1.80D-07  1.25D-07      2.8
                 5       -4.0216172671  4.54D-10  2.83D-10      3.5


       Final RHF  results 
       ------------------ 

         Total SCF energy =     -4.021617267093
      One-electron energy =    -14.085915772913
      Two-electron energy =      5.208165239793
 Nuclear repulsion energy =      4.856133266027

        Time for solution =      2.9s


             Final eigenvalues
             -----------------

              1      
    1   -0.5385
    2   -0.4999
    3   -0.4378
    4   -0.3586
    5   -0.0812
    6    0.0224
    7    0.1312
    8    0.2421
    9    0.3501
   10    0.3692
   11    0.3907
   12    0.4244
   13    0.4685
   14    0.5316
 
                       ROHF Final Molecular Orbital Analysis
                       -------------------------------------
 
 Vector    1  Occ=2.000000D+00  E=-5.384539D-01
              MO Center=  3.0D-18,  2.5D-17,  3.4D-11, r^2= 6.6D+00
   Bfn.  Coefficient  Atom+Function         Bfn.  Coefficient  Atom+Function  
  ----- ------------  ---------------      ----- ------------  ---------------
    44      0.178897  4 H  s                 58      0.178897  5 H  s          
    30      0.160719  3 H  s                 72      0.160719  6 H  s          
 
 Vector    2  Occ=2.000000D+00  E=-4.999212D-01
              MO Center=  2.7D-17,  5.6D-18, -2.5D-11, r^2= 1.4D+01
   Bfn.  Coefficient  Atom+Function         Bfn.  Coefficient  Atom+Function  
  ----- ------------  ---------------      ----- ------------  ---------------
    16      0.173008  2 H  s                 86     -0.173008  7 H  s          
 
 Vector    3  Occ=2.000000D+00  E=-4.377724D-01
              MO Center=  2.1D-16, -3.7D-16,  6.3D-12, r^2= 1.6D+01
   Bfn.  Coefficient  Atom+Function         Bfn.  Coefficient  Atom+Function  
  ----- ------------  ---------------      ----- ------------  ---------------
    17      0.178256  2 H  s                 87      0.178256  7 H  s          
     2      0.168861  1 H  s                100      0.168861  8 H  s          
    16      0.161775  2 H  s                 86      0.161775  7 H  s          
     3      0.152289  1 H  s                101      0.152289  8 H  s          
 
 Vector    4  Occ=2.000000D+00  E=-3.586451D-01
              MO Center= -2.5D-16,  3.9D-17, -1.5D-11, r^2= 1.3D+01
   Bfn.  Coefficient  Atom+Function         Bfn.  Coefficient  Atom+Function  
  ----- ------------  ---------------      ----- ------------  ---------------
    31      0.213356  3 H  s                 73     -0.213356  6 H  s          
    45      0.176656  4 H  s                 59     -0.176656  5 H  s          
    30      0.169083  3 H  s                 72     -0.169083  6 H  s          
     3     -0.166418  1 H  s                101      0.166418  8 H  s          
     2     -0.151298  1 H  s                100      0.151298  8 H  s          
 
 Vector    5  Occ=0.000000D+00  E=-8.119475D-02
              MO Center=  1.2D-17,  9.4D-18,  3.2D-11, r^2= 1.4D+01
   Bfn.  Coefficient  Atom+Function         Bfn.  Coefficient  Atom+Function  
  ----- ------------  ---------------      ----- ------------  ---------------
     3      0.326428  1 H  s                101      0.326428  8 H  s          
    31     -0.305850  3 H  s                 73     -0.305850  6 H  s          
    45      0.243727  4 H  s                 59      0.243727  5 H  s          
    30     -0.163630  3 H  s                 72     -0.163630  6 H  s          
 
 Vector    6  Occ=0.000000D+00  E= 2.240045D-02
              MO Center= -1.3D-17,  8.5D-17, -6.7D-11, r^2= 1.9D+01
   Bfn.  Coefficient  Atom+Function         Bfn.  Coefficient  Atom+Function  
  ----- ------------  ---------------      ----- ------------  ---------------
     3      0.546870  1 H  s                101     -0.546870  8 H  s          
    17     -0.517819  2 H  s                 87      0.517819  7 H  s          
    45      0.356819  4 H  s                 59     -0.356819  5 H  s          
    44      0.157939  4 H  s                 58     -0.157939  5 H  s          
    16     -0.150084  2 H  s                 86      0.150084  7 H  s          
 
 Vector    7  Occ=0.000000D+00  E= 1.311621D-01
              MO Center= -5.1D-18,  6.1D-18, -5.4D-11, r^2= 1.8D+01
   Bfn.  Coefficient  Atom+Function         Bfn.  Coefficient  Atom+Function  
  ----- ------------  ---------------      ----- ------------  ---------------
    17      0.899571  2 H  s                 87      0.899571  7 H  s          
    31     -0.761357  3 H  s                 73     -0.761357  6 H  s          
     3     -0.690060  1 H  s                101     -0.690060  8 H  s          
    45      0.318763  4 H  s                 59      0.318763  5 H  s          
    16      0.174633  2 H  s                 86      0.174633  7 H  s          
 
 Vector    8  Occ=0.000000D+00  E= 2.421493D-01
              MO Center=  4.6D-17,  9.5D-17,  6.0D-11, r^2= 1.2D+01
   Bfn.  Coefficient  Atom+Function         Bfn.  Coefficient  Atom+Function  
  ----- ------------  ---------------      ----- ------------  ---------------
    45      1.417125  4 H  s                 59     -1.417125  5 H  s          
    31     -1.279792  3 H  s                 73      1.279792  6 H  s          
    17      0.969112  2 H  s                 87     -0.969112  7 H  s          
     3     -0.712338  1 H  s                101      0.712338  8 H  s          
    44      0.213119  4 H  s                 58     -0.213119  5 H  s          
 
 Vector    9  Occ=0.000000D+00  E= 3.501399D-01
              MO Center=  1.5D-16, -2.5D-17, -1.9D-10, r^2= 1.1D+01
   Bfn.  Coefficient  Atom+Function         Bfn.  Coefficient  Atom+Function  
  ----- ------------  ---------------      ----- ------------  ---------------
    44      0.578626  4 H  s                 58      0.578626  5 H  s          
    30      0.557954  3 H  s                 72      0.557954  6 H  s          
    45     -0.487691  4 H  s                 59     -0.487691  5 H  s          
    31     -0.470311  3 H  s                 73     -0.470311  6 H  s          
    16      0.386175  2 H  s                 86      0.386175  7 H  s          
 
 Vector   10  Occ=0.000000D+00  E= 3.692066D-01
              MO Center= -1.4D-16, -7.4D-18, -1.1D-10, r^2= 2.0D+01
   Bfn.  Coefficient  Atom+Function         Bfn.  Coefficient  Atom+Function  
  ----- ------------  ---------------      ----- ------------  ---------------
     2      0.642880  1 H  s                100     -0.642880  8 H  s          
     3     -0.579360  1 H  s                101      0.579360  8 H  s          
    30      0.552816  3 H  s                 72     -0.552816  6 H  s          
    16      0.459442  2 H  s                 86     -0.459442  7 H  s          
    17     -0.452762  2 H  s                 87      0.452762  7 H  s          
 
 Vector   11  Occ=0.000000D+00  E= 3.906994D-01
              MO Center= -3.0D-16,  2.5D-17, -9.4D-11, r^2= 2.3D+01
   Bfn.  Coefficient  Atom+Function         Bfn.  Coefficient  Atom+Function  
  ----- ------------  ---------------      ----- ------------  ---------------
     3      0.933404  1 H  s                101      0.933404  8 H  s          
     2     -0.793992  1 H  s                100     -0.793992  8 H  s          
    45     -0.541171  4 H  s                 59     -0.541171  5 H  s          
    44      0.526801  4 H  s                 58      0.526801  5 H  s          
 
 Vector   12  Occ=0.000000D+00  E= 4.243887D-01
              MO Center=  1.5D-16,  2.3D-17,  1.2D-10, r^2= 2.1D+01
   Bfn.  Coefficient  Atom+Function         Bfn.  Coefficient  Atom+Function  
  ----- ------------  ---------------      ----- ------------  ---------------
     3      1.027571  1 H  s                101     -1.027571  8 H  s          
     2     -0.691243  1 H  s                100      0.691243  8 H  s          
    17     -0.670256  2 H  s                 87      0.670256  7 H  s          
    45     -0.586133  4 H  s                 59      0.586133  5 H  s          
    44      0.418634  4 H  s                 58     -0.418634  5 H  s          
 
 Vector   13  Occ=0.000000D+00  E= 4.684716D-01
              MO Center= -6.1D-17, -1.3D-17,  2.7D-11, r^2= 1.7D+01
   Bfn.  Coefficient  Atom+Function         Bfn.  Coefficient  Atom+Function  
  ----- ------------  ---------------      ----- ------------  ---------------
    17      1.358266  2 H  s                 87      1.358266  7 H  s          
     3     -0.920886  1 H  s                101     -0.920886  8 H  s          
    16     -0.784497  2 H  s                 86     -0.784497  7 H  s          
    45     -0.582192  4 H  s                 59     -0.582192  5 H  s          
    44      0.458763  4 H  s                 58      0.458763  5 H  s          
 
 Vector   14  Occ=0.000000D+00  E= 5.315782D-01
              MO Center=  1.1D-16,  4.9D-18, -5.2D-11, r^2= 1.5D+01
   Bfn.  Coefficient  Atom+Function         Bfn.  Coefficient  Atom+Function  
  ----- ------------  ---------------      ----- ------------  ---------------
    17      1.984508  2 H  s                 87     -1.984508  7 H  s          
    31     -1.357600  3 H  s                 73      1.357600  6 H  s          
    16     -0.858593  2 H  s                 86      0.858593  7 H  s          
     3     -0.757128  1 H  s                101      0.757128  8 H  s          
    30      0.535138  3 H  s                 72     -0.535138  6 H  s          
 

 center of mass
 --------------
 x =   0.00000000 y =   0.00000000 z =  -0.00000000

 moments of inertia (a.u.)
 ------------------
         339.005924985000           0.000000000000           0.000000000000
           0.000000000000         339.005924985000           0.000000000000
           0.000000000000           0.000000000000           0.000000000000
 
  Mulliken analysis of the total density
  --------------------------------------

    Atom       Charge   Shell Charges
 -----------   ------   -------------------------------------------------------
    1 H    1     0.96   0.14  0.41  0.40  0.00  0.01  0.00
    2 H    1     1.04   0.15  0.44  0.44  0.00  0.02  0.00
    3 H    1     0.99   0.14  0.44  0.38  0.00  0.02  0.00
    4 H    1     1.01   0.14  0.44  0.40  0.00  0.02  0.00
    5 H    1     1.01   0.14  0.44  0.40  0.00  0.02  0.00
    6 H    1     0.99   0.14  0.44  0.38  0.00  0.02  0.00
    7 H    1     1.04   0.15  0.44  0.44  0.00  0.02  0.00
    8 H    1     0.96   0.14  0.41  0.40  0.00  0.01  0.00
 
       Multipole analysis of the density wrt the origin
       ------------------------------------------------
 
     L   x y z        total         open         nuclear
     -   - - -        -----         ----         -------
     0   0 0 0     -0.000000      0.000000      8.000000
 
     1   1 0 0      0.000000      0.000000      0.000000
     1   0 1 0      0.000000      0.000000      0.000000
     1   0 0 1      0.000000      0.000000     -0.000000
 
     2   2 0 0     -8.877864      0.000000      0.000000
     2   1 1 0      0.000000      0.000000      0.000000
     2   1 0 1      0.000000      0.000000      0.000000
     2   0 2 0     -8.877864      0.000000      0.000000
     2   0 1 1      0.000000      0.000000      0.000000
     2   0 0 2     -1.823041      0.000000    336.373800
 
 ------------------------------------
     Number of active orbitals      8
     Number of active alpha electrons      4
     Number of active beta electrons       4
 ------------------------------------
                   NWChem Extensible Many-Electron Theory Module
                   ---------------------------------------------
 
              ======================================================
                   This portion of the program was automatically
                  generated by a Tensor Contraction Engine (TCE).
                  The development of this portion of the program
                 and TCE was supported by US Department of Energy,
                Office of Science, Office of Basic Energy Science.
                      TCE is a product of Battelle and PNNL.
              Please cite: S.Hirata, J.Phys.Chem.A 107, 9887 (2003).
              ======================================================
 
                                        H8
 
 
            General Information
            -------------------
      Number of processors :     1
         Wavefunction type : Restricted Hartree-Fock
          No. of electrons :     8
           Alpha electrons :     4
            Beta electrons :     4
           No. of orbitals :   224
            Alpha orbitals :   112
             Beta orbitals :   112
        Alpha frozen cores :     0
         Beta frozen cores :     0
     Alpha frozen virtuals :   104
      Beta frozen virtuals :   104
         Spin multiplicity : singlet 
    Number of AO functions :   112
       Number of AO shells :    48
        Use of symmetry is : off
      Symmetry adaption is : off
         Schwarz screening : 0.10D-09
 
          Correlation Information
          -----------------------
          Calculation type : Coupled-cluster singles & doubles                           
   Perturbative correction : none                                                        
            Max iterations :      300
        Residual threshold : 0.10D-07
     T(0) DIIS level shift : 0.00D+00
     L(0) DIIS level shift : 0.00D+00
     T(1) DIIS level shift : 0.00D+00
     L(1) DIIS level shift : 0.00D+00
     T(R) DIIS level shift : 0.00D+00
     T(I) DIIS level shift : 0.00D+00
   CC-T/L Amplitude update :  5-th order DIIS
                I/O scheme : Global Array Library
        L-threshold :  0.10D-07
        EOM-threshold :  0.10D-07
 no EOMCCSD initial starts read in
 TCE RESTART OPTIONS
 READ_INT:   F
 WRITE_INT:  F
 READ_TA:    F
 WRITE_TA:   F
 READ_XA:    F
 WRITE_XA:   F
 READ_IN3:   F
 WRITE_IN3:  F
 SLICE:      F
 D4D5:       F
 quantumc:   T
 qrotation:  F
 pwtce:      F
 qducc:      F
 nacto:                          0
 nrotv:                          0
 nrot:                           0
 
            Memory Information
            ------------------
          Available GA space size is    8053051136 doubles
          Available MA space size is    8053060452 doubles
 
 Maximum block size supplied by input
 Maximum block size         1 doubles

 tile_dim =      1

 Block   Spin    Irrep     Size     Offset   Alpha
 -------------------------------------------------
   1    alpha     a      1 doubles       0       1
   2    alpha     a      1 doubles       1       2
   3    alpha     a      1 doubles       2       3
   4    alpha     a      1 doubles       3       4
   5    beta      a      1 doubles       4       1
   6    beta      a      1 doubles       5       2
   7    beta      a      1 doubles       6       3
   8    beta      a      1 doubles       7       4
   9    alpha     a      1 doubles       8       9
  10    alpha     a      1 doubles       9      10
  11    alpha     a      1 doubles      10      11
  12    alpha     a      1 doubles      11      12
  13    beta      a      1 doubles      12       9
  14    beta      a      1 doubles      13      10
  15    beta      a      1 doubles      14      11
  16    beta      a      1 doubles      15      12

 Global array virtual files algorithm will be used

 Parallel file system coherency ......... OK
 
 Fock matrix recomputed
 1-e file size   =               64
 1-e file name   = ./H8.f1
 Cpu & wall time / sec            0.2            0.2
 4-electron integrals stored in orbital form
 
 v2    file size   =              666
 4-index algorithm nr.  13 is used
 imaxsize =       30
 imaxsize ichop =        0
 begin_one_electron_integrals
    1    1        -1.9018176795
    3    1         0.1029623810
    5    1         0.0314601084
    7    1        -0.0334055469
    2    2        -1.7713373707
    4    2        -0.1337150395
    6    2         0.0848553060
    8    2        -0.0278415889
    1    3         0.1029623810
    3    3        -1.6847233615
    5    3         0.1514907664
    7    3        -0.0686843770
    2    4        -0.1337150395
    4    4        -1.6850794747
    6    4        -0.1313167860
    8    4         0.0414687266
    1    5         0.0314601084
    3    5         0.1514907664
    5    5        -1.5978353741
    7    5        -0.1697447309
    2    6         0.0848553060
    4    6        -0.1313167860
    6    6        -1.4308627042
    8    6        -0.1768096640
    1    7        -0.0334055469
    3    7        -0.0686843770
    5    7        -0.1697447309
    7    7        -1.3613920815
    2    8        -0.0278415889
    4    8         0.0414687266
    6    8        -0.1768096640
    8    8        -1.3623593543
 end_one_electron_integrals
 begin_two_electron_integrals
    1    1    1    1        0.2745094869
    2    1    2    1        0.0993532747
    3    1    1    1       -0.0546750271
    3    1    3    1        0.0689946274
    3    1    2    2        0.0177213653
    4    1    2    1        0.0391392480
    4    1    4    1        0.0660556453
    4    1    3    2       -0.0287099056
    5    1    1    1        0.0028177992
    5    1    3    1       -0.0270635429
    5    1    5    1        0.0511195935
    5    1    2    2       -0.0271378456
    5    1    4    2       -0.0097329677
    5    1    3    3        0.0118654757
    5    1    4    4       -0.0028155477
    6    1    2    1       -0.0055998844
    6    1    4    1        0.0173490400
    6    1    6    1        0.0304109951
    6    1    3    2       -0.0202705288
    6    1    5    2        0.0209616640
    6    1    4    3       -0.0098018203
    6    1    5    4        0.0052465457
    7    1    1    1        0.0036758993
    7    1    3    1       -0.0002442271
    7    1    5    1        0.0201001987
    7    1    7    1        0.0283370381
    7    1    2    2        0.0017391769
    7    1    4    2       -0.0158137498
    7    1    6    2       -0.0083545761
    7    1    3    3        0.0170761355
    7    1    5    3       -0.0166027676
    7    1    4    4       -0.0082777539
    7    1    6    4        0.0108658662
    7    1    5    5       -0.0010589630
    7    1    6    6        0.0084583191
    8    1    2    1       -0.0001707129
    8    1    4    1        0.0016596076
    8    1    6    1        0.0166177003
    8    1    8    1        0.0353164450
    8    1    3    2        0.0005760564
    8    1    5    2        0.0175225673
    8    1    7    2        0.0163289662
    8    1    4    3       -0.0145512449
    8    1    6    3       -0.0135877942
    8    1    5    4        0.0211778578
    8    1    7    4        0.0110636010
    8    1    6    5        0.0059825929
    8    1    7    6        0.0005855252
    2    2    1    1        0.2172874082
    2    2    2    2        0.2361491662
    3    2    2    1        0.0600384313
    3    2    3    2        0.0909312424
    4    2    1    1        0.0569776908
    4    2    3    1       -0.0545596836
    4    2    2    2        0.0009636539
    4    2    4    2        0.0671288566
    4    2    3    3       -0.0175481456
    5    2    2    1       -0.0371449519
    5    2    4    1       -0.0307653273
    5    2    3    2       -0.0020458382
    5    2    5    2        0.0469780600
    5    2    4    3       -0.0005185849
    6    2    1    1       -0.0079476895
    6    2    3    1       -0.0202580984
    6    2    5    1        0.0309105939
    6    2    2    2       -0.0290928495
    6    2    4    2       -0.0009081484
    6    2    6    2        0.0402338141
    6    2    3    3       -0.0041831130
    6    2    5    3        0.0145067730
    6    2    4    4        0.0031878667
    6    2    5    5       -0.0042000764
    7    2    2    1        0.0001200436
    7    2    4    1       -0.0212885604
    7    2    6    1       -0.0161861019
    7    2    3    2        0.0211225143
    7    2    5    2       -0.0018061787
    7    2    7    2        0.0335455503
    7    2    4    3       -0.0008636604
    7    2    6    3       -0.0183586876
    7    2    5    4        0.0165786158
    7    2    6    5        0.0000658757
    8    2    1    1        0.0049975574
    8    2    3    1        0.0005623500
    8    2    5    1        0.0207842903
    8    2    7    1        0.0228620744
    8    2    2    2        0.0044165814
    8    2    4    2       -0.0169252899
    8    2    6    2       -0.0012901670
    8    2    8    2        0.0250019851
    8    2    3    3        0.0215741460
    8    2    5    3       -0.0090286029
    8    2    7    3        0.0044982780
    8    2    4    4        0.0007854673
    8    2    6    4        0.0111820774
    8    2    5    5       -0.0030984952
    8    2    7    5       -0.0076802544
    8    2    6    6        0.0103816677
    8    2    7    7        0.0027463076
    3    3    1    1        0.2086244633
    3    3    3    1        0.0072587347
    3    3    2    2        0.2152803029
    3    3    3    3        0.2263491602
    4    3    2    1       -0.0759505408
    4    3    4    1       -0.0122750333
    4    3    3    2       -0.0672776361
    4    3    4    3        0.0837401497
    5    3    1    1       -0.0492527605
    5    3    3    1        0.0406014454
    5    3    5    1       -0.0079194860
    5    3    2    2       -0.0059376120
    5    3    4    2       -0.0375595460
    5    3    3    3       -0.0030318541
    5    3    5    3        0.0480775697
    5    3    4    4       -0.0111350744
    6    3    2    1       -0.0274133109
    6    3    4    1       -0.0306107211
    6    3    6    1        0.0076475855
    6    3    3    2        0.0057803194
    6    3    5    2        0.0315920103
    6    3    4    3        0.0020387926
    6    3    6    3        0.0456312205
    6    3    5    4       -0.0152689664
    7    3    1    1        0.0083654978
    7    3    3    1        0.0216674294
    7    3    5    1       -0.0294397402
    7    3    7    1        0.0033100667
    7    3    2    2        0.0314867923
    7    3    4    2       -0.0015441218
    7    3    6    2       -0.0328018867
    7    3    3    3        0.0093548039
    7    3    5    3       -0.0062806771
    7    3    7    3        0.0346945133
    7    3    4    4        0.0057724599
    7    3    6    4        0.0097333023
    7    3    5    5        0.0008665629
    7    3    6    6        0.0069620419
    8    3    2    1        0.0066158973
    8    3    4    1       -0.0212146404
    8    3    6    1       -0.0234296018
    8    3    8    1       -0.0122593264
    8    3    3    2        0.0268106267
    8    3    5    2       -0.0101929341
    8    3    7    2        0.0146479774
    8    3    4    3       -0.0013412221
    8    3    6    3       -0.0008711830
    8    3    8    3        0.0259337725
    8    3    5    4       -0.0095564416
    8    3    7    4       -0.0116950571
    8    3    6    5       -0.0006100081
    8    3    7    6       -0.0143971157
    4    4    1    1        0.2357170405
    4    4    3    1       -0.0216127104
    4    4    2    2        0.2137724709
    4    4    4    2        0.0257539071
    4    4    3    3        0.2082291337
    4    4    4    4        0.2279217383
    5    4    2    1       -0.0493780955
    5    4    4    1       -0.0053544211
    5    4    3    2       -0.0447487178
    5    4    5    2        0.0109014746
    5    4    4    3        0.0449173995
    5    4    5    4        0.0504178635
    6    4    1    1        0.0504186488
    6    4    3    1       -0.0396241311
    6    4    5    1        0.0066837945
    6    4    2    2        0.0087079958
    6    4    4    2        0.0376961497
    6    4    6    2       -0.0092632400
    6    4    3    3        0.0060222613
    6    4    5    3       -0.0414819314
    6    4    4    4        0.0194986587
    6    4    6    4        0.0433476991
    6    4    5    5        0.0143633489
    7    4    2    1       -0.0399037095
    7    4    4    1       -0.0304420036
    7    4    6    1        0.0130266277
    7    4    3    2       -0.0067144142
    7    4    5    2        0.0378016015
    7    4    7    2       -0.0011489836
    7    4    4    3        0.0110416401
    7    4    6    3        0.0285637809
    7    4    5    4        0.0132854526
    7    4    7    4        0.0385186083
    7    4    6    5       -0.0074392224
    8    4    1    1        0.0047537111
    8    4    3    1       -0.0317745360
    8    4    5    1        0.0396047536
    8    4    7    1        0.0131645980
    8    4    2    2       -0.0295534497
    8    4    4    2        0.0046494199
    8    4    6    2        0.0257059210
    8    4    8    2        0.0138395345
    8    4    3    3       -0.0016829195
    8    4    5    3       -0.0129169892
    8    4    7    3       -0.0257520551
    8    4    4    4       -0.0051103152
    8    4    6    4        0.0120910634
    8    4    8    4        0.0389808448
    8    4    5    5       -0.0049606729
    8    4    7    5        0.0032643635
    8    4    6    6       -0.0013130183
    8    4    7    7       -0.0149231227
    5    5    1    1        0.2303733139
    5    5    3    1       -0.0202215003
    5    5    5    1       -0.0022656153
    5    5    2    2        0.2091110338
    5    5    4    2        0.0234954973
    5    5    3    3        0.2027966900
    5    5    5    3       -0.0179482182
    5    5    4    4        0.2143358168
    5    5    5    5        0.2178306667
    6    5    2    1        0.0710322764
    6    5    4    1        0.0097725932
    6    5    6    1        0.0012959046
    6    5    3    2        0.0633012717
    6    5    5    2       -0.0071953840
    6    5    4    3       -0.0710656026
    6    5    6    3       -0.0013489539
    6    5    5    4       -0.0440347190
    6    5    6    5        0.0718952255
    7    5    1    1        0.0594494425
    7    5    3    1       -0.0487020007
    7    5    5    1        0.0001520203
    7    5    7    1       -0.0053910262
    7    5    2    2        0.0088420670
    7    5    4    2        0.0526271167
    7    5    6    2       -0.0010654517
    7    5    3    3       -0.0001714246
    7    5    5    3       -0.0366440902
    7    5    7    3       -0.0010615510
    7    5    4    4        0.0294016771
    7    5    6    4        0.0353782334
    7    5    5    5        0.0287589210
    7    5    7    5        0.0515491080
    7    5    6    6       -0.0029774219
    8    5    2    1        0.0421514367
    8    5    4    1        0.0486542332
    8    5    6    1        0.0077647683
    8    5    8    1        0.0011614815
    8    5    3    2       -0.0080156435
    8    5    5    2       -0.0285424158
    8    5    7    2       -0.0113840109
    8    5    4    3       -0.0188504292
    8    5    6    3       -0.0269023084
    8    5    8    3       -0.0110908071
    8    5    5    4       -0.0103208452
    8    5    7    4       -0.0278249400
    8    5    6    5        0.0168758007
    8    5    8    5        0.0447700070
    8    5    7    6        0.0064130911
    6    6    1    1        0.1988426086
    6    6    3    1        0.0058554075
    6    6    5    1        0.0012735349
    6    6    2    2        0.2045184925
    6    6    4    2       -0.0074298188
    6    6    6    2       -0.0062902777
    6    6    3    3        0.2058663195
    6    6    5    3       -0.0027455501
    6    6    4    4        0.1972160203
    6    6    6    4        0.0030295674
    6    6    5    5        0.1963335447
    6    6    6    6        0.2004700970
    7    6    2    1       -0.0544179258
    7    6    4    1        0.0135841433
    7    6    6    1        0.0105112768
    7    6    3    2       -0.0699347312
    7    6    5    2        0.0024166980
    7    6    7    2       -0.0091520782
    7    6    4    3        0.0592492709
    7    6    6    3       -0.0060629027
    7    6    5    4        0.0408403958
    7    6    7    4        0.0049724270
    7    6    6    5       -0.0583931797
    7    6    7    6        0.0644305562
    8    6    1    1        0.0581066476
    8    6    3    1       -0.0502633785
    8    6    5    1        0.0146151631
    8    6    7    1        0.0016528022
    8    6    2    2        0.0054033287
    8    6    4    2        0.0436528027
    8    6    6    2        0.0078084797
    8    6    8    2        0.0010288756
    8    6    3    3        0.0081349236
    8    6    5    3       -0.0349116975
    8    6    7    3       -0.0093004203
    8    6    4    4        0.0300336426
    8    6    6    4        0.0341507865
    8    6    8    4        0.0183741413
    8    6    5    5        0.0287138821
    8    6    7    5        0.0421985580
    8    6    6    6        0.0056324818
    8    6    8    6        0.0456265670
    8    6    7    7        0.0064729382
    7    7    1    1        0.2064138574
    7    7    3    1        0.0022555299
    7    7    5    1       -0.0120558931
    7    7    7    1        0.0016635350
    7    7    2    2        0.2088269507
    7    7    4    2        0.0062873475
    7    7    6    2       -0.0148422448
    7    7    3    3        0.1984985752
    7    7    5    3       -0.0083847848
    7    7    7    3        0.0158388570
    7    7    4    4        0.2000855878
    7    7    6    4        0.0091954401
    7    7    5    5        0.1981771557
    7    7    7    5        0.0109437915
    7    7    6    6        0.1920725156
    7    7    7    7        0.1978634246
    8    7    2    1        0.0746464619
    8    7    4    1        0.0244869439
    8    7    6    1       -0.0026179120
    8    7    8    1       -0.0005235023
    8    7    3    2        0.0506994749
    8    7    5    2       -0.0225663229
    8    7    7    2       -0.0017806344
    8    7    4    3       -0.0618743420
    8    7    6    3       -0.0139747254
    8    7    8    3        0.0032885578
    8    7    5    4       -0.0413446673
    8    7    7    4       -0.0244613428
    8    7    6    5        0.0598463926
    8    7    8    5        0.0269982982
    8    7    7    6       -0.0489326881
    8    7    8    7        0.0638450033
    8    8    1    1        0.2464996006
    8    8    3    1       -0.0415825700
    8    8    5    1        0.0038784224
    8    8    7    1        0.0031822316
    8    8    2    2        0.2029383473
    8    8    4    2        0.0420823226
    8    8    6    2       -0.0044984481
    8    8    8    2        0.0041656283
    8    8    3    3        0.1978079237
    8    8    5    3       -0.0366500210
    8    8    7    3        0.0045827406
    8    8    4    4        0.2176249634
    8    8    6    4        0.0372849287
    8    8    8    4        0.0052673523
    8    8    5    5        0.2141801944
    8    8    7    5        0.0443479548
    8    8    6    6        0.1907511334
    8    8    8    6        0.0446142182
    8    8    7    7        0.1957575406
    8    8    8    8        0.2294200391
 end_two_electron_integrals
 enrep_tce =    4.85613326602726     
  EHF(A)             =        -4.02161727
  EHF(total)         =        -4.02161727
  Shift (HFtot-HFA)  =         0.00000000
 Cpu & wall time / sec            8.9            8.9
 T1-number-of-tasks                    16
 
 t1 file size   =               16
 t1 file name   = ./H8.t1
 t1 file handle =       -998
 T2-number-of-boxes                   356
 
 t2 file size   =              356
 t2 file name   = ./H8.t2
 t2 file handle =       -996
CCSD iterations
 ---------------------------------------------------------
 Iter          Residuum       Correlation     Cpu    Wall 
 ---------------------------------------------------------
NEW TASK SCHEDULING
CCSD_T1_NTS --- OK
CCSD_T2_NTS --- OK
    1   0.1152062541534  -0.0722879089142     1.1     1.1
    2   0.0598411651045  -0.1002815133654     1.1     1.1
    3   0.0350930366056  -0.1134736774653     1.1     1.1
    4   0.0224433852471  -0.1201028100376     1.1     1.1
    5   0.0155845164256  -0.1237981273100     1.1     1.1
 MICROCYCLE DIIS UPDATE:                     5                     5
    6   0.0055065255309  -0.1293171286047     1.1     1.1
    7   0.0035820600941  -0.1299121249735     1.1     1.1
    8   0.0029789920319  -0.1300132605819     1.1     1.1
    9   0.0024399771714  -0.1301079524148     1.1     1.1
   10   0.0020099079007  -0.1301911671585     1.1     1.1
 MICROCYCLE DIIS UPDATE:                    10                     5
   11   0.0006180894938  -0.1304905376703     1.1     1.1
   12   0.0003258217911  -0.1306128537272     1.1     1.1
   13   0.0002039049688  -0.1306699570272     1.1     1.1
   14   0.0001372398066  -0.1306984156057     1.1     1.1
   15   0.0000987417427  -0.1307157225119     1.1     1.1
 MICROCYCLE DIIS UPDATE:                    15                     5
   16   0.0000399883460  -0.1307447539968     1.1     1.1
   17   0.0000301823174  -0.1307476950488     1.1     1.1
   18   0.0000247171821  -0.1307481952572     1.1     1.1
   19   0.0000205293127  -0.1307486429310     1.1     1.1
   20   0.0000169767240  -0.1307492447583     1.1     1.1
 MICROCYCLE DIIS UPDATE:                    20                     5
   21   0.0000052287736  -0.1307523893463     1.1     1.1
   22   0.0000026081512  -0.1307531017476     1.1     1.1
   23   0.0000016335065  -0.1307534439215     1.1     1.1
   24   0.0000011620273  -0.1307536063826     1.1     1.1
   25   0.0000008760126  -0.1307537161636     1.1     1.1
 MICROCYCLE DIIS UPDATE:                    25                     5
   26   0.0000003656550  -0.1307539637274     1.1     1.1
   27   0.0000002678181  -0.1307539749402     1.1     1.1
   28   0.0000002112249  -0.1307539773810     1.1     1.1
   29   0.0000001738618  -0.1307539799284     1.1     1.1
   30   0.0000001428387  -0.1307539845132     1.1     1.1
 MICROCYCLE DIIS UPDATE:                    30                     5
   31   0.0000000520481  -0.1307540038246     1.1     1.1
   32   0.0000000259806  -0.1307540138729     1.1     1.1
   33   0.0000000181269  -0.1307540172266     1.1     1.1
   34   0.0000000138345  -0.1307540189682     1.1     1.1
   35   0.0000000109147  -0.1307540200899     1.1     1.1
 MICROCYCLE DIIS UPDATE:                    35                     5
   36   0.0000000041471  -0.1307540232560     1.1     1.1
 -----------------------------------------------------------------
 Iterations converged
 CCSD correlation energy / hartree =        -0.130754023256018
 CCSD total energy / hartree       =        -4.152371290349149

 Singles contributions
     6a   (alpha) ---     4a   (alpha)       -0.0314642640
     7a   (alpha) ---     3a   (alpha)       -0.0211233618

 Doubles contributions
     5a   (alpha)     6a   (alpha) ---     2a   (alpha)     3a   (alpha)       -0.0239518682
     5a   (alpha)     6a   (alpha) ---     3a   (alpha)     4a   (alpha)        0.0565447030
     5a   (alpha)     7a   (alpha) ---     2a   (alpha)     4a   (alpha)       -0.0441876175
     5a   (alpha)     8a   (alpha) ---     1a   (alpha)     4a   (alpha)       -0.0395992561
     5a   (alpha)     5a   (beta ) ---     1a   (alpha)     1a   (beta )       -0.0447811296
     5a   (alpha)     5a   (beta ) ---     2a   (alpha)     2a   (beta )       -0.0534473255
     5a   (alpha)     5a   (beta ) ---     2a   (alpha)     4a   (beta )       -0.0285535669
     5a   (alpha)     5a   (beta ) ---     3a   (alpha)     3a   (beta )       -0.0882708673
     5a   (alpha)     5a   (beta ) ---     4a   (alpha)     2a   (beta )       -0.0285535669
     5a   (alpha)     5a   (beta ) ---     4a   (alpha)     4a   (beta )       -0.3022250781
     5a   (alpha)     6a   (beta ) ---     1a   (alpha)     2a   (beta )       -0.0326568196
     5a   (alpha)     6a   (beta ) ---     2a   (alpha)     1a   (beta )       -0.0212284746
     5a   (alpha)     6a   (beta ) ---     2a   (alpha)     3a   (beta )       -0.0446376146
     5a   (alpha)     6a   (beta ) ---     3a   (alpha)     2a   (beta )       -0.0206857463
     5a   (alpha)     6a   (beta ) ---     3a   (alpha)     4a   (beta )        0.1437882539
     5a   (alpha)     6a   (beta ) ---     4a   (alpha)     3a   (beta )        0.0872435509
     5a   (alpha)     7a   (beta ) ---     1a   (alpha)     1a   (beta )       -0.0211236302
     5a   (alpha)     7a   (beta ) ---     1a   (alpha)     3a   (beta )        0.0403340225
     5a   (alpha)     7a   (beta ) ---     2a   (alpha)     4a   (beta )       -0.1013532907
     5a   (alpha)     7a   (beta ) ---     3a   (alpha)     1a   (beta )        0.0227028606
     5a   (alpha)     7a   (beta ) ---     3a   (alpha)     3a   (beta )        0.0284315653
     5a   (alpha)     7a   (beta ) ---     4a   (alpha)     2a   (beta )       -0.0571656732
     5a   (alpha)     7a   (beta ) ---     4a   (alpha)     4a   (beta )       -0.0281294753
     5a   (alpha)     8a   (beta ) ---     1a   (alpha)     2a   (beta )       -0.0262292174
     5a   (alpha)     8a   (beta ) ---     1a   (alpha)     4a   (beta )       -0.0920624210
     5a   (alpha)     8a   (beta ) ---     2a   (alpha)     1a   (beta )       -0.0215367177
     5a   (alpha)     8a   (beta ) ---     2a   (alpha)     3a   (beta )        0.0243941233
     5a   (alpha)     8a   (beta ) ---     3a   (alpha)     2a   (beta )        0.0210866206
     5a   (alpha)     8a   (beta ) ---     3a   (alpha)     4a   (beta )        0.0240709741
     5a   (alpha)     8a   (beta ) ---     4a   (alpha)     1a   (beta )       -0.0524631649
     6a   (alpha)     7a   (alpha) ---     2a   (alpha)     3a   (alpha)        0.0240737525
     6a   (alpha)     7a   (alpha) ---     3a   (alpha)     4a   (alpha)       -0.0228659630
     6a   (alpha)     5a   (beta ) ---     1a   (alpha)     2a   (beta )       -0.0212284746
     6a   (alpha)     5a   (beta ) ---     2a   (alpha)     1a   (beta )       -0.0326568196
     6a   (alpha)     5a   (beta ) ---     2a   (alpha)     3a   (beta )       -0.0206857463
     6a   (alpha)     5a   (beta ) ---     3a   (alpha)     2a   (beta )       -0.0446376146
     6a   (alpha)     5a   (beta ) ---     3a   (alpha)     4a   (beta )        0.0872435509
     6a   (alpha)     5a   (beta ) ---     4a   (alpha)     3a   (beta )        0.1437882539
     6a   (alpha)     6a   (beta ) ---     1a   (alpha)     1a   (beta )       -0.0341047615
     6a   (alpha)     6a   (beta ) ---     2a   (alpha)     2a   (beta )       -0.0509254042
     6a   (alpha)     6a   (beta ) ---     2a   (alpha)     4a   (beta )        0.0330929612
     6a   (alpha)     6a   (beta ) ---     3a   (alpha)     3a   (beta )       -0.1184235353
     6a   (alpha)     6a   (beta ) ---     4a   (alpha)     2a   (beta )        0.0330929612
     6a   (alpha)     6a   (beta ) ---     4a   (alpha)     4a   (beta )       -0.0754514148
     6a   (alpha)     7a   (beta ) ---     1a   (alpha)     2a   (beta )        0.0210707148
     6a   (alpha)     7a   (beta ) ---     1a   (alpha)     4a   (beta )       -0.0281760934
     6a   (alpha)     7a   (beta ) ---     2a   (alpha)     3a   (beta )        0.0680204997
     6a   (alpha)     7a   (beta ) ---     3a   (alpha)     2a   (beta )        0.0439467472
     6a   (alpha)     7a   (beta ) ---     3a   (alpha)     4a   (beta )       -0.0370885311
     6a   (alpha)     7a   (beta ) ---     4a   (alpha)     1a   (beta )       -0.0232028098
     6a   (alpha)     8a   (beta ) ---     1a   (alpha)     1a   (beta )       -0.0207667381
     6a   (alpha)     8a   (beta ) ---     1a   (alpha)     3a   (beta )        0.0499401427
     6a   (alpha)     8a   (beta ) ---     2a   (alpha)     4a   (beta )       -0.0313602794
     6a   (alpha)     8a   (beta ) ---     3a   (alpha)     1a   (beta )        0.0310190173
     7a   (alpha)     5a   (beta ) ---     1a   (alpha)     1a   (beta )       -0.0211236302
     7a   (alpha)     5a   (beta ) ---     1a   (alpha)     3a   (beta )        0.0227028606
     7a   (alpha)     5a   (beta ) ---     2a   (alpha)     4a   (beta )       -0.0571656732
     7a   (alpha)     5a   (beta ) ---     3a   (alpha)     1a   (beta )        0.0403340225
     7a   (alpha)     5a   (beta ) ---     3a   (alpha)     3a   (beta )        0.0284315653
     7a   (alpha)     5a   (beta ) ---     4a   (alpha)     2a   (beta )       -0.1013532907
     7a   (alpha)     5a   (beta ) ---     4a   (alpha)     4a   (beta )       -0.0281294753
     7a   (alpha)     6a   (beta ) ---     1a   (alpha)     4a   (beta )       -0.0232028098
     7a   (alpha)     6a   (beta ) ---     2a   (alpha)     1a   (beta )        0.0210707148
     7a   (alpha)     6a   (beta ) ---     2a   (alpha)     3a   (beta )        0.0439467472
     7a   (alpha)     6a   (beta ) ---     3a   (alpha)     2a   (beta )        0.0680204997
     7a   (alpha)     6a   (beta ) ---     4a   (alpha)     1a   (beta )       -0.0281760934
     7a   (alpha)     6a   (beta ) ---     4a   (alpha)     3a   (beta )       -0.0370885311
     7a   (alpha)     7a   (beta ) ---     1a   (alpha)     1a   (beta )       -0.0331817702
     7a   (alpha)     7a   (beta ) ---     2a   (alpha)     2a   (beta )       -0.0631541698
     7a   (alpha)     7a   (beta ) ---     3a   (alpha)     3a   (beta )       -0.0392529750
     7a   (alpha)     7a   (beta ) ---     4a   (alpha)     4a   (beta )       -0.0374376587
     7a   (alpha)     8a   (beta ) ---     1a   (alpha)     2a   (beta )       -0.0394809048
     7a   (alpha)     8a   (beta ) ---     2a   (alpha)     1a   (beta )       -0.0285156111
     7a   (alpha)     8a   (beta ) ---     3a   (alpha)     4a   (beta )        0.0225084861
     8a   (alpha)     5a   (beta ) ---     1a   (alpha)     2a   (beta )       -0.0215367177
     8a   (alpha)     5a   (beta ) ---     1a   (alpha)     4a   (beta )       -0.0524631649
     8a   (alpha)     5a   (beta ) ---     2a   (alpha)     1a   (beta )       -0.0262292174
     8a   (alpha)     5a   (beta ) ---     2a   (alpha)     3a   (beta )        0.0210866206
     8a   (alpha)     5a   (beta ) ---     3a   (alpha)     2a   (beta )        0.0243941233
     8a   (alpha)     5a   (beta ) ---     4a   (alpha)     1a   (beta )       -0.0920624210
     8a   (alpha)     5a   (beta ) ---     4a   (alpha)     3a   (beta )        0.0240709741
     8a   (alpha)     6a   (beta ) ---     1a   (alpha)     1a   (beta )       -0.0207667381
     8a   (alpha)     6a   (beta ) ---     1a   (alpha)     3a   (beta )        0.0310190173
     8a   (alpha)     6a   (beta ) ---     3a   (alpha)     1a   (beta )        0.0499401427
     8a   (alpha)     6a   (beta ) ---     4a   (alpha)     2a   (beta )       -0.0313602794
     8a   (alpha)     7a   (beta ) ---     1a   (alpha)     2a   (beta )       -0.0285156111
     8a   (alpha)     7a   (beta ) ---     2a   (alpha)     1a   (beta )       -0.0394809048
     8a   (alpha)     7a   (beta ) ---     4a   (alpha)     3a   (beta )        0.0225084861
     8a   (alpha)     8a   (beta ) ---     1a   (alpha)     1a   (beta )       -0.0525825851
     8a   (alpha)     8a   (beta ) ---     2a   (alpha)     2a   (beta )       -0.0241016098
     8a   (alpha)     8a   (beta ) ---     3a   (alpha)     3a   (beta )       -0.0221669804
     8a   (alpha)     8a   (beta ) ---     4a   (alpha)     4a   (beta )       -0.0255044121
 Ground state specification:
 exp(T)|Ref>~(1+T)|Ref>
 ------- a(p)+/a(q) strings ----------

 singles norm

 doubles norm

 Reference string
  0.925585070168916      :(1a)+ (2a)+ (3a)+ (4a)+ (1b)+ (2b)+ (3b)+ (4b)+ |0>

 Singles strings

 Doubles strings
 -0.279735020160455      :(5a)+ (5b)+ (4b)  (4a)  (1a)+ (2a)+ (3a)+ (4a)+ (1b)+ 
 (2b)+ (3b)+ (4b)+ |0>
  0.133088261099961      :(5a)+ (6b)+ (4b)  (3a)  (1a)+ (2a)+ (3a)+ (4a)+ (1b)+ 
 (2b)+ (3b)+ (4b)+ |0>
 -9.381109272874308E-002 :(5a)+ (7b)+ (4b)  (2a)  (1a)+ (2a)+ (3a)+ (4a)+ (1b)+ 
 (2b)+ (3b)+ (4b)+ |0>
  0.133088261099961      :(6a)+ (5b)+ (3b)  (4a)  (1a)+ (2a)+ (3a)+ (4a)+ (1b)+ 
 (2b)+ (3b)+ (4b)+ |0>
 -0.109611056253864      :(6a)+ (6b)+ (3b)  (3a)  (1a)+ (2a)+ (3a)+ (4a)+ (1b)+ 
 (2b)+ (3b)+ (4b)+ |0>
 -9.381109272874312E-002 :(7a)+ (5b)+ (2b)  (4a)  (1a)+ (2a)+ (3a)+ (4a)+ (1b)+ 
 (2b)+ (3b)+ (4b)+ |0>
 -------------------------------------

 Task  times  cpu:       53.4s     wall:       53.4s
 
 
                                NWChem Input Module
                                -------------------
 
 
 Summary of allocated global arrays
-----------------------------------
  No active global arrays


MA_summarize_allocated_blocks: starting scan ...
MA_summarize_allocated_blocks: scan completed: 0 heap blocks, 0 stack blocks
MA usage statistics:

	allocation statistics:
					      heap	     stack
					      ----	     -----
	current number of blocks	         0	         0
	maximum number of blocks	        16	        42
	current total bytes		         0	         0
	maximum total bytes		     80104	  33006664
	maximum total K-bytes		        81	     33007
	maximum total M-bytes		         1	        34
 
 
                                     CITATION
                                     --------
                Please cite the following reference when publishing
                           results obtained with NWChem:
 
          E. Apra, E. J. Bylaska, W. A. de Jong, N. Govind, K. Kowalski,
       T. P. Straatsma, M. Valiev, H. J. J. van Dam, Y. Alexeev, J. Anchell,
       V. Anisimov, F. W. Aquino, R. Atta-Fynn, J. Autschbach, N. P. Bauman,
     J. C. Becca, D. E. Bernholdt, K. Bhaskaran-Nair, S. Bogatko, P. Borowski,
         J. Boschen, J. Brabec, A. Bruner, E. Cauet, Y. Chen, G. N. Chuev,
      C. J. Cramer, J. Daily, M. J. O. Deegan, T. H. Dunning Jr., M. Dupuis,
   K. G. Dyall, G. I. Fann, S. A. Fischer, A. Fonari, H. Fruchtl, L. Gagliardi,
      J. Garza, N. Gawande, S. Ghosh, K. Glaesemann, A. W. Gotz, J. Hammond,
       V. Helms, E. D. Hermes, K. Hirao, S. Hirata, M. Jacquelin, L. Jensen,
   B. G. Johnson, H. Jonsson, R. A. Kendall, M. Klemm, R. Kobayashi, V. Konkov,
      S. Krishnamoorthy, M. Krishnan, Z. Lin, R. D. Lins, R. J. Littlefield,
      A. J. Logsdail, K. Lopata, W. Ma, A. V. Marenich, J. Martin del Campo,
   D. Mejia-Rodriguez, J. E. Moore, J. M. Mullin, T. Nakajima, D. R. Nascimento,
    J. A. Nichols, P. J. Nichols, J. Nieplocha, A. Otero-de-la-Roza, B. Palmer,
    A. Panyala, T. Pirojsirikul, B. Peng, R. Peverati, J. Pittner, L. Pollack,
   R. M. Richard, P. Sadayappan, G. C. Schatz, W. A. Shelton, D. W. Silverstein,
   D. M. A. Smith, T. A. Soares, D. Song, M. Swart, H. L. Taylor, G. S. Thomas,
            V. Tipparaju, D. G. Truhlar, K. Tsemekhman, T. Van Voorhis,
      A. Vazquez-Mayagoitia, P. Verma, O. Villa, A. Vishnu, K. D. Vogiatzis,
        D. Wang, J. H. Weare, M. J. Williamson, T. L. Windus, K. Wolinski,
        A. T. Wong, Q. Wu, C. Yang, Q. Yu, M. Zacharias, Z. Zhang, Y. Zhao,
                                and R. J. Harrison
                        "NWChem: Past, present, and future
                         J. Chem. Phys. 152, 184102 (2020)
                               doi:10.1063/5.0004997
 
                                      AUTHORS
                                      -------
  E. Apra, E. J. Bylaska, N. Govind, K. Kowalski, M. Valiev, D. Mejia-Rodriguez,
       A. Kunitsa, N. P. Bauman, A. Panyala, W. A. de Jong, T. P. Straatsma,
   H. J. J. van Dam, D. Wang, T. L. Windus, J. Hammond, J. Autschbach, A. Woods,
    K. Bhaskaran-Nair, J. Brabec, K. Lopata, S. A. Fischer, S. Krishnamoorthy,
     M. Jacquelin, W. Ma, M. Klemm, O. Villa, Y. Chen, V. Anisimov, F. Aquino,
     S. Hirata, M. T. Hackler, E. Hermes, L. Jensen, J. E. Moore, J. C. Becca,
      V. Konjkov, T. Risthaus, M. Malagoli, A. Marenich, A. Otero-de-la-Roza,
        J. Mullin, P. Nichols, R. Peverati, J. Pittner, Y. Zhao, P.-D. Fan,
        A. Fonari, M. J. Williamson, R. J. Harrison, J. R. Rehr, M. Dupuis,
     D. Silverstein, D. M. A. Smith, J. Nieplocha, V. Tipparaju, M. Krishnan,
     B. E. Van Kuiken, A. Vazquez-Mayagoitia, M. Swart, Q. Wu, T. Van Voorhis,
     A. A. Auer, M. Nooijen, L. D. Crosby, E. Brown, G. Cisneros, G. I. Fann,
   H. Fruchtl, J. Garza, K. Hirao, R. A. Kendall, J. A. Nichols, K. Tsemekhman,
    K. Wolinski, J. Anchell, D. E. Bernholdt, P. Borowski, T. Clark, D. Clerc,
   H. Dachsel, M. J. O. Deegan, K. Dyall, D. Elwood, E. Glendening, M. Gutowski,
   A. C. Hess, J. Jaffe, B. G. Johnson, J. Ju, R. Kobayashi, R. Kutteh, Z. Lin,
   R. Littlefield, X. Long, B. Meng, T. Nakajima, S. Niu, L. Pollack, M. Rosing,
   K. Glaesemann, G. Sandrone, M. Stave, H. Taylor, G. Thomas, J. H. van Lenthe,
                               A. T. Wong, Z. Zhang.

 Total times  cpu:       53.9s     wall:       53.9s
