 argument  1 = input.nw
  NWChem w/ OpenMP: maximum threads =    1
 


============================== echo of input deck ==============================

echo
start H8
title "H8"

memory total 120 gb

geometry units bohr
symmetry c1
H 0 0 0
H 0 0 2.96
H 0 0 5.92
H 0 0 8.88
H 0 0 11.84
H 0 0 14.80
H 0 0 17.76
H 0 0 20.72
end

basis spherical
  * library cc-pVTZ
end

scf
thresh 1e-8
end

tce
  2eorb
  2emet 13
  ccsd
  thresh 1e-8
  maxiter 300
end

set tce:print_integrals T
set tce:qorb 8
set tce:qela 4
set tce:qelb 4

# set tce:qducc T
# set tce:nactv 4
# set tce:nonhf T
# set tce:ducc_model 6

set tce:printtol 0.02

task tce
================================================================================


                                         
                                         
 
 
             Northwest Computational Chemistry Package (NWChem) 7.2.3
             --------------------------------------------------------
 
 
                    Environmental Molecular Sciences Laboratory
                       Pacific Northwest National Laboratory
                                Richland, WA 99352
 
                              Copyright (c) 1994-2022
                       Pacific Northwest National Laboratory
                            Battelle Memorial Institute
 
             NWChem is an open-source computational chemistry package
                        distributed under the terms of the
                      Educational Community License (ECL) 2.0
             A copy of the license is included with this distribution
                              in the LICENSE.TXT file
 
                                  ACKNOWLEDGMENT
                                  --------------

            This software and its documentation were developed at the
            EMSL at Pacific Northwest National Laboratory, a multiprogram
            national laboratory, operated for the U.S. Department of Energy
            by Battelle under Contract Number DE-AC05-76RL01830. Support
            for this work was provided by the Department of Energy Office
            of Biological and Environmental Research, Office of Basic
            Energy Sciences, and the Office of Advanced Scientific Computing.


           Job information
           ---------------

    hostname        = koothan
    program         = /hpc/home/baum612/code/nwchem/bin/LINUX64/nwchem
    date            = Fri Nov 15 10:55:36 2024

    compiled        = Wed_Nov_13_16:23:19_2024
    source          = /hpc/home/baum612/code/nwchem
    nwchem branch   = 7.2.3
    nwchem revision = v7.2.0-beta1-1280-g0779ca2e41
    ga revision     = 5.8.0
    use scalapack   = T
    input           = input.nw
    prefix          = H8.
    data base       = ./H8.db
    status          = startup
    nproc           =        1
    time left       =     -1s



           Memory information
           ------------------

    heap     =   4026531840 doubles =    30720.0 Mbytes
    stack    =   4026531837 doubles =    30720.0 Mbytes
    global   =   8053063680 doubles =    61440.0 Mbytes (distinct from heap & stack)
    total    =  16106127357 doubles =   122880.0 Mbytes
    verify   = yes
    hardfail = no 


           Directory information
           ---------------------
 
  0 permanent = .
  0 scratch   = .
 
 
 
 
                                NWChem Input Module
                                -------------------
 
 
                                        H8
                                        --
 Turning off AUTOSYM since
 SYMMETRY directive was detected!
 

          ------
          auto-z
          ------
     1 autoz failed with cvr_scaling = 1.2 changing to 1.3
     2 autoz failed with cvr_scaling = 1.3 changing to 1.4
     3 autoz failed with cvr_scaling = 1.4 changing to 1.5
     4 autoz failed with cvr_scaling = 1.5 changing to 1.6
     5 autoz failed with cvr_scaling = 1.6 changing to 1.7

 AUTOZ failed to generate good internal coordinates.
 Cartesian coordinates will be used in optimizations.

 
 
                             Geometry "geometry" -> ""
                             -------------------------
 
 Output coordinates in a.u. (scale by  1.000000000 to convert to a.u.)
 
  No.       Tag          Charge          X              Y              Z
 ---- ---------------- ---------- -------------- -------------- --------------
    1 H                    1.0000     0.00000000     0.00000000   -10.36000000
    2 H                    1.0000     0.00000000     0.00000000    -7.40000000
    3 H                    1.0000     0.00000000     0.00000000    -4.44000000
    4 H                    1.0000     0.00000000     0.00000000    -1.48000000
    5 H                    1.0000     0.00000000     0.00000000     1.48000000
    6 H                    1.0000     0.00000000     0.00000000     4.44000000
    7 H                    1.0000     0.00000000     0.00000000     7.40000000
    8 H                    1.0000     0.00000000     0.00000000    10.36000000
 
      Atomic Mass 
      ----------- 
 
      H                  1.007825
 

 Effective nuclear repulsion energy (a.u.)       4.6428571429

            Nuclear Dipole moment (a.u.) 
            ----------------------------
        X                 Y               Z
 ---------------- ---------------- ----------------
     0.0000000000     0.0000000000     0.0000000000
 
 
            XYZ format geometry
            -------------------
     8
 geometry
 H                     0.00000000     0.00000000    -5.48227630
 H                     0.00000000     0.00000000    -3.91591164
 H                     0.00000000     0.00000000    -2.34954699
 H                     0.00000000     0.00000000    -0.78318233
 H                     0.00000000     0.00000000     0.78318233
 H                     0.00000000     0.00000000     2.34954699
 H                     0.00000000     0.00000000     3.91591164
 H                     0.00000000     0.00000000     5.48227630
 


 Summary of "ao basis" -> "" (spherical)
 ------------------------------------------------------------------------------
       Tag                 Description            Shells   Functions and Types
 ---------------- ------------------------------  ------  ---------------------
 *                          cc-pVTZ                   on all atoms 


                      Basis "ao basis" -> "ao basis" (spherical)
                      -----
  H (Hydrogen)
  ------------
            Exponent  Coefficients 
       -------------- ---------------------------------------------------------
  1 S  3.38700000E+01  0.006068
  1 S  5.09500000E+00  0.045308
  1 S  1.15900000E+00  0.202822
 
  2 S  3.25800000E-01  1.000000
 
  3 S  1.02700000E-01  1.000000
 
  4 P  1.40700000E+00  1.000000
 
  5 P  3.88000000E-01  1.000000
 
  6 D  1.05700000E+00  1.000000
 


 Summary of "ao basis" -> "ao basis" (spherical)
 ------------------------------------------------------------------------------
       Tag                 Description            Shells   Functions and Types
 ---------------- ------------------------------  ------  ---------------------
 H                          cc-pVTZ                  6       14   3s2p1d


                                 NWChem SCF Module
                                 -----------------
 
 
                                        H8
 
 

  ao basis        = "ao basis"
  functions       =   112
  atoms           =     8
  closed shells   =     4
  open shells     =     0
  charge          =   0.00
  wavefunction    = RHF 
  input vectors   = atomic
  output vectors  = ./H8.movecs
  use symmetry    = F
  symmetry adapt  = F


 Summary of "ao basis" -> "ao basis" (spherical)
 ------------------------------------------------------------------------------
       Tag                 Description            Shells   Functions and Types
 ---------------- ------------------------------  ------  ---------------------
 H                          cc-pVTZ                  6       14   3s2p1d



 Forming initial guess at       0.4s

 
      Superposition of Atomic Density Guess
      -------------------------------------
 
 Sum of atomic energies:          -3.99847357
 
      Non-variational initial energy
      ------------------------------

 Total energy =      -3.017380
 1-e energy   =     -13.234229
 2-e energy   =       5.573992
 HOMO         =      -0.247201
 LUMO         =      -0.149001
 

 Starting SCF solution at       0.5s



 ----------------------------------------------
         Quadratically convergent ROHF

 Convergence threshold     :          1.000E-08
 Maximum no. of iterations :           30
 Final Fock-matrix accuracy:          1.000E-10
 ----------------------------------------------


              iter       energy          gnorm     gmax       time
             ----- ------------------- --------- --------- --------
                 1       -3.9591527303  1.91D-01  9.18D-02      0.8
                 2       -3.9746781839  2.82D-02  1.86D-02      1.3
                 3       -3.9751254299  6.00D-04  3.40D-04      1.8
                 4       -3.9751256036  2.95D-07  1.94D-07      2.7
                 5       -3.9751256036  8.22D-10  4.96D-10      3.5


       Final RHF  results 
       ------------------ 

         Total SCF energy =     -3.975125603615
      One-electron energy =    -13.646610425712
      Two-electron energy =      5.028627679240
 Nuclear repulsion energy =      4.642857142857

        Time for solution =      3.0s


             Final eigenvalues
             -----------------

              1      
    1   -0.5224
    2   -0.4867
    3   -0.4292
    4   -0.3565
    5   -0.0896
    6    0.0066
    7    0.1082
    8    0.2100
    9    0.3550
   10    0.3700
   11    0.3900
   12    0.4199
   13    0.4627
   14    0.5215
 
                       ROHF Final Molecular Orbital Analysis
                       -------------------------------------
 
 Vector    1  Occ=2.000000D+00  E=-5.223858D-01
              MO Center= -3.8D-17,  2.1D-18, -1.6D-11, r^2= 7.3D+00
   Bfn.  Coefficient  Atom+Function         Bfn.  Coefficient  Atom+Function  
  ----- ------------  ---------------      ----- ------------  ---------------
    44      0.177086  4 H  s                 58      0.177086  5 H  s          
    30      0.159238  3 H  s                 72      0.159238  6 H  s          
 
 Vector    2  Occ=2.000000D+00  E=-4.866663D-01
              MO Center= -7.8D-17, -6.2D-18,  1.2D-11, r^2= 1.5D+01
   Bfn.  Coefficient  Atom+Function         Bfn.  Coefficient  Atom+Function  
  ----- ------------  ---------------      ----- ------------  ---------------
    16      0.171186  2 H  s                 86     -0.171186  7 H  s          
    17      0.151868  2 H  s                 87     -0.151868  7 H  s          
 
 Vector    3  Occ=2.000000D+00  E=-4.291591D-01
              MO Center= -1.4D-16, -2.4D-16, -6.4D-12, r^2= 1.8D+01
   Bfn.  Coefficient  Atom+Function         Bfn.  Coefficient  Atom+Function  
  ----- ------------  ---------------      ----- ------------  ---------------
    17      0.181794  2 H  s                 87      0.181794  7 H  s          
     2      0.167483  1 H  s                100      0.167483  8 H  s          
     3      0.159026  1 H  s                 16      0.159562  2 H  s          
    86      0.159562  7 H  s                101      0.159026  8 H  s          
 
 Vector    4  Occ=2.000000D+00  E=-3.564663D-01
              MO Center=  5.2D-17, -1.2D-18,  1.3D-11, r^2= 1.4D+01
   Bfn.  Coefficient  Atom+Function         Bfn.  Coefficient  Atom+Function  
  ----- ------------  ---------------      ----- ------------  ---------------
    31      0.213959  3 H  s                 73     -0.213959  6 H  s          
    45      0.179858  4 H  s                 59     -0.179858  5 H  s          
     3     -0.167828  1 H  s                101      0.167828  8 H  s          
    30      0.166525  3 H  s                 72     -0.166525  6 H  s          
 
 Vector    5  Occ=0.000000D+00  E=-8.958050D-02
              MO Center=  1.5D-17,  9.4D-18, -1.0D-11, r^2= 1.4D+01
   Bfn.  Coefficient  Atom+Function         Bfn.  Coefficient  Atom+Function  
  ----- ------------  ---------------      ----- ------------  ---------------
     3      0.310985  1 H  s                101      0.310985  8 H  s          
    31     -0.302961  3 H  s                 73     -0.302961  6 H  s          
    45      0.240819  4 H  s                 59      0.240819  5 H  s          
    30     -0.160917  3 H  s                 72     -0.160917  6 H  s          
 
 Vector    6  Occ=0.000000D+00  E= 6.643479D-03
              MO Center=  2.5D-17,  7.2D-17,  1.5D-11, r^2= 2.0D+01
   Bfn.  Coefficient  Atom+Function         Bfn.  Coefficient  Atom+Function  
  ----- ------------  ---------------      ----- ------------  ---------------
     3      0.502518  1 H  s                101     -0.502518  8 H  s          
    17     -0.465709  2 H  s                 87      0.465709  7 H  s          
    45      0.357085  4 H  s                 59     -0.357085  5 H  s          
    44      0.152447  4 H  s                 58     -0.152447  5 H  s          
 
 Vector    7  Occ=0.000000D+00  E= 1.081625D-01
              MO Center= -8.0D-19,  1.3D-17, -1.2D-11, r^2= 1.9D+01
   Bfn.  Coefficient  Atom+Function         Bfn.  Coefficient  Atom+Function  
  ----- ------------  ---------------      ----- ------------  ---------------
    17      0.790936  2 H  s                 87      0.790936  7 H  s          
    31     -0.665003  3 H  s                 73     -0.665003  6 H  s          
     3     -0.606185  1 H  s                101     -0.606185  8 H  s          
    45      0.280810  4 H  s                 59      0.280810  5 H  s          
    16      0.174874  2 H  s                 86      0.174874  7 H  s          
 
 Vector    8  Occ=0.000000D+00  E= 2.099842D-01
              MO Center=  3.7D-16,  1.0D-16,  8.2D-12, r^2= 1.2D+01
   Bfn.  Coefficient  Atom+Function         Bfn.  Coefficient  Atom+Function  
  ----- ------------  ---------------      ----- ------------  ---------------
    45      1.149458  4 H  s                 59     -1.149458  5 H  s          
    31     -1.034150  3 H  s                 73      1.034150  6 H  s          
    17      0.787495  2 H  s                 87     -0.787495  7 H  s          
     3     -0.556419  1 H  s                101      0.556419  8 H  s          
    44      0.217554  4 H  s                 58     -0.217554  5 H  s          
 
 Vector    9  Occ=0.000000D+00  E= 3.550202D-01
              MO Center=  4.4D-17,  3.7D-16, -3.3D-10, r^2= 1.2D+01
   Bfn.  Coefficient  Atom+Function         Bfn.  Coefficient  Atom+Function  
  ----- ------------  ---------------      ----- ------------  ---------------
    44      0.583660  4 H  s                 58      0.583660  5 H  s          
    30      0.564812  3 H  s                 72      0.564812  6 H  s          
    31     -0.484946  3 H  s                 45     -0.482778  4 H  s          
    59     -0.482778  5 H  s                 73     -0.484946  6 H  s          
     2      0.401982  1 H  s                100      0.401982  8 H  s          
 
 Vector   10  Occ=0.000000D+00  E= 3.699788D-01
              MO Center=  1.2D-16,  2.5D-16,  3.0D-10, r^2= 2.3D+01
   Bfn.  Coefficient  Atom+Function         Bfn.  Coefficient  Atom+Function  
  ----- ------------  ---------------      ----- ------------  ---------------
     2      0.694285  1 H  s                100     -0.694285  8 H  s          
     3     -0.689943  1 H  s                101      0.689943  8 H  s          
    30      0.526724  3 H  s                 72     -0.526724  6 H  s          
    31     -0.497993  3 H  s                 73      0.497993  6 H  s          
    16      0.451766  2 H  s                 86     -0.451766  7 H  s          
 
 Vector   11  Occ=0.000000D+00  E= 3.899872D-01
              MO Center=  7.5D-17, -1.1D-16, -7.8D-11, r^2= 2.5D+01
   Bfn.  Coefficient  Atom+Function         Bfn.  Coefficient  Atom+Function  
  ----- ------------  ---------------      ----- ------------  ---------------
     3      0.943997  1 H  s                101      0.943997  8 H  s          
     2     -0.795209  1 H  s                100     -0.795209  8 H  s          
    45     -0.549577  4 H  s                 59     -0.549577  5 H  s          
    44      0.541663  4 H  s                 58      0.541663  5 H  s          
 
 Vector   12  Occ=0.000000D+00  E= 4.198916D-01
              MO Center=  7.9D-17,  9.2D-17,  8.8D-11, r^2= 2.2D+01
   Bfn.  Coefficient  Atom+Function         Bfn.  Coefficient  Atom+Function  
  ----- ------------  ---------------      ----- ------------  ---------------
     3      0.996836  1 H  s                101     -0.996836  8 H  s          
    17     -0.691006  2 H  s                 87      0.691006  7 H  s          
     2     -0.661416  1 H  s                100      0.661416  8 H  s          
    45     -0.582939  4 H  s                 59      0.582939  5 H  s          
    30      0.459659  3 H  s                 72     -0.459659  6 H  s          
 
 Vector   13  Occ=0.000000D+00  E= 4.626538D-01
              MO Center= -1.2D-19, -8.4D-17, -2.1D-10, r^2= 1.8D+01
   Bfn.  Coefficient  Atom+Function         Bfn.  Coefficient  Atom+Function  
  ----- ------------  ---------------      ----- ------------  ---------------
    17      1.273739  2 H  s                 87      1.273739  7 H  s          
     3     -0.863221  1 H  s                101     -0.863221  8 H  s          
    16     -0.777495  2 H  s                 86     -0.777495  7 H  s          
    45     -0.589489  4 H  s                 59     -0.589489  5 H  s          
    44      0.475150  4 H  s                 58      0.475150  5 H  s          
 
 Vector   14  Occ=0.000000D+00  E= 5.214851D-01
              MO Center= -2.8D-16,  8.9D-17,  6.9D-11, r^2= 1.5D+01
   Bfn.  Coefficient  Atom+Function         Bfn.  Coefficient  Atom+Function  
  ----- ------------  ---------------      ----- ------------  ---------------
    17      1.806320  2 H  s                 87     -1.806320  7 H  s          
    31     -1.155800  3 H  s                 73      1.155800  6 H  s          
    16     -0.849592  2 H  s                 86      0.849592  7 H  s          
     3     -0.689084  1 H  s                101      0.689084  8 H  s          
    30      0.499170  3 H  s                 72     -0.499170  6 H  s          
 

 center of mass
 --------------
 x =   0.00000000 y =   0.00000000 z =   0.00000000

 moments of inertia (a.u.)
 ------------------
         370.866699840000           0.000000000000           0.000000000000
           0.000000000000         370.866699840000           0.000000000000
           0.000000000000           0.000000000000           0.000000000000
 
  Mulliken analysis of the total density
  --------------------------------------

    Atom       Charge   Shell Charges
 -----------   ------   -------------------------------------------------------
    1 H    1     0.97   0.13  0.40  0.42  0.00  0.01  0.00
    2 H    1     1.04   0.14  0.43  0.45  0.00  0.02  0.00
    3 H    1     0.99   0.14  0.43  0.40  0.00  0.02  0.00
    4 H    1     1.01   0.14  0.43  0.42  0.00  0.02  0.00
    5 H    1     1.01   0.14  0.43  0.42  0.00  0.02  0.00
    6 H    1     0.99   0.14  0.43  0.40  0.00  0.02  0.00
    7 H    1     1.04   0.14  0.43  0.45  0.00  0.02  0.00
    8 H    1     0.97   0.13  0.40  0.42  0.00  0.01  0.00
 
       Multipole analysis of the density wrt the origin
       ------------------------------------------------
 
     L   x y z        total         open         nuclear
     -   - - -        -----         ----         -------
     0   0 0 0     -0.000000      0.000000      8.000000
 
     1   1 0 0      0.000000      0.000000      0.000000
     1   0 1 0      0.000000      0.000000      0.000000
     1   0 0 1     -0.000000      0.000000      0.000000
 
     2   2 0 0     -9.123606      0.000000      0.000000
     2   1 1 0     -0.000000      0.000000      0.000000
     2   1 0 1     -0.000000      0.000000      0.000000
     2   0 2 0     -9.123606      0.000000      0.000000
     2   0 1 1      0.000000      0.000000      0.000000
     2   0 0 2     -1.207603      0.000000    367.987200
 
 ------------------------------------
     Number of active orbitals      8
     Number of active alpha electrons      4
     Number of active beta electrons       4
 ------------------------------------
                   NWChem Extensible Many-Electron Theory Module
                   ---------------------------------------------
 
              ======================================================
                   This portion of the program was automatically
                  generated by a Tensor Contraction Engine (TCE).
                  The development of this portion of the program
                 and TCE was supported by US Department of Energy,
                Office of Science, Office of Basic Energy Science.
                      TCE is a product of Battelle and PNNL.
              Please cite: S.Hirata, J.Phys.Chem.A 107, 9887 (2003).
              ======================================================
 
                                        H8
 
 
            General Information
            -------------------
      Number of processors :     1
         Wavefunction type : Restricted Hartree-Fock
          No. of electrons :     8
           Alpha electrons :     4
            Beta electrons :     4
           No. of orbitals :   224
            Alpha orbitals :   112
             Beta orbitals :   112
        Alpha frozen cores :     0
         Beta frozen cores :     0
     Alpha frozen virtuals :   104
      Beta frozen virtuals :   104
         Spin multiplicity : singlet 
    Number of AO functions :   112
       Number of AO shells :    48
        Use of symmetry is : off
      Symmetry adaption is : off
         Schwarz screening : 0.10D-09
 
          Correlation Information
          -----------------------
          Calculation type : Coupled-cluster singles & doubles                           
   Perturbative correction : none                                                        
            Max iterations :      300
        Residual threshold : 0.10D-07
     T(0) DIIS level shift : 0.00D+00
     L(0) DIIS level shift : 0.00D+00
     T(1) DIIS level shift : 0.00D+00
     L(1) DIIS level shift : 0.00D+00
     T(R) DIIS level shift : 0.00D+00
     T(I) DIIS level shift : 0.00D+00
   CC-T/L Amplitude update :  5-th order DIIS
                I/O scheme : Global Array Library
        L-threshold :  0.10D-07
        EOM-threshold :  0.10D-07
 no EOMCCSD initial starts read in
 TCE RESTART OPTIONS
 READ_INT:   F
 WRITE_INT:  F
 READ_TA:    F
 WRITE_TA:   F
 READ_XA:    F
 WRITE_XA:   F
 READ_IN3:   F
 WRITE_IN3:  F
 SLICE:      F
 D4D5:       F
 quantumc:   T
 qrotation:  F
 pwtce:      F
 qducc:      F
 nacto:                          0
 nrotv:                          0
 nrot:                           0
 
            Memory Information
            ------------------
          Available GA space size is    8053051136 doubles
          Available MA space size is    8053060452 doubles
 
 Maximum block size supplied by input
 Maximum block size         1 doubles

 tile_dim =      1

 Block   Spin    Irrep     Size     Offset   Alpha
 -------------------------------------------------
   1    alpha     a      1 doubles       0       1
   2    alpha     a      1 doubles       1       2
   3    alpha     a      1 doubles       2       3
   4    alpha     a      1 doubles       3       4
   5    beta      a      1 doubles       4       1
   6    beta      a      1 doubles       5       2
   7    beta      a      1 doubles       6       3
   8    beta      a      1 doubles       7       4
   9    alpha     a      1 doubles       8       9
  10    alpha     a      1 doubles       9      10
  11    alpha     a      1 doubles      10      11
  12    alpha     a      1 doubles      11      12
  13    beta      a      1 doubles      12       9
  14    beta      a      1 doubles      13      10
  15    beta      a      1 doubles      14      11
  16    beta      a      1 doubles      15      12

 Global array virtual files algorithm will be used

 Parallel file system coherency ......... OK
 
 Fock matrix recomputed
 1-e file size   =               64
 1-e file name   = ./H8.f1
 Cpu & wall time / sec            0.2            0.2
 4-electron integrals stored in orbital form
 
 v2    file size   =              666
 4-index algorithm nr.  13 is used
 imaxsize =       30
 imaxsize ichop =        0
 begin_one_electron_integrals
    1    1        -1.8378128477
    3    1         0.0993337302
    5    1         0.0299060264
    7    1        -0.0329828394
    2    2        -1.7132886707
    4    2        -0.1280625963
    6    2         0.0823302339
    8    2        -0.0249594612
    1    3         0.0993337302
    3    3        -1.6327840162
    5    3         0.1434110785
    7    3        -0.0660692955
    2    4        -0.1280625963
    4    4        -1.6394196783
    6    4        -0.1232153377
    8    4         0.0369394991
    1    5         0.0299060264
    3    5         0.1434110785
    5    5        -1.5622432615
    7    5        -0.1567918237
    2    6         0.0823302339
    4    6        -0.1232153377
    6    6        -1.4089874930
    8    6        -0.1545140698
    1    7        -0.0329828394
    3    7        -0.0660692955
    5    7        -0.1567918237
    7    7        -1.3534113220
    2    8        -0.0249594612
    4    8         0.0369394991
    6    8        -0.1545140698
    8    8        -1.3826710740
 end_one_electron_integrals
 begin_two_electron_integrals
    1    1    1    1        0.2652429254
    2    1    2    1        0.0968120382
    3    1    1    1       -0.0531707745
    3    1    3    1        0.0675369860
    3    1    2    2        0.0176502124
    4    1    2    1        0.0382786025
    4    1    4    1        0.0656219933
    4    1    3    2       -0.0290865360
    5    1    1    1        0.0028265344
    5    1    3    1       -0.0263065154
    5    1    5    1        0.0512456043
    5    1    2    2       -0.0263571449
    5    1    4    2       -0.0095975184
    5    1    3    3        0.0118460733
    5    1    4    4       -0.0027194171
    6    1    2    1       -0.0058211395
    6    1    4    1        0.0166518975
    6    1    6    1        0.0306367686
    6    1    3    2       -0.0196071989
    6    1    5    2        0.0216729079
    6    1    4    3       -0.0099103643
    6    1    5    4        0.0056308913
    7    1    1    1        0.0037642263
    7    1    3    1       -0.0001819928
    7    1    5    1        0.0197799672
    7    1    7    1        0.0287119211
    7    1    2    2        0.0018502785
    7    1    4    2       -0.0151863264
    7    1    6    2       -0.0088116390
    7    1    3    3        0.0163684160
    7    1    5    3       -0.0175033651
    7    1    4    4       -0.0085097103
    7    1    6    4        0.0121529677
    7    1    5    5       -0.0015516302
    7    1    6    6        0.0086255373
    8    1    2    1       -0.0006758055
    8    1    4    1        0.0013580526
    8    1    6    1        0.0164081493
    8    1    8    1        0.0373707504
    8    1    3    2        0.0003638379
    8    1    5    2        0.0172723948
    8    1    7    2        0.0180481360
    8    1    4    3       -0.0134509260
    8    1    6    3       -0.0152486802
    8    1    5    4        0.0234372591
    8    1    7    4        0.0116366825
    8    1    6    5        0.0057300933
    8    1    7    6        0.0007321036
    2    2    1    1        0.2096391857
    2    2    2    2        0.2284241276
    3    2    2    1        0.0583112973
    3    2    3    2        0.0895082227
    4    2    1    1        0.0553598785
    4    2    3    1       -0.0540049375
    4    2    2    2       -0.0000387395
    4    2    4    2        0.0661254084
    4    2    3    3       -0.0179765834
    5    2    2    1       -0.0359827925
    5    2    4    1       -0.0301577293
    5    2    3    2       -0.0013920294
    5    2    5    2        0.0464492167
    5    2    4    3       -0.0004304336
    6    2    1    1       -0.0080603264
    6    2    3    1       -0.0192738898
    6    2    5    1        0.0312854461
    6    2    2    2       -0.0281682301
    6    2    4    2       -0.0016581583
    6    2    6    2        0.0408083366
    6    2    3    3       -0.0032894859
    6    2    5    3        0.0148305501
    6    2    4    4        0.0032372697
    6    2    5    5       -0.0038661275
    7    2    2    1        0.0002682523
    7    2    4    1       -0.0203965290
    7    2    6    1       -0.0164316595
    7    2    3    2        0.0201784289
    7    2    5    2       -0.0029974247
    7    2    7    2        0.0348116535
    7    2    4    3        0.0001170590
    7    2    6    3       -0.0202137331
    7    2    5    4        0.0177807703
    7    2    6    5       -0.0006513232
    8    2    1    1        0.0048023386
    8    2    3    1        0.0003212502
    8    2    5    1        0.0202888174
    8    2    7    1        0.0243663390
    8    2    2    2        0.0038823801
    8    2    4    2       -0.0158588930
    8    2    6    2       -0.0032255380
    8    2    8    2        0.0264180606
    8    2    3    3        0.0198590722
    8    2    5    3       -0.0117227185
    8    2    7    3        0.0058275709
    8    2    4    4       -0.0012407028
    8    2    6    4        0.0133725707
    8    2    5    5       -0.0043711873
    8    2    7    5       -0.0077136921
    8    2    6    6        0.0099100321
    8    2    7    7        0.0025224289
    3    3    1    1        0.2013366269
    3    3    3    1        0.0079593998
    3    3    2    2        0.2087399653
    3    3    3    3        0.2196601785
    4    3    2    1       -0.0748019644
    4    3    4    1       -0.0126158446
    4    3    3    2       -0.0657325108
    4    3    4    3        0.0822863879
    5    3    1    1       -0.0471830549
    5    3    3    1        0.0396646228
    5    3    5    1       -0.0083033119
    5    3    2    2       -0.0048205302
    5    3    4    2       -0.0363932386
    5    3    3    3       -0.0022600374
    5    3    5    3        0.0471226217
    5    3    4    4       -0.0108590746
    6    3    2    1       -0.0259773674
    6    3    4    1       -0.0303023560
    6    3    6    1        0.0081013536
    6    3    3    2        0.0069891151
    6    3    5    2        0.0312213597
    6    3    4    3        0.0013727907
    6    3    6    3        0.0462437492
    6    3    5    4       -0.0161948733
    7    3    1    1        0.0087143955
    7    3    3    1        0.0202766916
    7    3    5    1       -0.0300502197
    7    3    7    1        0.0042441580
    7    3    2    2        0.0303609964
    7    3    4    2       -0.0001730538
    7    3    6    2       -0.0342609954
    7    3    3    3        0.0078889052
    7    3    5    3       -0.0078624036
    7    3    7    3        0.0361532738
    7    3    4    4        0.0048323067
    7    3    6    4        0.0109076391
    7    3    5    5        0.0004035085
    7    3    6    6        0.0060483041
    8    3    2    1        0.0067562839
    8    3    4    1       -0.0194650208
    8    3    6    1       -0.0250246395
    8    3    8    1       -0.0129763675
    8    3    3    2        0.0247303749
    8    3    5    2       -0.0133353967
    8    3    7    2        0.0154835536
    8    3    4    3        0.0011019218
    8    3    6    3       -0.0034660237
    8    3    8    3        0.0269609561
    8    3    5    4       -0.0084232200
    8    3    7    4       -0.0140219090
    8    3    6    5       -0.0022412145
    8    3    7    6       -0.0141302482
    4    4    1    1        0.2291017412
    4    4    3    1       -0.0218636636
    4    4    2    2        0.2069428268
    4    4    4    2        0.0258808376
    4    4    3    3        0.2015715528
    4    4    4    4        0.2217549255
    5    4    2    1       -0.0477879881
    5    4    4    1       -0.0054102469
    5    4    3    2       -0.0429655195
    5    4    5    2        0.0111595750
    5    4    4    3        0.0431242673
    5    4    5    4        0.0495298375
    6    4    1    1        0.0483694675
    6    4    3    1       -0.0390521301
    6    4    5    1        0.0072285539
    6    4    2    2        0.0072182539
    6    4    4    2        0.0367689432
    6    4    6    2       -0.0099135524
    6    4    3    3        0.0049306431
    6    4    5    3       -0.0412416537
    6    4    4    4        0.0185451370
    6    4    6    4        0.0431661951
    6    4    5    5        0.0139638391
    7    4    2    1       -0.0384165800
    7    4    4    1       -0.0303455889
    7    4    6    1        0.0143437745
    7    4    3    2       -0.0050964536
    7    4    5    2        0.0384210398
    7    4    7    2       -0.0022667465
    7    4    4    3        0.0096385709
    7    4    6    3        0.0289523273
    7    4    5    4        0.0127193782
    7    4    7    4        0.0392221339
    7    4    6    5       -0.0067603995
    8    4    1    1        0.0041111647
    8    4    3    1       -0.0299018040
    8    4    5    1        0.0419218752
    8    4    7    1        0.0139107517
    8    4    2    2       -0.0283245767
    8    4    4    2        0.0017097658
    8    4    6    2        0.0275367943
    8    4    8    2        0.0149715729
    8    4    3    3        0.0010755805
    8    4    5    3       -0.0114129979
    8    4    7    3       -0.0273135889
    8    4    4    4       -0.0040627547
    8    4    6    4        0.0109117535
    8    4    8    4        0.0413284565
    8    4    5    5       -0.0040625467
    8    4    7    5        0.0014875752
    8    4    6    6        0.0005527464
    8    4    7    7       -0.0157092740
    5    5    1    1        0.2246668795
    5    5    3    1       -0.0207650844
    5    5    5    1       -0.0021833930
    5    5    2    2        0.2028791301
    5    5    4    2        0.0239728851
    5    5    3    3        0.1966659989
    5    5    5    3       -0.0175369368
    5    5    4    4        0.2092930132
    5    5    5    5        0.2132144223
    6    5    2    1        0.0705979577
    6    5    4    1        0.0104802402
    6    5    6    1        0.0017752276
    6    5    3    2        0.0621305610
    6    5    5    2       -0.0070770788
    6    5    4    3       -0.0706702974
    6    5    6    3       -0.0009792451
    6    5    5    4       -0.0426469586
    6    5    6    5        0.0716560132
    7    5    1    1        0.0573163960
    7    5    3    1       -0.0490522268
    7    5    5    1       -0.0002665459
    7    5    7    1       -0.0056271740
    7    5    2    2        0.0064024615
    7    5    4    2        0.0532500020
    7    5    6    2       -0.0016089414
    7    5    3    3       -0.0028861248
    7    5    5    3       -0.0361553085
    7    5    7    3       -0.0001501060
    7    5    4    4        0.0283829370
    7    5    6    4        0.0350366057
    7    5    5    5        0.0282116975
    7    5    7    5        0.0523620994
    7    5    6    6       -0.0045708495
    8    5    2    1        0.0403749389
    8    5    4    1        0.0512115635
    8    5    6    1        0.0081519160
    8    5    8    1        0.0006791235
    8    5    3    2       -0.0125019412
    8    5    5    2       -0.0291564534
    8    5    7    2       -0.0120105902
    8    5    4    3       -0.0168189281
    8    5    6    3       -0.0277738040
    8    5    8    3       -0.0113854317
    8    5    5    4       -0.0088574454
    8    5    7    4       -0.0284081245
    8    5    6    5        0.0156199085
    8    5    8    5        0.0476286676
    8    5    7    6        0.0096542125
    6    6    1    1        0.1939557878
    6    6    3    1        0.0061278468
    6    6    5    1        0.0018878996
    6    6    2    2        0.1998964538
    6    6    4    2       -0.0081081679
    6    6    6    2       -0.0056808568
    6    6    3    3        0.2017374936
    6    6    5    3       -0.0024101965
    6    6    4    4        0.1926532744
    6    6    6    4        0.0025202703
    6    6    5    5        0.1921077551
    6    6    6    6        0.1974952608
    7    6    2    1       -0.0540217151
    7    6    4    1        0.0151155717
    7    6    6    1        0.0109364101
    7    6    3    2       -0.0710540932
    7    6    5    2        0.0019266980
    7    6    7    2       -0.0094941443
    7    6    4    3        0.0592389959
    7    6    6    3       -0.0070076287
    7    6    5    4        0.0400010698
    7    6    7    4        0.0039791078
    7    6    6    5       -0.0583167595
    7    6    7    6        0.0659119435
    8    6    1    1        0.0556718084
    8    6    3    1       -0.0525450299
    8    6    5    1        0.0155792361
    8    6    7    1        0.0014418506
    8    6    2    2        0.0006136947
    8    6    4    2        0.0456861797
    8    6    6    2        0.0084874158
    8    6    8    2        0.0007895319
    8    6    3    3        0.0035430016
    8    6    5    3       -0.0356745727
    8    6    7    3       -0.0099175023
    8    6    4    4        0.0277427023
    8    6    6    4        0.0349714299
    8    6    8    4        0.0191084434
    8    6    5    5        0.0269720079
    8    6    7    5        0.0439386483
    8    6    6    6        0.0025402744
    8    6    8    6        0.0482084791
    8    6    7    7        0.0030858839
    7    7    1    1        0.2019377969
    7    7    3    1        0.0039232362
    7    7    5    1       -0.0129151587
    7    7    7    1        0.0018765728
    7    7    2    2        0.2061104759
    7    7    4    2        0.0048600916
    7    7    6    2       -0.0157255637
    7    7    3    3        0.1956034205
    7    7    5    3       -0.0073412294
    7    7    7    3        0.0167022525
    7    7    4    4        0.1965847202
    7    7    6    4        0.0080371362
    7    7    5    5        0.1950235765
    7    7    7    5        0.0090200879
    7    7    6    6        0.1901439472
    7    7    7    7        0.1971734958
    8    7    2    1        0.0775731285
    8    7    4    1        0.0261156824
    8    7    6    1       -0.0034553537
    8    7    8    1       -0.0010011370
    8    7    3    2        0.0518715011
    8    7    5    2       -0.0242649653
    8    7    7    2       -0.0013416667
    8    7    4    3       -0.0640229777
    8    7    6    3       -0.0150503320
    8    7    8    3        0.0041392753
    8    7    5    4       -0.0419187123
    8    7    7    4       -0.0261152359
    8    7    6    5        0.0619908075
    8    7    8    5        0.0285571585
    8    7    7    6       -0.0500443962
    8    7    8    7        0.0684368517
    8    8    1    1        0.2474563018
    8    8    3    1       -0.0438195384
    8    8    5    1        0.0031566935
    8    8    7    1        0.0033724520
    8    8    2    2        0.2016158184
    8    8    4    2        0.0450679493
    8    8    6    2       -0.0059843346
    8    8    8    2        0.0040295363
    8    8    3    3        0.1954182501
    8    8    5    3       -0.0386555619
    8    8    7    3        0.0061698379
    8    8    4    4        0.2178763794
    8    8    6    4        0.0393429450
    8    8    8    4        0.0043298168
    8    8    5    5        0.2149483441
    8    8    7    5        0.0470863143
    8    8    6    6        0.1898126008
    8    8    8    6        0.0467462960
    8    8    7    7        0.1960867477
    8    8    8    8        0.2369421490
 end_two_electron_integrals
 enrep_tce =    4.64285714285714     
  EHF(A)             =        -3.97512560
  EHF(total)         =        -3.97512560
  Shift (HFtot-HFA)  =         0.00000000
 Cpu & wall time / sec           11.4           11.4
 T1-number-of-tasks                    16
 
 t1 file size   =               16
 t1 file name   = ./H8.t1
 t1 file handle =       -998
 T2-number-of-boxes                   356
 
 t2 file size   =              356
 t2 file name   = ./H8.t2
 t2 file handle =       -996
CCSD iterations
 ---------------------------------------------------------
 Iter          Residuum       Correlation     Cpu    Wall 
 ---------------------------------------------------------
NEW TASK SCHEDULING
CCSD_T1_NTS --- OK
CCSD_T2_NTS --- OK
    1   0.1250909916875  -0.0791041635404     1.1     1.1
    2   0.0666996858451  -0.1116712541551     1.1     1.1
    3   0.0395694399126  -0.1277147755447     1.1     1.1
    4   0.0253906666997  -0.1359832961469     1.1     1.1
    5   0.0177638087638  -0.1406663711116     1.1     1.1
 MICROCYCLE DIIS UPDATE:                     5                     5
    6   0.0072962997556  -0.1474289967065     1.1     1.1
    7   0.0050651058765  -0.1483416354334     1.1     1.1
    8   0.0043852181168  -0.1485128512445     1.1     1.1
    9   0.0037139149217  -0.1486722976088     1.1     1.1
   10   0.0031568139733  -0.1488183110056     1.1     1.1
 MICROCYCLE DIIS UPDATE:                    10                     5
   11   0.0010866196275  -0.1494557662567     1.1     1.1
   12   0.0005840235733  -0.1496817184946     1.1     1.1
   13   0.0003772790302  -0.1497891341468     1.1     1.1
   14   0.0002628637506  -0.1498439548294     1.1     1.1
   15   0.0001960530765  -0.1498769249052     1.1     1.1
 MICROCYCLE DIIS UPDATE:                    15                     5
   16   0.0000860296268  -0.1499366160005     1.1     1.1
   17   0.0000640860378  -0.1499417129626     1.1     1.1
   18   0.0000539906606  -0.1499419141952     1.1     1.1
   19   0.0000459988704  -0.1499426046167     1.1     1.1
   20   0.0000391882523  -0.1499439011759     1.1     1.1
 MICROCYCLE DIIS UPDATE:                    20                     5
   21   0.0000144440740  -0.1499523792687     1.1     1.1
   22   0.0000078792754  -0.1499544095764     1.1     1.1
   23   0.0000053284100  -0.1499554206294     1.1     1.1
   24   0.0000041201132  -0.1499559206746     1.1     1.1
   25   0.0000032919237  -0.1499562932718     1.1     1.1
 MICROCYCLE DIIS UPDATE:                    25                     5
   26   0.0000012902770  -0.1499574516525     1.1     1.1
   27   0.0000009920332  -0.1499574871006     1.1     1.1
   28   0.0000007754716  -0.1499574828855     1.1     1.1
   29   0.0000006559247  -0.1499574842969     1.1     1.1
   30   0.0000005536489  -0.1499574985179     1.1     1.1
 MICROCYCLE DIIS UPDATE:                    30                     5
   31   0.0000002821124  -0.1499575588116     1.1     1.1
   32   0.0000001605244  -0.1499576143995     1.1     1.1
   33   0.0000001235016  -0.1499576333968     1.1     1.1
   34   0.0000000991198  -0.1499576449875     1.1     1.1
   35   0.0000000818858  -0.1499576529000     1.1     1.1
 MICROCYCLE DIIS UPDATE:                    35                     5
   36   0.0000000285342  -0.1499576825908     1.1     1.1
   37   0.0000000208509  -0.1499576832276     1.1     1.1
   38   0.0000000157706  -0.1499576830453     1.1     1.1
   39   0.0000000131040  -0.1499576830261     1.1     1.1
   40   0.0000000109471  -0.1499576832743     1.1     1.1
 MICROCYCLE DIIS UPDATE:                    40                     5
   41   0.0000000060982  -0.1499576840951     1.1     1.1
 -----------------------------------------------------------------
 Iterations converged
 CCSD correlation energy / hartree =        -0.149957684095135
 CCSD total energy / hartree       =        -4.125083287709764

 Singles contributions
     6a   (alpha) ---     4a   (alpha)       -0.0296675864
     7a   (alpha) ---     3a   (alpha)       -0.0208593243

 Doubles contributions
     5a   (alpha)     6a   (alpha) ---     2a   (alpha)     3a   (alpha)       -0.0244535328
     5a   (alpha)     6a   (alpha) ---     3a   (alpha)     4a   (alpha)        0.0601492911
     5a   (alpha)     7a   (alpha) ---     2a   (alpha)     4a   (alpha)       -0.0488819974
     5a   (alpha)     8a   (alpha) ---     1a   (alpha)     4a   (alpha)       -0.0456506107
     5a   (alpha)     5a   (beta ) ---     1a   (alpha)     1a   (beta )       -0.0466737219
     5a   (alpha)     5a   (beta ) ---     2a   (alpha)     2a   (beta )       -0.0551446609
     5a   (alpha)     5a   (beta ) ---     2a   (alpha)     4a   (beta )       -0.0317042098
     5a   (alpha)     5a   (beta ) ---     3a   (alpha)     3a   (beta )       -0.0915540060
     5a   (alpha)     5a   (beta ) ---     4a   (alpha)     2a   (beta )       -0.0317042098
     5a   (alpha)     5a   (beta ) ---     4a   (alpha)     4a   (beta )       -0.3303557011
     5a   (alpha)     6a   (beta ) ---     1a   (alpha)     2a   (beta )       -0.0346359789
     5a   (alpha)     6a   (beta ) ---     2a   (alpha)     1a   (beta )       -0.0231455899
     5a   (alpha)     6a   (beta ) ---     2a   (alpha)     3a   (beta )       -0.0465237197
     5a   (alpha)     6a   (beta ) ---     3a   (alpha)     2a   (beta )       -0.0220701869
     5a   (alpha)     6a   (beta ) ---     3a   (alpha)     4a   (beta )        0.1603573119
     5a   (alpha)     6a   (beta ) ---     4a   (alpha)     3a   (beta )        0.1002080207
     5a   (alpha)     7a   (beta ) ---     1a   (alpha)     1a   (beta )       -0.0222010050
     5a   (alpha)     7a   (beta ) ---     1a   (alpha)     3a   (beta )        0.0437943193
     5a   (alpha)     7a   (beta ) ---     2a   (alpha)     4a   (beta )       -0.1157191412
     5a   (alpha)     7a   (beta ) ---     3a   (alpha)     1a   (beta )        0.0254577757
     5a   (alpha)     7a   (beta ) ---     3a   (alpha)     3a   (beta )        0.0346665211
     5a   (alpha)     7a   (beta ) ---     4a   (alpha)     2a   (beta )       -0.0668371439
     5a   (alpha)     7a   (beta ) ---     4a   (alpha)     4a   (beta )       -0.0284747104
     5a   (alpha)     8a   (beta ) ---     1a   (alpha)     2a   (beta )       -0.0282916487
     5a   (alpha)     8a   (beta ) ---     1a   (alpha)     4a   (beta )       -0.1083692209
     5a   (alpha)     8a   (beta ) ---     2a   (alpha)     1a   (beta )       -0.0233385382
     5a   (alpha)     8a   (beta ) ---     2a   (alpha)     3a   (beta )        0.0313280551
     5a   (alpha)     8a   (beta ) ---     3a   (alpha)     2a   (beta )        0.0267486389
     5a   (alpha)     8a   (beta ) ---     3a   (alpha)     4a   (beta )        0.0228259269
     5a   (alpha)     8a   (beta ) ---     4a   (alpha)     1a   (beta )       -0.0627186102
     6a   (alpha)     7a   (alpha) ---     2a   (alpha)     3a   (alpha)        0.0270921296
     6a   (alpha)     7a   (alpha) ---     3a   (alpha)     4a   (alpha)       -0.0230774282
     6a   (alpha)     8a   (alpha) ---     1a   (alpha)     3a   (alpha)        0.0224940138
     6a   (alpha)     5a   (beta ) ---     1a   (alpha)     2a   (beta )       -0.0231455899
     6a   (alpha)     5a   (beta ) ---     2a   (alpha)     1a   (beta )       -0.0346359789
     6a   (alpha)     5a   (beta ) ---     2a   (alpha)     3a   (beta )       -0.0220701869
     6a   (alpha)     5a   (beta ) ---     3a   (alpha)     2a   (beta )       -0.0465237197
     6a   (alpha)     5a   (beta ) ---     3a   (alpha)     4a   (beta )        0.1002080207
     6a   (alpha)     5a   (beta ) ---     4a   (alpha)     3a   (beta )        0.1603573119
     6a   (alpha)     6a   (beta ) ---     1a   (alpha)     1a   (beta )       -0.0366176879
     6a   (alpha)     6a   (beta ) ---     2a   (alpha)     2a   (beta )       -0.0554313660
     6a   (alpha)     6a   (beta ) ---     2a   (alpha)     4a   (beta )        0.0380158500
     6a   (alpha)     6a   (beta ) ---     3a   (alpha)     3a   (beta )       -0.1372594812
     6a   (alpha)     6a   (beta ) ---     4a   (alpha)     2a   (beta )        0.0380158500
     6a   (alpha)     6a   (beta ) ---     4a   (alpha)     4a   (beta )       -0.0799556369
     6a   (alpha)     7a   (beta ) ---     1a   (alpha)     2a   (beta )        0.0231122500
     6a   (alpha)     7a   (beta ) ---     1a   (alpha)     4a   (beta )       -0.0328524328
     6a   (alpha)     7a   (beta ) ---     2a   (alpha)     3a   (beta )        0.0804449670
     6a   (alpha)     7a   (beta ) ---     3a   (alpha)     2a   (beta )        0.0533528374
     6a   (alpha)     7a   (beta ) ---     3a   (alpha)     4a   (beta )       -0.0401942613
     6a   (alpha)     7a   (beta ) ---     4a   (alpha)     1a   (beta )       -0.0271965378
     6a   (alpha)     8a   (beta ) ---     1a   (alpha)     1a   (beta )       -0.0230620566
     6a   (alpha)     8a   (beta ) ---     1a   (alpha)     3a   (beta )        0.0609582479
     6a   (alpha)     8a   (beta ) ---     2a   (alpha)     4a   (beta )       -0.0362387860
     6a   (alpha)     8a   (beta ) ---     3a   (alpha)     1a   (beta )        0.0384642341
     7a   (alpha)     5a   (beta ) ---     1a   (alpha)     1a   (beta )       -0.0222010050
     7a   (alpha)     5a   (beta ) ---     1a   (alpha)     3a   (beta )        0.0254577757
     7a   (alpha)     5a   (beta ) ---     2a   (alpha)     4a   (beta )       -0.0668371439
     7a   (alpha)     5a   (beta ) ---     3a   (alpha)     1a   (beta )        0.0437943193
     7a   (alpha)     5a   (beta ) ---     3a   (alpha)     3a   (beta )        0.0346665211
     7a   (alpha)     5a   (beta ) ---     4a   (alpha)     2a   (beta )       -0.1157191412
     7a   (alpha)     5a   (beta ) ---     4a   (alpha)     4a   (beta )       -0.0284747104
     7a   (alpha)     6a   (beta ) ---     1a   (alpha)     4a   (beta )       -0.0271965378
     7a   (alpha)     6a   (beta ) ---     2a   (alpha)     1a   (beta )        0.0231122500
     7a   (alpha)     6a   (beta ) ---     2a   (alpha)     3a   (beta )        0.0533528374
     7a   (alpha)     6a   (beta ) ---     3a   (alpha)     2a   (beta )        0.0804449670
     7a   (alpha)     6a   (beta ) ---     4a   (alpha)     1a   (beta )       -0.0328524328
     7a   (alpha)     6a   (beta ) ---     4a   (alpha)     3a   (beta )       -0.0401942613
     7a   (alpha)     7a   (beta ) ---     1a   (alpha)     1a   (beta )       -0.0372183979
     7a   (alpha)     7a   (beta ) ---     2a   (alpha)     2a   (beta )       -0.0763984932
     7a   (alpha)     7a   (beta ) ---     3a   (alpha)     3a   (beta )       -0.0444858274
     7a   (alpha)     7a   (beta ) ---     4a   (alpha)     4a   (beta )       -0.0399640743
     7a   (alpha)     8a   (beta ) ---     1a   (alpha)     2a   (beta )       -0.0491181676
     7a   (alpha)     8a   (beta ) ---     1a   (alpha)     4a   (beta )       -0.0203158861
     7a   (alpha)     8a   (beta ) ---     2a   (alpha)     1a   (beta )       -0.0359447489
     7a   (alpha)     8a   (beta ) ---     3a   (alpha)     4a   (beta )        0.0252862270
     8a   (alpha)     5a   (beta ) ---     1a   (alpha)     2a   (beta )       -0.0233385382
     8a   (alpha)     5a   (beta ) ---     1a   (alpha)     4a   (beta )       -0.0627186102
     8a   (alpha)     5a   (beta ) ---     2a   (alpha)     1a   (beta )       -0.0282916487
     8a   (alpha)     5a   (beta ) ---     2a   (alpha)     3a   (beta )        0.0267486389
     8a   (alpha)     5a   (beta ) ---     3a   (alpha)     2a   (beta )        0.0313280551
     8a   (alpha)     5a   (beta ) ---     4a   (alpha)     1a   (beta )       -0.1083692209
     8a   (alpha)     5a   (beta ) ---     4a   (alpha)     3a   (beta )        0.0228259269
     8a   (alpha)     6a   (beta ) ---     1a   (alpha)     1a   (beta )       -0.0230620566
     8a   (alpha)     6a   (beta ) ---     1a   (alpha)     3a   (beta )        0.0384642341
     8a   (alpha)     6a   (beta ) ---     3a   (alpha)     1a   (beta )        0.0609582479
     8a   (alpha)     6a   (beta ) ---     4a   (alpha)     2a   (beta )       -0.0362387860
     8a   (alpha)     7a   (beta ) ---     1a   (alpha)     2a   (beta )       -0.0359447489
     8a   (alpha)     7a   (beta ) ---     2a   (alpha)     1a   (beta )       -0.0491181676
     8a   (alpha)     7a   (beta ) ---     4a   (alpha)     1a   (beta )       -0.0203158861
     8a   (alpha)     7a   (beta ) ---     4a   (alpha)     3a   (beta )        0.0252862270
     8a   (alpha)     8a   (beta ) ---     1a   (alpha)     1a   (beta )       -0.0658120569
     8a   (alpha)     8a   (beta ) ---     2a   (alpha)     2a   (beta )       -0.0291000117
     8a   (alpha)     8a   (beta ) ---     3a   (alpha)     3a   (beta )       -0.0248812741
     8a   (alpha)     8a   (beta ) ---     4a   (alpha)     4a   (beta )       -0.0284187469
 Ground state specification:
 exp(T)|Ref>~(1+T)|Ref>
 ------- a(p)+/a(q) strings ----------

 singles norm

 doubles norm

 Reference string
  0.894514177932397      :(1a)+ (2a)+ (3a)+ (4a)+ (1b)+ (2b)+ (3b)+ (4b)+ |0>

 Singles strings

 Doubles strings
 -0.295507858396096      :(5a)+ (5b)+ (4b)  (4a)  (1a)+ (2a)+ (3a)+ (4a)+ (1b)+ 
 (2b)+ (3b)+ (4b)+ |0>
  0.143441889001342      :(5a)+ (6b)+ (4b)  (3a)  (1a)+ (2a)+ (3a)+ (4a)+ (1b)+ 
 (2b)+ (3b)+ (4b)+ |0>
  8.963749528355142E-002 :(5a)+ (6b)+ (3b)  (4a)  (1a)+ (2a)+ (3a)+ (4a)+ (1b)+ 
 (2b)+ (3b)+ (4b)+ |0>
 -0.103512412496095      :(5a)+ (7b)+ (4b)  (2a)  (1a)+ (2a)+ (3a)+ (4a)+ (1b)+ 
 (2b)+ (3b)+ (4b)+ |0>
 -9.693780458761933E-002 :(5a)+ (8b)+ (4b)  (1a)  (1a)+ (2a)+ (3a)+ (4a)+ (1b)+ 
 (2b)+ (3b)+ (4b)+ |0>
  8.963749528355132E-002 :(6a)+ (5b)+ (4b)  (3a)  (1a)+ (2a)+ (3a)+ (4a)+ (1b)+ 
 (2b)+ (3b)+ (4b)+ |0>
  0.143441889001343      :(6a)+ (5b)+ (3b)  (4a)  (1a)+ (2a)+ (3a)+ (4a)+ (1b)+ 
 (2b)+ (3b)+ (4b)+ |0>
 -0.122780551978141      :(6a)+ (6b)+ (3b)  (3a)  (1a)+ (2a)+ (3a)+ (4a)+ (1b)+ 
 (2b)+ (3b)+ (4b)+ |0>
 -0.103512412496095      :(7a)+ (5b)+ (2b)  (4a)  (1a)+ (2a)+ (3a)+ (4a)+ (1b)+ 
 (2b)+ (3b)+ (4b)+ |0>
 -9.693780458761943E-002 :(8a)+ (5b)+ (1b)  (4a)  (1a)+ (2a)+ (3a)+ (4a)+ (1b)+ 
 (2b)+ (3b)+ (4b)+ |0>
 -------------------------------------

 Task  times  cpu:       61.8s     wall:       61.8s
 
 
                                NWChem Input Module
                                -------------------
 
 
 Summary of allocated global arrays
-----------------------------------
  No active global arrays


MA_summarize_allocated_blocks: starting scan ...
MA_summarize_allocated_blocks: scan completed: 0 heap blocks, 0 stack blocks
MA usage statistics:

	allocation statistics:
					      heap	     stack
					      ----	     -----
	current number of blocks	         0	         0
	maximum number of blocks	        16	        42
	current total bytes		         0	         0
	maximum total bytes		     80104	  33006664
	maximum total K-bytes		        81	     33007
	maximum total M-bytes		         1	        34
 
 
                                     CITATION
                                     --------
                Please cite the following reference when publishing
                           results obtained with NWChem:
 
          E. Apra, E. J. Bylaska, W. A. de Jong, N. Govind, K. Kowalski,
       T. P. Straatsma, M. Valiev, H. J. J. van Dam, Y. Alexeev, J. Anchell,
       V. Anisimov, F. W. Aquino, R. Atta-Fynn, J. Autschbach, N. P. Bauman,
     J. C. Becca, D. E. Bernholdt, K. Bhaskaran-Nair, S. Bogatko, P. Borowski,
         J. Boschen, J. Brabec, A. Bruner, E. Cauet, Y. Chen, G. N. Chuev,
      C. J. Cramer, J. Daily, M. J. O. Deegan, T. H. Dunning Jr., M. Dupuis,
   K. G. Dyall, G. I. Fann, S. A. Fischer, A. Fonari, H. Fruchtl, L. Gagliardi,
      J. Garza, N. Gawande, S. Ghosh, K. Glaesemann, A. W. Gotz, J. Hammond,
       V. Helms, E. D. Hermes, K. Hirao, S. Hirata, M. Jacquelin, L. Jensen,
   B. G. Johnson, H. Jonsson, R. A. Kendall, M. Klemm, R. Kobayashi, V. Konkov,
      S. Krishnamoorthy, M. Krishnan, Z. Lin, R. D. Lins, R. J. Littlefield,
      A. J. Logsdail, K. Lopata, W. Ma, A. V. Marenich, J. Martin del Campo,
   D. Mejia-Rodriguez, J. E. Moore, J. M. Mullin, T. Nakajima, D. R. Nascimento,
    J. A. Nichols, P. J. Nichols, J. Nieplocha, A. Otero-de-la-Roza, B. Palmer,
    A. Panyala, T. Pirojsirikul, B. Peng, R. Peverati, J. Pittner, L. Pollack,
   R. M. Richard, P. Sadayappan, G. C. Schatz, W. A. Shelton, D. W. Silverstein,
   D. M. A. Smith, T. A. Soares, D. Song, M. Swart, H. L. Taylor, G. S. Thomas,
            V. Tipparaju, D. G. Truhlar, K. Tsemekhman, T. Van Voorhis,
      A. Vazquez-Mayagoitia, P. Verma, O. Villa, A. Vishnu, K. D. Vogiatzis,
        D. Wang, J. H. Weare, M. J. Williamson, T. L. Windus, K. Wolinski,
        A. T. Wong, Q. Wu, C. Yang, Q. Yu, M. Zacharias, Z. Zhang, Y. Zhao,
                                and R. J. Harrison
                        "NWChem: Past, present, and future
                         J. Chem. Phys. 152, 184102 (2020)
                               doi:10.1063/5.0004997
 
                                      AUTHORS
                                      -------
  E. Apra, E. J. Bylaska, N. Govind, K. Kowalski, M. Valiev, D. Mejia-Rodriguez,
       A. Kunitsa, N. P. Bauman, A. Panyala, W. A. de Jong, T. P. Straatsma,
   H. J. J. van Dam, D. Wang, T. L. Windus, J. Hammond, J. Autschbach, A. Woods,
    K. Bhaskaran-Nair, J. Brabec, K. Lopata, S. A. Fischer, S. Krishnamoorthy,
     M. Jacquelin, W. Ma, M. Klemm, O. Villa, Y. Chen, V. Anisimov, F. Aquino,
     S. Hirata, M. T. Hackler, E. Hermes, L. Jensen, J. E. Moore, J. C. Becca,
      V. Konjkov, T. Risthaus, M. Malagoli, A. Marenich, A. Otero-de-la-Roza,
        J. Mullin, P. Nichols, R. Peverati, J. Pittner, Y. Zhao, P.-D. Fan,
        A. Fonari, M. J. Williamson, R. J. Harrison, J. R. Rehr, M. Dupuis,
     D. Silverstein, D. M. A. Smith, J. Nieplocha, V. Tipparaju, M. Krishnan,
     B. E. Van Kuiken, A. Vazquez-Mayagoitia, M. Swart, Q. Wu, T. Van Voorhis,
     A. A. Auer, M. Nooijen, L. D. Crosby, E. Brown, G. Cisneros, G. I. Fann,
   H. Fruchtl, J. Garza, K. Hirao, R. A. Kendall, J. A. Nichols, K. Tsemekhman,
    K. Wolinski, J. Anchell, D. E. Bernholdt, P. Borowski, T. Clark, D. Clerc,
   H. Dachsel, M. J. O. Deegan, K. Dyall, D. Elwood, E. Glendening, M. Gutowski,
   A. C. Hess, J. Jaffe, B. G. Johnson, J. Ju, R. Kobayashi, R. Kutteh, Z. Lin,
   R. Littlefield, X. Long, B. Meng, T. Nakajima, S. Niu, L. Pollack, M. Rosing,
   K. Glaesemann, G. Sandrone, M. Stave, H. Taylor, G. Thomas, J. H. van Lenthe,
                               A. T. Wong, Z. Zhang.

 Total times  cpu:       62.2s     wall:       62.2s
