 argument  1 = input.nw
  NWChem w/ OpenMP: maximum threads =    1
 


============================== echo of input deck ==============================
 echo
 start H2O
 title "H2O"

 memory total 24 gb

 geometry units angstrom
 symmetry c1
   zmatrix
     O
     H1 O 0.97551
     H2 O 0.97551 H1 101.70
   end
 end

 basis spherical
   * library cc-pVTZ
 end

 tce
   2eorb
   2emet 13
   ccsd
   maxiter 300
 end

# set tce:print_integrals T
# set tce:qorb 8
# set tce:qela 5
# set tce:qelb 5

 set tce:qducc T
 set tce:nactv 3
 set tce:nonhf T
 set tce:ducc_model 6

 set tce:printtol 0.02

 task tce
================================================================================


                                         
                                         
 
 
             Northwest Computational Chemistry Package (NWChem) 7.2.3
             --------------------------------------------------------
 
 
                    Environmental Molecular Sciences Laboratory
                       Pacific Northwest National Laboratory
                                Richland, WA 99352
 
                              Copyright (c) 1994-2022
                       Pacific Northwest National Laboratory
                            Battelle Memorial Institute
 
             NWChem is an open-source computational chemistry package
                        distributed under the terms of the
                      Educational Community License (ECL) 2.0
             A copy of the license is included with this distribution
                              in the LICENSE.TXT file
 
                                  ACKNOWLEDGMENT
                                  --------------

            This software and its documentation were developed at the
            EMSL at Pacific Northwest National Laboratory, a multiprogram
            national laboratory, operated for the U.S. Department of Energy
            by Battelle under Contract Number DE-AC05-76RL01830. Support
            for this work was provided by the Department of Energy Office
            of Biological and Environmental Research, Office of Basic
            Energy Sciences, and the Office of Advanced Scientific Computing.


           Job information
           ---------------

    hostname        = koothan
    program         = /hpc/home/baum612/code/nwchem/bin/LINUX64/nwchem
    date            = Fri Nov 22 00:10:51 2024

    compiled        = Thu_Nov_21_17:16:59_2024
    source          = /hpc/home/baum612/code/nwchem
    nwchem branch   = 7.2.3
    nwchem revision = v7.2.0-beta1-1291-g6d839a76f0
    ga revision     = 5.8.0
    use scalapack   = T
    input           = input.nw
    prefix          = H2O.
    data base       = ./H2O.db
    status          = startup
    nproc           =        1
    time left       =     -1s



           Memory information
           ------------------

    heap     =    805306368 doubles =     6144.0 Mbytes
    stack    =    805306365 doubles =     6144.0 Mbytes
    global   =   1610612736 doubles =    12288.0 Mbytes (distinct from heap & stack)
    total    =   3221225469 doubles =    24576.0 Mbytes
    verify   = yes
    hardfail = no 


           Directory information
           ---------------------
 
  0 permanent = .
  0 scratch   = .
 
 
 
 
                                NWChem Input Module
                                -------------------
 
 
                                        H2O
                                        ---

 Scaling coordinates for geometry "geometry" by  1.889725989
 (inverse scale =  0.529177249)

 Turning off AUTOSYM since
 SYMMETRY directive was detected!
 
 
 
                             Geometry "geometry" -> ""
                             -------------------------
 
 Output coordinates in angstroms (scale by  1.889725989 to convert to a.u.)
 
  No.       Tag          Charge          X              Y              Z
 ---- ---------------- ---------- -------------- -------------- --------------
    1 O                    8.0000    -0.09552416     0.00000000    -0.07776890
    2 H1                   1.0000    -0.09552416     0.00000000     0.89774110
    3 H2                   1.0000     0.85971748     0.00000000    -0.27558993
 
      Atomic Mass 
      ----------- 
 
      O                 15.994910
      H1                 1.007825
      H2                 1.007825
 

 Effective nuclear repulsion energy (a.u.)       9.0291462051

            Nuclear Dipole moment (a.u.) 
            ----------------------------
        X                 Y               Z
 ---------------- ---------------- ----------------
    -0.0000000000     0.0000000000     0.0000000000
 


                                Z-matrix (user)
                                -------- 

 Units are Angstrom for bonds and degrees for angles
 
      Type          Name      I     J     K     L     M      Value
      ----------- --------  ----- ----- ----- ----- ----- ----------
    1 Stretch                  2     1                       0.97551
    2 Stretch                  3     1                       0.97551
    3 Bend                     3     1     2               101.70000
 
 
            XYZ format geometry
            -------------------
     3
 geometry
 O                    -0.09552416     0.00000000    -0.07776890
 H1                   -0.09552416     0.00000000     0.89774110
 H2                    0.85971748     0.00000000    -0.27558993
 
 ==============================================================================
                                internuclear distances
 ------------------------------------------------------------------------------
       center one      |      center two      | atomic units |  angstroms
 ------------------------------------------------------------------------------
    2 H1               |   1 O                |     1.84345  |     0.97551
    3 H2               |   1 O                |     1.84345  |     0.97551
 ------------------------------------------------------------------------------
                         number of included internuclear distances:          2
 ==============================================================================



 ==============================================================================
                                 internuclear angles
 ------------------------------------------------------------------------------
        center 1       |       center 2       |       center 3       |  degrees
 ------------------------------------------------------------------------------
    2 H1               |   1 O                |   3 H2               |   101.70
 ------------------------------------------------------------------------------
                            number of included internuclear angles:          1
 ==============================================================================





 Summary of "ao basis" -> "" (spherical)
 ------------------------------------------------------------------------------
       Tag                 Description            Shells   Functions and Types
 ---------------- ------------------------------  ------  ---------------------
 *                          cc-pVTZ                   on all atoms 


                      Basis "ao basis" -> "ao basis" (spherical)
                      -----
  O (Oxygen)
  ----------
            Exponent  Coefficients 
       -------------- ---------------------------------------------------------
  1 S  1.53300000E+04  0.000508
  1 S  2.29900000E+03  0.003929
  1 S  5.22400000E+02  0.020243
  1 S  1.47300000E+02  0.079181
  1 S  4.75500000E+01  0.230687
  1 S  1.67600000E+01  0.433118
  1 S  6.20700000E+00  0.350260
  1 S  6.88200000E-01 -0.008154
 
  2 S  1.53300000E+04 -0.000115
  2 S  2.29900000E+03 -0.000895
  2 S  5.22400000E+02 -0.004636
  2 S  1.47300000E+02 -0.018724
  2 S  4.75500000E+01 -0.058463
  2 S  1.67600000E+01 -0.136463
  2 S  6.20700000E+00 -0.175740
  2 S  6.88200000E-01  0.603418
 
  3 S  1.75200000E+00  1.000000
 
  4 S  2.38400000E-01  1.000000
 
  5 P  3.44600000E+01  0.015928
  5 P  7.74900000E+00  0.099740
  5 P  2.28000000E+00  0.310492
 
  6 P  7.15600000E-01  1.000000
 
  7 P  2.14000000E-01  1.000000
 
  8 D  2.31400000E+00  1.000000
 
  9 D  6.45000000E-01  1.000000
 
 10 F  1.42800000E+00  1.000000
 
  H1 (Hydrogen)
  -------------
            Exponent  Coefficients 
       -------------- ---------------------------------------------------------
  1 S  3.38700000E+01  0.006068
  1 S  5.09500000E+00  0.045308
  1 S  1.15900000E+00  0.202822
 
  2 S  3.25800000E-01  1.000000
 
  3 S  1.02700000E-01  1.000000
 
  4 P  1.40700000E+00  1.000000
 
  5 P  3.88000000E-01  1.000000
 
  6 D  1.05700000E+00  1.000000
 
  H2 (Hydrogen)
  -------------
            Exponent  Coefficients 
       -------------- ---------------------------------------------------------
  1 S  3.38700000E+01  0.006068
  1 S  5.09500000E+00  0.045308
  1 S  1.15900000E+00  0.202822
 
  2 S  3.25800000E-01  1.000000
 
  3 S  1.02700000E-01  1.000000
 
  4 P  1.40700000E+00  1.000000
 
  5 P  3.88000000E-01  1.000000
 
  6 D  1.05700000E+00  1.000000
 


 Summary of "ao basis" -> "ao basis" (spherical)
 ------------------------------------------------------------------------------
       Tag                 Description            Shells   Functions and Types
 ---------------- ------------------------------  ------  ---------------------
 O                          cc-pVTZ                 10       30   4s3p2d1f
 H1                         cc-pVTZ                  6       14   3s2p1d
 H2                         cc-pVTZ                  6       14   3s2p1d


                                 NWChem SCF Module
                                 -----------------
 
 
                                        H2O
 
 

  ao basis        = "ao basis"
  functions       =    58
  atoms           =     3
  closed shells   =     5
  open shells     =     0
  charge          =   0.00
  wavefunction    = RHF 
  input vectors   = atomic
  output vectors  = ./H2O.movecs
  use symmetry    = F
  symmetry adapt  = F


 Summary of "ao basis" -> "ao basis" (spherical)
 ------------------------------------------------------------------------------
       Tag                 Description            Shells   Functions and Types
 ---------------- ------------------------------  ------  ---------------------
 O                          cc-pVTZ                 10       30   4s3p2d1f
 H1                         cc-pVTZ                  6       14   3s2p1d
 H2                         cc-pVTZ                  6       14   3s2p1d



 Forming initial guess at       0.5s

 
      Superposition of Atomic Density Guess
      -------------------------------------
 
 Sum of atomic energies:         -75.78028790
 
      Non-variational initial energy
      ------------------------------

 Total energy =     -75.912713
 1-e energy   =    -121.494958
 2-e energy   =      36.553099
 HOMO         =      -0.472299
 LUMO         =       0.062293
 

 Starting SCF solution at       0.6s



 ----------------------------------------------
         Quadratically convergent ROHF

 Convergence threshold     :          1.000E-04
 Maximum no. of iterations :           30
 Final Fock-matrix accuracy:          1.000E-07
 ----------------------------------------------


              iter       energy          gnorm     gmax       time
             ----- ------------------- --------- --------- --------
                 1      -76.0195904133  8.48D-01  2.94D-01      0.8
                 2      -76.0527841549  1.97D-01  6.24D-02      1.0
                 3      -76.0550294933  1.67D-02  6.65D-03      1.4
                 4      -76.0550549710  7.33D-05  3.15D-05      2.1


       Final RHF  results 
       ------------------ 

         Total SCF energy =    -76.055054971014
      One-electron energy =   -122.815762433229
      Two-electron energy =     37.731561257132
 Nuclear repulsion energy =      9.029146205082

        Time for solution =      1.5s


             Final eigenvalues
             -----------------

              1      
    1  -20.5594
    2   -1.3385
    3   -0.6946
    4   -0.5798
    5   -0.5040
    6    0.1398
    7    0.2029
    8    0.5320
    9    0.6012
   10    0.6699
   11    0.7841
   12    0.7865
   13    0.8068
   14    0.8633
   15    0.9418
 
                       ROHF Final Molecular Orbital Analysis
                       -------------------------------------
 
 Vector    2  Occ=2.000000D+00  E=-1.338512D+00
              MO Center=  3.7D-02, -1.3D-16,  3.0D-02, r^2= 5.0D-01
   Bfn.  Coefficient  Atom+Function         Bfn.  Coefficient  Atom+Function  
  ----- ------------  ---------------      ----- ------------  ---------------
     2      0.505899  1 O  s                  4      0.287193  1 O  s          
 
 Vector    3  Occ=2.000000D+00  E=-6.946273D-01
              MO Center=  7.6D-02, -2.2D-17,  6.2D-02, r^2= 7.8D-01
   Bfn.  Coefficient  Atom+Function         Bfn.  Coefficient  Atom+Function  
  ----- ------------  ---------------      ----- ------------  ---------------
    10      0.265870  1 O  pz                 7      0.218472  1 O  pz         
    32      0.217671  2 H  s                 46     -0.217671  3 H  s          
     8     -0.216452  1 O  px                 5     -0.177864  1 O  px         
 
 Vector    4  Occ=2.000000D+00  E=-5.798169D-01
              MO Center= -1.2D-01, -1.5D-16, -9.6D-02, r^2= 7.1D-01
   Bfn.  Coefficient  Atom+Function         Bfn.  Coefficient  Atom+Function  
  ----- ------------  ---------------      ----- ------------  ---------------
     8     -0.294151  1 O  px                 4      0.279210  1 O  s          
     5     -0.240331  1 O  px                10     -0.239476  1 O  pz         
    11     -0.211379  1 O  px                 7     -0.195660  1 O  pz         
     2      0.180785  1 O  s                 13     -0.172090  1 O  pz         
 
 Vector    5  Occ=2.000000D+00  E=-5.039942D-01
              MO Center= -6.9D-02,  5.1D-16, -5.6D-02, r^2= 6.3D-01
   Bfn.  Coefficient  Atom+Function         Bfn.  Coefficient  Atom+Function  
  ----- ------------  ---------------      ----- ------------  ---------------
     9      0.444918  1 O  py                12      0.375943  1 O  py         
     6      0.357635  1 O  py         
 
 Vector    6  Occ=0.000000D+00  E= 1.397918D-01
              MO Center=  5.1D-01, -3.5D-17,  4.1D-01, r^2= 3.7D+00
   Bfn.  Coefficient  Atom+Function         Bfn.  Coefficient  Atom+Function  
  ----- ------------  ---------------      ----- ------------  ---------------
     4      1.467008  1 O  s                 33     -0.908387  2 H  s          
    47     -0.908387  3 H  s                 11      0.354353  1 O  px         
    13      0.288488  1 O  pz                32     -0.249270  2 H  s          
    46     -0.249270  3 H  s                 39      0.167155  2 H  pz         
    51      0.163935  3 H  px                 8      0.151075  1 O  px         
 
 Vector    7  Occ=0.000000D+00  E= 2.028676D-01
              MO Center=  5.5D-01,  1.4D-16,  4.5D-01, r^2= 4.6D+00
   Bfn.  Coefficient  Atom+Function         Bfn.  Coefficient  Atom+Function  
  ----- ------------  ---------------      ----- ------------  ---------------
    33      1.745406  2 H  s                 47     -1.745406  3 H  s          
    13     -0.634378  1 O  pz                11      0.516465  1 O  px         
    39     -0.163853  2 H  pz                51      0.160201  3 H  px         
    10     -0.156639  1 O  pz         
 
 Vector    8  Occ=0.000000D+00  E= 5.320052D-01
              MO Center=  5.7D-02,  3.9D-17,  4.7D-02, r^2= 2.3D+00
   Bfn.  Coefficient  Atom+Function         Bfn.  Coefficient  Atom+Function  
  ----- ------------  ---------------      ----- ------------  ---------------
    32      1.469347  2 H  s                 46     -1.469347  3 H  s          
    13     -0.869618  1 O  pz                11      0.707980  1 O  px         
    33     -0.663734  2 H  s                 47      0.663734  3 H  s          
    10     -0.199695  1 O  pz                 8      0.162577  1 O  px         
 
 Vector    9  Occ=0.000000D+00  E= 6.011843D-01
              MO Center=  4.3D-01, -2.5D-16,  3.5D-01, r^2= 2.1D+00
   Bfn.  Coefficient  Atom+Function         Bfn.  Coefficient  Atom+Function  
  ----- ------------  ---------------      ----- ------------  ---------------
    32      1.331404  2 H  s                 46      1.331404  3 H  s          
    33     -0.628460  2 H  s                 47     -0.628460  3 H  s          
     4     -0.456961  1 O  s                 11     -0.452213  1 O  px         
    13     -0.368159  1 O  pz                 2     -0.200494  1 O  s          
    53     -0.185739  3 H  pz                39      0.176399  2 H  pz         
 
 Vector   10  Occ=0.000000D+00  E= 6.699267D-01
              MO Center= -3.1D-01, -8.9D-16, -2.5D-01, r^2= 2.3D+00
   Bfn.  Coefficient  Atom+Function         Bfn.  Coefficient  Atom+Function  
  ----- ------------  ---------------      ----- ------------  ---------------
     4      4.402745  1 O  s                 32     -2.245100  2 H  s          
    46     -2.245100  3 H  s                 11      2.065267  1 O  px         
    13      1.681391  1 O  pz                39      1.093471  2 H  pz         
    51      1.060153  3 H  px                33     -0.426123  2 H  s          
    47     -0.426123  3 H  s                 53     -0.272921  3 H  pz         
 
 Vector   11  Occ=0.000000D+00  E= 7.840573D-01
              MO Center=  1.7D-01, -2.2D-14,  1.4D-01, r^2= 2.0D+00
   Bfn.  Coefficient  Atom+Function         Bfn.  Coefficient  Atom+Function  
  ----- ------------  ---------------      ----- ------------  ---------------
    11      1.028941  1 O  px                32     -0.958626  2 H  s          
    46     -0.958626  3 H  s                 37     -0.845660  2 H  px         
    13      0.837690  1 O  pz                53     -0.839266  3 H  pz         
     4      0.791815  1 O  s                 33      0.218820  2 H  s          
    47      0.218820  3 H  s          
 
 Vector   12  Occ=0.000000D+00  E= 7.864834D-01
              MO Center= -5.1D-02,  2.3D-14, -4.1D-02, r^2= 1.7D+00
   Bfn.  Coefficient  Atom+Function         Bfn.  Coefficient  Atom+Function  
  ----- ------------  ---------------      ----- ------------  ---------------
    12      1.121389  1 O  py                 9     -0.774301  1 O  py         
     6     -0.259455  1 O  py         
 
 Vector   13  Occ=0.000000D+00  E= 8.068020D-01
              MO Center= -7.4D-02, -1.2D-15, -6.0D-02, r^2= 3.0D+00
   Bfn.  Coefficient  Atom+Function         Bfn.  Coefficient  Atom+Function  
  ----- ------------  ---------------      ----- ------------  ---------------
    13      2.255821  1 O  pz                11     -1.836527  1 O  px         
    32     -1.587567  2 H  s                 46      1.587567  3 H  s          
    33     -1.435950  2 H  s                 47      1.435950  3 H  s          
    39      1.168774  2 H  pz                51     -1.148890  3 H  px         
    21      0.394030  1 O  d  0              23     -0.227494  1 O  d  2       
 
 Vector   14  Occ=0.000000D+00  E= 8.633356D-01
              MO Center=  3.7D-01,  1.1D-15,  3.0D-01, r^2= 1.7D+00
   Bfn.  Coefficient  Atom+Function         Bfn.  Coefficient  Atom+Function  
  ----- ------------  ---------------      ----- ------------  ---------------
    38      0.842323  2 H  py                52     -0.842323  3 H  py         
 
 Vector   15  Occ=0.000000D+00  E= 9.417608D-01
              MO Center=  1.7D-01,  9.3D-17,  1.4D-01, r^2= 2.0D+00
   Bfn.  Coefficient  Atom+Function         Bfn.  Coefficient  Atom+Function  
  ----- ------------  ---------------      ----- ------------  ---------------
    12      1.159718  1 O  py                38     -0.984395  2 H  py         
    52     -0.984395  3 H  py         
 

 center of mass
 --------------
 x =  -0.07950319 y =   0.00000000 z =  -0.06472577

 moments of inertia (a.u.)
 ------------------
           3.443926097711           0.000000000000           0.829703077621
           0.000000000000           6.544205701009           0.000000000000
           0.829703077621           0.000000000000           3.100279603298
 
  Mulliken analysis of the total density
  --------------------------------------

    Atom       Charge   Shell Charges
 -----------   ------   -------------------------------------------------------
    1 O    8     8.49   1.95  1.00  0.23  0.61  1.25  2.14  1.29  0.00  0.02  0.00
    2 H    1     0.76   0.25  0.38  0.04  0.02  0.06  0.01
    3 H    1     0.76   0.25  0.38  0.04  0.02  0.06  0.01
 
       Multipole analysis of the density wrt the origin
       ------------------------------------------------
 
     L   x y z        total         open         nuclear
     -   - - -        -----         ----         -------
     0   0 0 0     -0.000000      0.000000     10.000000
 
     1   1 0 0      0.635885      0.000000     -0.000000
     1   0 1 0     -0.000000      0.000000      0.000000
     1   0 0 1      0.517692      0.000000      0.000000
 
     2   2 0 0     -3.931705      0.000000      2.932693
     2   1 1 0     -0.000000      0.000000      0.000000
     2   1 0 1     -0.630801      0.000000     -0.940100
     2   0 2 0     -5.451242      0.000000      0.000000
     2   0 1 1      0.000000      0.000000      0.000000
     2   0 0 2     -3.670440      0.000000      3.322064
 
                   NWChem Extensible Many-Electron Theory Module
                   ---------------------------------------------
 
              ======================================================
                   This portion of the program was automatically
                  generated by a Tensor Contraction Engine (TCE).
                  The development of this portion of the program
                 and TCE was supported by US Department of Energy,
                Office of Science, Office of Basic Energy Science.
                      TCE is a product of Battelle and PNNL.
              Please cite: S.Hirata, J.Phys.Chem.A 107, 9887 (2003).
              ======================================================
 
                                        H2O
 
 
            General Information
            -------------------
      Number of processors :     1
         Wavefunction type : Restricted Hartree-Fock
          No. of electrons :    10
           Alpha electrons :     5
            Beta electrons :     5
           No. of orbitals :   116
            Alpha orbitals :    58
             Beta orbitals :    58
        Alpha frozen cores :     0
         Beta frozen cores :     0
     Alpha frozen virtuals :     0
      Beta frozen virtuals :     0
         Spin multiplicity : singlet 
    Number of AO functions :    58
       Number of AO shells :    22
        Use of symmetry is : off
      Symmetry adaption is : off
         Schwarz screening : 0.10D-09
 
          Correlation Information
          -----------------------
          Calculation type : Coupled-cluster singles & doubles                           
   Perturbative correction : none                                                        
            Max iterations :      300
        Residual threshold : 0.10D-06
     T(0) DIIS level shift : 0.00D+00
     L(0) DIIS level shift : 0.00D+00
     T(1) DIIS level shift : 0.00D+00
     L(1) DIIS level shift : 0.00D+00
     T(R) DIIS level shift : 0.00D+00
     T(I) DIIS level shift : 0.00D+00
   CC-T/L Amplitude update :  5-th order DIIS
                I/O scheme : Global Array Library
        L-threshold :  0.10D-06
        EOM-threshold :  0.10D-06
 no EOMCCSD initial starts read in
 TCE RESTART OPTIONS
 READ_INT:   F
 WRITE_INT:  F
 READ_TA:    F
 WRITE_TA:   F
 READ_XA:    F
 WRITE_XA:   F
 READ_IN3:   F
 WRITE_IN3:  F
 SLICE:      F
 D4D5:       F
 quantumc:   F
 qrotation:  F
 pwtce:      F
 qducc:      T
 nacto:                          0
 nrotv:                          0
 nrot:                           0
 
            Memory Information
            ------------------
          Available GA space size is    1610609372 doubles
          Available MA space size is    1610609756 doubles
 
 Maximum block size        32 doubles

 tile_dim =     27

 Block   Spin    Irrep     Size     Offset   Alpha
 -------------------------------------------------
   1    alpha     a      5 doubles       0       1
   2    beta      a      5 doubles       5       1
   3    alpha     a     26 doubles      10       3
   4    alpha     a     27 doubles      36       4
   5    beta      a     26 doubles      63       3
   6    beta      a     27 doubles      89       4

 Global array virtual files algorithm will be used

 Parallel file system coherency ......... OK
 
 Fock matrix recomputed
 1-e file size   =             3364
 1-e file name   = ./H2O.f1
 Cpu & wall time / sec            0.1            0.1
 4-electron integrals stored in orbital form
 
 v2    file size   =          3631290
 4-index algorithm nr.  13 is used
 imaxsize =       30
 imaxsize ichop =        0
 Cpu & wall time / sec            1.4            1.4
 T1-number-of-tasks                     2
 
 t1 file size   =              265
 t1 file name   = ./H2O.t1
 t1 file handle =       -998
 T2-number-of-boxes                     7
 
 t2 file size   =           122900
 t2 file name   = ./H2O.t2
 t2 file handle =       -996
CCSD iterations
 ---------------------------------------------------------
 Iter          Residuum       Correlation     Cpu    Wall 
 ---------------------------------------------------------
NEW TASK SCHEDULING
CCSD_T1_NTS --- OK
CCSD_T2_NTS --- OK
    1   0.1393440493722  -0.2765476258080     0.3     0.3
    2   0.0306989797220  -0.2775350209304     0.3     0.3
    3   0.0104538572866  -0.2813274826614     0.3     0.3
    4   0.0041545579821  -0.2817529795440     0.3     0.3
    5   0.0017301510472  -0.2820237393713     0.3     0.3
 MICROCYCLE DIIS UPDATE:                     5                     5
    6   0.0003463438281  -0.2821487493494     0.3     0.3
    7   0.0001360026821  -0.2821612908953     0.3     0.3
    8   0.0000521158582  -0.2821606532498     0.3     0.3
    9   0.0000287454051  -0.2821608548220     0.3     0.3
   10   0.0000140721589  -0.2821611333958     0.3     0.3
 MICROCYCLE DIIS UPDATE:                    10                     5
   11   0.0000028870675  -0.2821616193784     0.3     0.3
   12   0.0000013127121  -0.2821614321029     0.3     0.3
   13   0.0000006248858  -0.2821614568273     0.3     0.3
   14   0.0000003667477  -0.2821614463292     0.3     0.3
   15   0.0000001991019  -0.2821614454054     0.3     0.3
 MICROCYCLE DIIS UPDATE:                    15                     5
   16   0.0000000305833  -0.2821614411151     0.3     0.3
 -----------------------------------------------------------------
 Iterations converged
 CCSD correlation energy / hartree =        -0.282161441115098
 CCSD total energy / hartree       =       -76.337216412129450

 Singles contributions

 Doubles contributions
     7a   (alpha)     7a   (beta ) ---     3a   (alpha)     3a   (beta )       -0.0210898303
     8a   (alpha)     8a   (beta ) ---     3a   (alpha)     3a   (beta )       -0.0285000383
     8a   (alpha)     8a   (beta ) ---     4a   (alpha)     4a   (beta )       -0.0227201205
     9a   (alpha)     9a   (beta ) ---     3a   (alpha)     3a   (beta )       -0.0254442871
    10a   (alpha)    10a   (beta ) ---     4a   (alpha)     4a   (beta )       -0.0291986820
    10a   (alpha)    12a   (beta ) ---     4a   (alpha)     5a   (beta )        0.0258202250
    12a   (alpha)    10a   (beta ) ---     5a   (alpha)     4a   (beta )        0.0258202250
    12a   (alpha)    12a   (beta ) ---     5a   (alpha)     5a   (beta )       -0.0477736507
    12a   (alpha)    13a   (beta ) ---     5a   (alpha)     3a   (beta )       -0.0222608046
    13a   (alpha)    12a   (beta ) ---     3a   (alpha)     5a   (beta )       -0.0222608046
    13a   (alpha)    13a   (beta ) ---     3a   (alpha)     3a   (beta )       -0.0224604232
 Ground state specification:
 exp(T)|Ref>~(1+T)|Ref>
 ------- a(p)+/a(q) strings ----------

 singles norm

 doubles norm

 Reference string
   1.00000000000000      :(1a)+ (2a)+ (3a)+ (4a)+ (5a)+ (1b)+ (2b)+ (3b)+ (4b)+ 
 (5b)+ |0>

 Singles strings

 Doubles strings
 -------------------------------------
 enrep_tce =    9.02914620508210     
  EHF(total)         =       -76.05505497
  Shift (HFtot-HFA)  =         0.00000000
 ALL OCCUPIED ORBITALS ARE ACTIVE IN DUCC --> NO SHIFT
 Number of active orbitals                     8
 Number of active alpha electrons                     5
 Number of active beta electrons                     5
  nos                     10
  nvs                    106
 noas                      5
 nobs                      5
 nvas                     53
 nvbs                     53
 nactv                      3
 DUCC MODEL =                      6
 NONHF =  T
 F-T1 correlation    =   1.319087998860197E-007
 V-T1-T1 correlation =   3.501299137307996E-005
 V-T2 correlation    =  -0.282196586015303     
 Total correlation   =  -0.282161441115130     
 F-T1(Ext) correlation         =   9.424069451925393E-008
 V-T1(Ext)-T1(Ext) correlation =   3.154316903123921E-005
 V-T2(Ext) correlation         =  -0.274004933893481     
 Total Ext correlation         =  -0.273973296483755     
1-BODY TIME =  280.014 SECONDS.
  HHHH TIME =  277.584 SECONDS.
  PPPP TIME =    3.029 SECONDS.
  HHHP TIME =   26.148 SECONDS.
  PPPH TIME =    6.084 SECONDS.
  HPHP TIME =   21.551 SECONDS.
  HHPP TIME =   12.757 SECONDS.
 ONE-BODY UNITARY CHECK
 TWO-BODY UNITARY CHECK
                     1                     3                     2
                     3 -1.496795742905732E-012
                     1                     3                     3
                     2  2.502876378374097E-012
                     1                     4                     2
                     4 -1.252754844305315E-012
                     1                     4                     4
                     2  1.691653761515255E-012
                     1                     5                     2
                     5 -1.399068361163103E-012
                     1                     5                     5
                     2  1.138998617644660E-012
                     1                     6                     2
                     9 -2.239985974483716E-012
                     1                     6                     3
                     8  1.476038041792194E-012
                     1                     6                     4
                     6 -1.000782789972732E-012
                     1                     6                     4
                     9  1.012741973616116E-012
                     1                     6                     5
                    10 -1.452522130351852E-012
                     1                     6                     7
                     4  2.299941487260426E-012
                     1                     6                     8
                     3 -1.476038041792194E-012
                     1                     6                     9
                     1  1.022737450284694E-012
                     1                     6                     9
                     4 -1.012741973616116E-012
                     1                     6                    10
                     5  1.452525599798804E-012
                     1                     7                     2
                     7 -1.436151544909059E-012
                     1                     7                     5
                    10 -1.995875686944260E-012
                     1                     7                     7
                     2  1.708475375061802E-012
                     1                     7                     9
                     2 -1.168568714016160E-012
                     1                     7                    10
                     5  2.587412922805399E-012
                     1                     8                     2
                     8 -2.923985706337895E-012
                     1                     8                     3
                     7 -1.250513581574353E-012
                     1                     8                     4
                     8  1.222458766159118E-012
                     1                     8                     7
                     3  1.427170881473927E-012
                     1                     8                     8
                     2  3.753406439821472E-012
                     1                     8                     8
                     4 -1.568969780485485E-012
                     1                     8                     9
                     3 -1.250570393768191E-012
                     1                     9                     2
                     9 -2.727871747931765E-012
                     1                     9                     3
                     8  2.373818155931851E-012
                     1                     9                     4
                     9  2.280333907811460E-012
                     1                     9                     7
                     2 -1.659001928888681E-012
                     1                     9                     7
                     4  1.475219252311533E-012
                     1                     9                     8
                     3 -2.504454976737236E-012
                     1                     9                     9
                     2  2.373752236439763E-012
                     1                     9                     9
                     4 -1.891698603317948E-012
                     1                    10                     2
                    10 -2.261312664897375E-012
                     1                    10                     5
                     7 -1.700427992856746E-012
                     1                    10                    10
                     2  2.839463039694401E-012
                     2                     2                     2
                     4 -1.038995630624217E-011
                     2                     2                     4
                     2  1.038994180689100E-011
                     2                     3                     1
                     3  1.496795742905732E-012
                     2                     3                     3
                     4 -3.198554615613247E-011
                     2                     3                     4
                     3  2.806215980075133E-011
                     2                     4                     1
                     4  1.252754844305315E-012
                     2                     4                     2
                     2  1.038995630624217E-011
                     2                     4                     3
                     3 -3.727902842442688E-012
                     2                     4                     4
                     2  1.432964857883690E-012
                     2                     4                     4
                     4 -2.873311341172728E-012
                     2                     5                     1
                     5  1.399068361163103E-012
                     2                     5                     4
                     5  2.965943983468389E-011
                     2                     5                     5
                     2  1.717626041397580E-011
                     2                     5                     5
                     4 -3.678282158026125E-011
                     2                     6                     2
                     7 -1.098836299728845E-012
                     2                     6                     4
                     9 -1.504761593107418E-012
                     2                     6                     5
                    10 -2.448669739196774E-012
                     2                     6                    10
                     5  1.857132503335635E-012
                     2                     7                     1
                     7  1.436151544909059E-012
                     2                     7                     2
                     6  1.098836299728845E-012
                     2                     7                     2
                     9 -8.483574953643824E-012
                     2                     7                     3
                     8 -2.026054324311133E-011
                     2                     7                     4
                     7  3.022443753608606E-011
                     2                     7                     4
                     9 -1.327005172413465E-011
                     2                     7                     5
                    10 -3.898184552930672E-011
                     2                     7                     6
                     2 -1.708475375061802E-012
                     2                     7                     6
                     4  1.658989785824350E-012
                     2                     7                     7
                     4 -1.906386506989044E-012
                     2                     7                     8
                     3  2.026054324311133E-011
                     2                     7                     9
                     2 -1.983447781017667E-011
                     2                     7                     9
                     4  1.327005172413465E-011
                     2                     7                    10
                     5  3.898184552930672E-011
                     2                     8                     1
                     8  2.923985706337895E-012
                     2                     8                     3
                     7 -1.726890852538077E-011
                     2                     8                     3
                     9  2.658901744612141E-011
                     2                     8                     4
                     8  5.436842122341634E-011
                     2                     8                     6
                     3 -1.427174350920879E-012
                     2                     8                     8
                     2  1.663569282328581E-011
                     2                     8                     8
                     4 -5.857459482727645E-011
                     2                     8                     9
                     3 -2.630621762089724E-011
                     2                     9                     1
                     6  2.239985974483716E-012
                     2                     9                     1
                     9  2.727871747931765E-012
                     2                     9                     2
                     7  8.483574953643824E-012
                     2                     9                     3
                     8  3.815692033171114E-011
                     2                     9                     4
                     7 -9.525852329161921E-012
                     2                     9                     4
                     9  8.204353862950597E-011
                     2                     9                     5
                    10  2.182987818288851E-011
                     2                     9                     6
                     1 -2.299927609472618E-012
                     2                     9                     6
                     4 -1.475236599546292E-012
                     2                     9                     7
                     2  1.906377833371664E-012
                     2                     9                     8
                     3 -4.188482373435054E-011
                     2                     9                     9
                     2  1.096123192212417E-011
                     2                     9                     9
                     4 -8.491689296175053E-011
                     2                     9                    10
                     5 -2.240111568463377E-011
                     2                    10                     1
                    10  2.261312664897375E-012
                     2                    10                     4
                    10  3.913873392047407E-011
                     2                    10                     5
                     6 -1.128517418402808E-012
                     2                    10                     5
                     7 -3.172598295186901E-011
                     2                    10                     5
                     9  1.769821095232160E-011
                     2                    10                     9
                     5 -9.479247248256328E-012
                     2                    10                    10
                     2  4.890265969947905E-011
                     2                    10                    10
                     4 -5.448100304228376E-011
                     3                     1                     3
                     2 -1.730809939815003E-012
                     3                     1                     3
                     4  1.450338113495597E-012
                     3                     2                     1
                     3 -2.502876378374097E-012
                     3                     2                     3
                     1  1.730809939815003E-012
                     3                     2                     3
                     4  2.179272821228873E-012
                     3                     2                     4
                     3  1.744130447706160E-012
                     3                     3                     2
                     4  3.727902842442688E-012
                     3                     3                     4
                     2 -3.727899577792421E-012
                     3                     4                     2
                     3  3.198554615613247E-011
                     3                     4                     3
                     1 -1.450338113495597E-012
                     3                     4                     3
                     2 -2.179272821228873E-012
                     3                     4                     4
                     3  2.007694011041394E-011
                     3                     5                     5
                     3  5.239964018244336E-011
                     3                     6                     3
                     7 -1.170679872486424E-012
                     3                     6                     3
                     9  1.434949381540207E-012
                     3                     6                     9
                     3 -1.088440969299054E-012
                     3                     7                     1
                     8  1.250513581574353E-012
                     3                     7                     2
                     8  1.726890852538077E-011
                     3                     7                     3
                     6  1.170679872486424E-012
                     3                     7                     4
                     8 -2.683362212985152E-012
                     3                     7                     6
                     3 -3.753395164118878E-012
                     3                     7                     7
                     3 -1.663569282328581E-011
                     3                     7                     8
                     4  2.400565857207937E-012
                     3                     7                     9
                     3  4.427369929005387E-012
                     3                     8                     1
                     6 -1.476038041792194E-012
                     3                     8                     1
                     9 -2.373818155931851E-012
                     3                     8                     2
                     7  2.026054324311133E-011
                     3                     8                     2
                     9 -3.815692033171114E-011
                     3                     8                     4
                     6 -1.720791478060368E-012
                     3                     8                     4
                     7 -1.613894087815204E-011
                     3                     8                     4
                     9  1.260790083446039E-012
                     3                     8                     5
                    10 -2.348136268759404E-011
                     3                     8                     6
                     1  1.476121308519041E-012
                     3                     8                     6
                     4  2.504466686120699E-012
                     3                     8                     7
                     2 -2.026054324311133E-011
                     3                     8                     7
                     4  4.188473179400631E-011
                     3                     8                     9
                     1  1.590142514190651E-012
                     3                     8                     9
                     2  1.241112768113339E-011
                     3                     8                     9
                     4 -1.260588855522826E-012
                     3                     8                    10
                     5  2.348135921814709E-011
                     3                     9                     2
                     8 -2.658901744612141E-011
                     3                     9                     3
                     6 -1.434949381540207E-012
                     3                     9                     4
                     8  3.762795630635196E-012
                     3                     9                     6
                     3  1.568983658273293E-012
                     3                     9                     7
                     3  5.857462952174597E-011
                     3                     9                     8
                     2 -2.400597082230504E-012
                     3                     9                     9
                     3  1.631450530226175E-011
                     3                    10                     5
                     8 -2.298243886866835E-011
                     3                    10                    10
                     3  7.538170088139395E-011
                     4                     2                     1
                     4 -1.691653761515255E-012
                     4                     2                     2
                     2 -1.038994180689100E-011
                     4                     2                     2
                     4 -1.432964857883690E-012
                     4                     2                     3
                     3  3.727899577792421E-012
                     4                     2                     4
                     4  2.873324558592475E-012
                     4                     3                     2
                     3 -2.806215980075133E-011
                     4                     3                     3
                     2 -1.744130447706160E-012
                     4                     3                     3
                     4 -2.007694011041394E-011
                     4                     4                     2
                     4  2.873311341172728E-012
                     4                     4                     4
                     2 -2.873324558592475E-012
                     4                     5                     2
                     5 -2.965943983468389E-011
                     4                     5                     5
                     2 -1.144224211907519E-011
                     4                     5                     5
                     4  3.723410468836619E-011
                     4                     6                     1
                     6  1.000782789972732E-012
                     4                     6                     3
                     8  1.720791478060368E-012
                     4                     6                     6
                     1 -1.022792961435925E-012
                     4                     6                     8
                     3 -1.590154657254983E-012
                     4                     6                     9
                     4 -1.027468041203683E-012
                     4                     6                    10
                     5 -1.067139432375797E-012
                     4                     7                     2
                     7 -3.022443753608606E-011
                     4                     7                     2
                     9  9.525852329161921E-012
                     4                     7                     3
                     8  1.613894087815204E-011
                     4                     7                     4
                     9 -5.407480019314903E-012
                     4                     7                     5
                    10  2.617787930869753E-012
                     4                     7                     6
                     2  1.168585193889182E-012
                     4                     7                     6
                     4 -2.373743562822384E-012
                     4                     7                     7
                     2  1.983448474907057E-011
                     4                     7                     7
                     4 -1.096123192212417E-011
                     4                     7                     8
                     3 -1.241103921023612E-011
                     4                     7                     9
                     4  8.280640062530154E-012
                     4                     7                    10
                     5 -2.046550429124494E-012
                     4                     8                     1
                     8 -1.222458766159118E-012
                     4                     8                     2
                     8 -5.436842122341634E-011
                     4                     8                     3
                     7  2.683362212985152E-012
                     4                     8                     3
                     9 -3.762795630635196E-012
                     4                     8                     6
                     3  1.250582536832523E-012
                     4                     8                     7
                     3  2.630625231536676E-011
                     4                     8                     8
                     1  1.088427091511246E-012
                     4                     8                     8
                     2 -4.427437583220950E-012
                     4                     8                     8
                     4 -1.631450530226175E-011
                     4                     9                     1
                     6 -1.012741973616116E-012
                     4                     9                     1
                     9 -2.280333907811460E-012
                     4                     9                     2
                     6  1.504761593107418E-012
                     4                     9                     2
                     7  1.327005172413465E-011
                     4                     9                     2
                     9 -8.204353862950597E-011
                     4                     9                     3
                     8 -1.260790083446039E-012
                     4                     9                     4
                     7  5.407480019314903E-012
                     4                     9                     5
                    10 -3.321254382626648E-011
                     4                     9                     6
                     1  1.012741973616116E-012
                     4                     9                     6
                     4  1.891700338041424E-012
                     4                     9                     7
                     2 -1.327005172413465E-011
                     4                     9                     7
                     4  8.491682357281150E-011
                     4                     9                     8
                     3  1.261019066944868E-012
                     4                     9                     9
                     1  1.027438550904591E-012
                     4                     9                     9
                     2 -8.280778840408232E-012
                     4                     9                    10
                     5  3.321250219290306E-011
                     4                    10                     2
                    10 -3.913873392047407E-011
                     4                    10                     5
                     7  3.965293371432921E-012
                     4                    10                     5
                     9 -1.523778325740466E-011
                     4                    10                     7
                     5  9.479243778809376E-012
                     4                    10                    10
                     2 -1.540743227446129E-011
                     4                    10                    10
                     4  5.247180467904400E-011
                     5                     2                     1
                     5 -1.138998617644660E-012
                     5                     2                     2
                     5 -1.717626041397580E-011
                     5                     2                     4
                     5  1.144224211907519E-011
                     5                     2                     5
                     4 -4.318867312391728E-012
                     5                     3                     3
                     5 -5.239964018244336E-011
                     5                     4                     2
                     5  3.678282158026125E-011
                     5                     4                     4
                     5 -3.723410468836619E-011
                     5                     4                     5
                     2  4.318867312391728E-012
                     5                     6                     2
                    10  1.128517418402808E-012
                     5                     6                     5
                     9 -1.081071863973104E-012
                     5                     7                     1
                    10  1.700427992856746E-012
                     5                     7                     2
                    10  3.172598295186901E-011
                     5                     7                     4
                    10 -3.965293371432921E-012
                     5                     7                     6
                     5 -2.839466509141353E-012
                     5                     7                     7
                     5 -4.890254867717658E-011
                     5                     7                     9
                     5  1.540744615224909E-011
                     5                     7                    10
                     4 -4.253670332632353E-012
                     5                     8                     3
                    10  2.298243886866835E-011
                     5                     8                     8
                     5 -7.538170088139395E-011
                     5                     9                     2
                    10 -1.769821095232160E-011
                     5                     9                     4
                    10  1.523778325740466E-011
                     5                     9                     5
                     6  1.081071863973104E-012
                     5                     9                     7
                     5  5.448098222560205E-011
                     5                     9                     9
                     5 -5.247180467904400E-011
                     5                     9                    10
                     2  4.253677271526257E-012
                     5                    10                     1
                     6  1.452522130351852E-012
                     5                    10                     1
                     7  1.995875686944260E-012
                     5                    10                     2
                     6  2.448669739196774E-012
                     5                    10                     2
                     7  3.898184552930672E-011
                     5                    10                     2
                     9 -2.182987818288851E-011
                     5                    10                     3
                     8  2.348136268759404E-011
                     5                    10                     4
                     7 -2.617787930869753E-012
                     5                    10                     4
                     9  3.321254382626648E-011
                     5                    10                     6
                     1 -1.452525599798804E-012
                     5                    10                     6
                     2 -2.587399045017591E-012
                     5                    10                     7
                     1 -1.857146381123442E-012
                     5                    10                     7
                     2 -3.898184552930672E-011
                     5                    10                     7
                     4  2.240108445961120E-011
                     5                    10                     8
                     3 -2.348133840146538E-011
                     5                    10                     9
                     1  1.067172392121840E-012
                     5                    10                     9
                     2  2.046581654147062E-012
                     5                    10                     9
                     4 -3.321243974285792E-011
                     6                     1                     2
                     9  2.299927609472618E-012
                     6                     1                     3
                     8 -1.476121308519041E-012
                     6                     1                     4
                     6  1.022792961435925E-012
                     6                     1                     4
                     9 -1.012741973616116E-012
                     6                     1                     5
                    10  1.452525599798804E-012
                     6                     1                     7
                     4 -2.239999852271524E-012
                     6                     1                     8
                     3  1.476121308519041E-012
                     6                     1                     9
                     1 -1.000727278821500E-012
                     6                     1                     9
                     4  1.012741973616116E-012
                     6                     1                    10
                     5 -1.452529069245756E-012
                     6                     2                     2
                     7  1.708475375061802E-012
                     6                     2                     4
                     7 -1.168585193889182E-012
                     6                     2                     5
                    10  2.587399045017591E-012
                     6                     2                     7
                     2 -1.436151544909059E-012
                     6                     2                    10
                     5 -1.995861809156452E-012
                     6                     3                     2
                     8  1.427174350920879E-012
                     6                     3                     3
                     7  3.753395164118878E-012
                     6                     3                     3
                     9 -1.568983658273293E-012
                     6                     3                     4
                     8 -1.250582536832523E-012
                     6                     3                     7
                     3 -2.923973563273563E-012
                     6                     3                     8
                     2 -1.250517051021305E-012
                     6                     3                     9
                     3  1.222475246032140E-012
                     6                     4                     2
                     7 -1.658989785824350E-012
                     6                     4                     2
                     9  1.475236599546292E-012
                     6                     4                     3
                     8 -2.504466686120699E-012
                     6                     4                     4
                     7  2.373743562822384E-012
                     6                     4                     4
                     9 -1.891700338041424E-012
                     6                     4                     7
                     4 -2.727863074314385E-012
                     6                     4                     8
                     3  2.373829865315313E-012
                     6                     4                     9
                     4  2.280323499470605E-012
                     6                     5                     5
                     7  2.839466509141353E-012
                     6                     5                     7
                     5 -2.261316134344327E-012
                     6                     5                    10
                     2 -1.700424523409794E-012
                     6                     8                     7
                     8 -1.496795742905732E-012
                     6                     8                     8
                     7  2.502876378374097E-012
                     6                     9                     7
                     9 -1.252754844305315E-012
                     6                     9                     9
                     7  1.691653761515255E-012
                     6                    10                     7
                    10 -1.399075300057007E-012
                     6                    10                    10
                     7  1.138998617644660E-012
                     7                     1                     5
                    10  1.857146381123442E-012
                     7                     1                     7
                     2 -1.098836299728845E-012
                     7                     1                     9
                     4 -1.504737306978754E-012
                     7                     1                    10
                     5 -2.448683616984582E-012
                     7                     2                     1
                     7 -1.708475375061802E-012
                     7                     2                     1
                     9  1.659001928888681E-012
                     7                     2                     2
                     9 -1.906377833371664E-012
                     7                     2                     3
                     8  2.026054324311133E-011
                     7                     2                     4
                     7 -1.983448474907057E-011
                     7                     2                     4
                     9  1.327005172413465E-011
                     7                     2                     5
                    10  3.898184552930672E-011
                     7                     2                     6
                     2  1.436151544909059E-012
                     7                     2                     7
                     1  1.098836299728845E-012
                     7                     2                     7
                     4 -8.483566280026444E-012
                     7                     2                     8
                     3 -2.026054324311133E-011
                     7                     2                     9
                     2  3.022443059719215E-011
                     7                     2                     9
                     4 -1.327005172413465E-011
                     7                     2                    10
                     5 -3.898184552930672E-011
                     7                     3                     1
                     8 -1.427170881473927E-012
                     7                     3                     3
                     7  1.663569282328581E-011
                     7                     3                     3
                     9 -5.857462952174597E-011
                     7                     3                     4
                     8 -2.630625231536676E-011
                     7                     3                     6
                     3  2.923973563273563E-012
                     7                     3                     8
                     2 -1.726874199192707E-011
                     7                     3                     8
                     4  2.658904867114398E-011
                     7                     3                     9
                     3  5.436849408180233E-011
                     7                     4                     1
                     6 -2.299941487260426E-012
                     7                     4                     1
                     9 -1.475219252311533E-012
                     7                     4                     2
                     7  1.906386506989044E-012
                     7                     4                     3
                     8 -4.188473179400631E-011
                     7                     4                     4
                     7  1.096123192212417E-011
                     7                     4                     4
                     9 -8.491682357281150E-011
                     7                     4                     5
                    10 -2.240108445961120E-011
                     7                     4                     6
                     1  2.239999852271524E-012
                     7                     4                     6
                     4  2.727863074314385E-012
                     7                     4                     7
                     2  8.483566280026444E-012
                     7                     4                     8
                     3  3.815682665664344E-011
                     7                     4                     9
                     2 -9.526462951825465E-012
                     7                     4                     9
                     4  8.204366352959624E-011
                     7                     4                    10
                     5  2.182984695786594E-011
                     7                     5                     4
                    10 -9.479243778809376E-012
                     7                     5                     5
                     7  4.890254867717658E-011
                     7                     5                     5
                     9 -5.448098222560205E-011
                     7                     5                     6
                     5  2.261316134344327E-012
                     7                     5                     9
                     5  3.913871310379236E-011
                     7                     5                    10
                     1 -1.128513948955856E-012
                     7                     5                    10
                     2 -3.172587192956655E-011
                     7                     5                    10
                     4  1.769820748287465E-011
                     7                     7                     7
                     9 -1.038996187620758E-011
                     7                     7                     9
                     7  1.038994668570399E-011
                     7                     8                     6
                     8  1.496795742905732E-012
                     7                     8                     8
                     9 -3.198554442140900E-011
                     7                     8                     9
                     8  2.806215503026177E-011
                     7                     9                     6
                     9  1.252754844305315E-012
                     7                     9                     7
                     7  1.038996187620758E-011
                     7                     9                     8
                     8 -3.727901527863684E-012
                     7                     9                     9
                     7  1.432964857883690E-012
                     7                     9                     9
                     9 -2.873319950522931E-012
                     7                    10                     6
                    10  1.399075300057007E-012
                     7                    10                     9
                    10  2.965943809996041E-011
                     7                    10                    10
                     7  1.717626041397580E-011
                     7                    10                    10
                     9 -3.678279382468563E-011
                     8                     1                     4
                     8 -1.088427091511246E-012
                     8                     1                     8
                     2 -1.170692015550756E-012
                     8                     1                     8
                     4  1.434936371114137E-012
                     8                     2                     1
                     8 -3.753406439821472E-012
                     8                     2                     2
                     8 -1.663569282328581E-011
                     8                     2                     3
                     9  2.400597082230504E-012
                     8                     2                     4
                     8  4.427437583220950E-012
                     8                     2                     6
                     3  1.250517051021305E-012
                     8                     2                     7
                     3  1.726874199192707E-011
                     8                     2                     8
                     1  1.170692015550756E-012
                     8                     2                     9
                     3 -2.683400376901623E-012
                     8                     3                     1
                     6  1.476038041792194E-012
                     8                     3                     1
                     9  2.504454976737236E-012
                     8                     3                     2
                     7 -2.026054324311133E-011
                     8                     3                     2
                     9  4.188482373435054E-011
                     8                     3                     4
                     6  1.590154657254983E-012
                     8                     3                     4
                     7  1.241103921023612E-011
                     8                     3                     4
                     9 -1.261019066944868E-012
                     8                     3                     5
                    10  2.348133840146538E-011
                     8                     3                     6
                     1 -1.476121308519041E-012
                     8                     3                     6
                     4 -2.373829865315313E-012
                     8                     3                     7
                     2  2.026054324311133E-011
                     8                     3                     7
                     4 -3.815682665664344E-011
                     8                     3                     9
                     1 -1.720779334996037E-012
                     8                     3                     9
                     2 -1.613903455321974E-011
                     8                     3                     9
                     4  1.260824777915559E-012
                     8                     3                    10
                     5 -2.348133493201843E-011
                     8                     4                     1
                     8  1.568969780485485E-012
                     8                     4                     2
                     8  5.857459482727645E-011
                     8                     4                     3
                     7 -2.400565857207937E-012
                     8                     4                     4
                     8  1.631450530226175E-011
                     8                     4                     7
                     3 -2.658904867114398E-011
                     8                     4                     8
                     1 -1.434936371114137E-012
                     8                     4                     9
                     3  3.762837263998620E-012
                     8                     5                     5
                     8  7.538170088139395E-011
                     8                     5                    10
                     3 -2.298241805198664E-011
                     8                     6                     8
                     7 -1.730806470368051E-012
                     8                     6                     8
                     9  1.450338113495597E-012
                     8                     7                     6
                     8 -2.502876378374097E-012
                     8                     7                     8
                     6  1.730806470368051E-012
                     8                     7                     8
                     9  2.179278025399300E-012
                     8                     7                     9
                     8  1.744106595258366E-012
                     8                     8                     7
                     9  3.727901527863684E-012
                     8                     8                     9
                     7 -3.727899264379891E-012
                     8                     9                     7
                     8  3.198554442140900E-011
                     8                     9                     8
                     6 -1.450338113495597E-012
                     8                     9                     8
                     7 -2.179278025399300E-012
                     8                     9                     9
                     8  2.007694011041394E-011
                     8                    10                    10
                     8  5.239964018244336E-011
                     9                     1                     1
                     6 -1.022737450284694E-012
                     9                     1                     3
                     8 -1.590142514190651E-012
                     9                     1                     4
                     9 -1.027438550904591E-012
                     9                     1                     5
                    10 -1.067172392121840E-012
                     9                     1                     6
                     1  1.000727278821500E-012
                     9                     1                     8
                     3  1.720779334996037E-012
                     9                     2                     1
                     7  1.168568714016160E-012
                     9                     2                     1
                     9 -2.373752236439763E-012
                     9                     2                     2
                     7  1.983447781017667E-011
                     9                     2                     2
                     9 -1.096123192212417E-011
                     9                     2                     3
                     8 -1.241112768113339E-011
                     9                     2                     4
                     9  8.280778840408232E-012
                     9                     2                     5
                    10 -2.046581654147062E-012
                     9                     2                     7
                     2 -3.022443059719215E-011
                     9                     2                     7
                     4  9.526462951825465E-012
                     9                     2                     8
                     3  1.613903455321974E-011
                     9                     2                     9
                     4 -5.407299608073401E-012
                     9                     2                    10
                     5  2.617819155892320E-012
                     9                     3                     1
                     8  1.250570393768191E-012
                     9                     3                     2
                     8  2.630621762089724E-011
                     9                     3                     3
                     6  1.088440969299054E-012
                     9                     3                     3
                     7 -4.427369929005387E-012
                     9                     3                     3
                     9 -1.631450530226175E-011
                     9                     3                     6
                     3 -1.222475246032140E-012
                     9                     3                     7
                     3 -5.436849408180233E-011
                     9                     3                     8
                     2  2.683400376901623E-012
                     9                     3                     8
                     4 -3.762837263998620E-012
                     9                     4                     1
                     6  1.012741973616116E-012
                     9                     4                     1
                     9  1.891698603317948E-012
                     9                     4                     2
                     7 -1.327005172413465E-011
                     9                     4                     2
                     9  8.491689296175053E-011
                     9                     4                     3
                     8  1.260588855522826E-012
                     9                     4                     4
                     6  1.027468041203683E-012
                     9                     4                     4
                     7 -8.280640062530154E-012
                     9                     4                     5
                    10  3.321243974285792E-011
                     9                     4                     6
                     1 -1.012741973616116E-012
[...]
    6    4    8    3        0.0153264547
    6    4    8    7       -0.0002491971
    6    4    8    8       -0.0052109032
    6    6    8    3        0.0142819265
    6    6    8    7        0.0261735442
    6    6    8    8        0.2857250490
    6    7    8    1        0.0013608847
    6    7    8    2       -0.0064195166
    6    7    8    4        0.0253378292
    6    7    8    6        0.0000944570
    6    8    8    1        0.0003091438
    6    8    8    2       -0.0114197324
    6    8    8    4        0.0053490250
    6    8    8    6        0.0173508542
    7    1    1    3       -0.0104471149
    7    1    1    7        0.0045013122
    7    1    1    8        0.0037856298
    7    2    1    1       -0.0000000002
    7    2    1    3       -0.0082884163
    7    2    1    7        0.0036964794
    7    2    1    8        0.0030931957
    7    3    1    1       -0.1659994978
    7    3    1    2        0.0005988601
    7    3    1    4        0.0003011364
    7    3    1    6        0.0005044397
    7    4    1    1        0.0000000001
    7    4    1    3       -0.0029445150
    7    4    1    7        0.0014434069
    7    4    1    8        0.0014465080
    7    6    1    3       -0.0038803733
    7    6    1    7        0.0016986050
    7    6    1    8        0.0013608847
    7    7    1    1        0.3363076826
    7    7    1    2       -0.0014326044
    7    7    1    4       -0.0014254058
    7    7    1    6       -0.0001235056
    7    8    1    1        0.1107697163
    7    8    1    2       -0.0014673371
    7    8    1    4        0.0002000522
    7    8    1    6       -0.0004763390
    7    1    2    3       -0.0111237365
    7    1    2    7        0.0036964794
    7    1    2    8        0.0026266328
    7    2    2    2       -0.0000000001
    7    2    2    3       -0.0325527849
    7    2    2    7        0.0127281110
    7    2    2    8        0.0099593649
    7    3    2    1        0.0014679513
    7    3    2    2       -0.0950080548
    7    3    2    4       -0.0144505497
    7    3    2    6       -0.0204867304
    7    4    2    3       -0.0157102972
    7    4    2    7        0.0025396877
    7    4    2    8        0.0024591844
    7    6    2    3       -0.0412050083
    7    6    2    7       -0.0007436053
    7    6    2    8       -0.0064195166
    7    7    2    1       -0.0014326044
    7    7    2    2        0.2999133633
    7    7    2    4       -0.0101950038
    7    7    2    6        0.0078472518
    7    8    2    1       -0.0014385102
    7    8    2    2        0.0753534624
    7    8    2    4        0.0005494808
    7    8    2    6        0.0066796750
    7    1    3    1       -0.0095253183
    7    1    3    2       -0.0108942491
    7    1    3    4       -0.0017245117
    7    1    3    6       -0.0017888797
    7    2    3    1       -0.0082031757
    7    2    3    2       -0.0329210362
    7    2    3    4       -0.0058049524
    7    2    3    6       -0.0077073034
    7    3    3    3       -0.0837038794
    7    3    3    7        0.0315462601
    7    3    3    8        0.0248910011
    7    4    3    1       -0.0030689498
    7    4    3    2       -0.0167818965
    7    4    3    4       -0.0059543166
    7    4    3    6        0.0058825796
    7    5    3    5       -0.0089110258
    7    6    3    1       -0.0038601989
    7    6    3    2       -0.0412609104
    7    6    3    4        0.0139439322
    7    6    3    6        0.0177787207
    7    7    3    3        0.3034163851
    7    7    3    7       -0.0061136566
    7    7    3    8        0.0091634092
    7    8    3    3        0.0743889857
    7    8    3    7       -0.0106904331
    7    8    3    8        0.0043784997
    7    1    4    3       -0.0017726422
    7    1    4    7        0.0014434069
    7    1    4    8        0.0030539550
    7    2    4    3       -0.0056668940
    7    2    4    7        0.0025396877
    7    2    4    8        0.0079758179
    7    3    4    1        0.0003140141
    7    3    4    2       -0.0154522292
    7    3    4    4       -0.0844289151
    7    3    4    6        0.0141138773
    7    4    4    3       -0.0068471890
    7    4    4    7        0.0085369648
    7    4    4    8        0.0150575942
    7    6    4    3        0.0137528527
    7    6    4    7        0.0124976346
    7    6    4    8        0.0253378292
    7    7    4    1       -0.0014254058
    7    7    4    2       -0.0101950038
    7    7    4    4        0.2852011061
    7    7    4    6        0.0038505227
    7    8    4    1        0.0000914753
    7    8    4    2        0.0002077196
    7    8    4    4        0.0724709651
    7    8    4    6       -0.0002491971
    7    2    5    5       -0.0000000001
    7    3    5    5       -0.0897482441
    7    5    5    3       -0.0091848870
    7    5    5    7        0.0045005806
    7    5    5    8        0.0038677862
    7    7    5    5        0.2866392052
    7    8    5    5        0.0674154595
    7    1    6    3       -0.0021523172
    7    1    6    7        0.0016986050
    7    1    6    8        0.0004398513
    7    2    6    3       -0.0110128199
    7    2    6    7       -0.0007436053
    7    2    6    8       -0.0012094022
    7    3    6    1        0.0000699995
    7    3    6    2       -0.0233313582
    7    3    6    4        0.0143707831
    7    3    6    6       -0.0078479188
    7    4    6    3        0.0065811186
    7    4    6    7        0.0124976346
    7    4    6    8        0.0024011135
    7    6    6    3        0.0181845454
    7    6    6    7        0.0648413358
    7    6    6    8        0.0000944570
    7    7    6    1       -0.0001235056
    7    7    6    2        0.0078472518
    7    7    6    4        0.0038505227
    7    7    6    6        0.2553944721
    7    8    6    1       -0.0004621473
    7    8    6    2        0.0065813953
    7    8    6    4        0.0004469572
    7    8    6    6        0.0261735442
    7    1    7    1        0.0047885903
    7    1    7    2        0.0040673662
    7    1    7    4        0.0015372515
    7    1    7    6        0.0016903748
    7    2    7    1        0.0040673662
    7    2    7    2        0.0153454390
    7    2    7    4        0.0029711079
    7    2    7    6       -0.0008773744
    7    3    7    3        0.0339120351
    7    3    7    7       -0.0061136566
    7    3    7    8       -0.0105043831
    7    4    7    1        0.0015372515
    7    4    7    2        0.0029711079
    7    4    7    4        0.0103037358
    7    4    7    6        0.0125619254
    7    5    7    5        0.0062291464
    7    6    7    1        0.0016903748
    7    6    7    2       -0.0008773744
    7    6    7    4        0.0125619254
    7    6    7    6        0.0648418796
    7    7    7    3       -0.0061136566
    7    7    7    7        0.2605490836
    7    7    7    8        0.0210049217
    7    8    7    3       -0.0105043831
    7    8    7    7        0.0210049217
    7    8    7    8        0.0201295763
    7    1    8    1        0.0039966342
    7    1    8    2        0.0029207703
    7    1    8    4        0.0031757876
    7    1    8    6        0.0004215562
    7    2    8    1        0.0033740866
    7    2    8    2        0.0114997357
    7    2    8    4        0.0083594610
    7    2    8    6       -0.0011491126
    7    3    8    3        0.0254041827
    7    3    8    7       -0.0106904331
    7    3    8    8       -0.0231393524
    7    4    8    1        0.0014979441
    7    4    8    2        0.0031626332
    7    4    8    4        0.0155742633
    7    4    8    6        0.0019966528
    7    5    8    5        0.0045494570
    7    6    8    1        0.0013549528
    7    6    8    2       -0.0065418248
    7    6    8    4        0.0256999578
    7    6    8    6        0.0001034490
    7    7    8    3        0.0091634092
    7    7    8    7        0.0210049217
    7    7    8    8        0.2687501174
    7    8    8    3        0.0055649523
    7    8    8    7        0.0201849140
    7    8    8    8        0.0473693502
    8    1    1    3       -0.0090193090
    8    1    1    7        0.0037856298
    8    1    1    8        0.0032327117
    8    2    1    3       -0.0060525526
    8    2    1    7        0.0026266328
    8    2    1    8        0.0023553393
    8    3    1    1       -0.1020544085
    8    3    1    2        0.0013723057
    8    3    1    4       -0.0038673130
    8    3    1    6        0.0016900255
    8    4    1    3       -0.0063235027
    8    4    1    7        0.0030539550
    8    4    1    8        0.0027819705
    8    6    1    3       -0.0010496997
    8    6    1    7        0.0004398513
    8    6    1    8        0.0003091438
    8    7    1    1        0.1107697163
    8    7    1    2       -0.0014385102
    8    7    1    4        0.0000914753
    8    7    1    6       -0.0004621473
    8    8    1    1        0.4592303031
    8    8    1    2       -0.0012376657
    8    8    1    4       -0.0003084020
    8    8    1    6       -0.0002798131
    8    1    2    3       -0.0092815176
    8    1    2    7        0.0030931957
    8    1    2    8        0.0023553393
    8    2    2    3       -0.0063345029
    8    2    2    7        0.0099593649
    8    2    2    8        0.0241721378
    8    3    2    1        0.0021904357
    8    3    2    2       -0.0229657163
    8    3    2    4       -0.0494623653
    8    3    2    6       -0.0088818498
    8    4    2    3       -0.0535520891
    8    4    2    7        0.0079758179
    8    4    2    8       -0.0033165224
    8    6    2    3       -0.0072417633
    8    6    2    7       -0.0012094022
    8    6    2    8       -0.0114197324
    8    7    2    1       -0.0014673371
    8    7    2    2        0.0753534624
    8    7    2    4        0.0002077196
    8    7    2    6        0.0065813953
    8    8    2    1       -0.0012376657
    8    8    2    2        0.4297436198
    8    8    2    4       -0.0104211145
    8    8    2    6        0.0138712599
    8    1    3    1       -0.0080172280
    8    1    3    2       -0.0089883893
    8    1    3    4       -0.0020285709
    8    1    3    6       -0.0013493287
    8    2    3    1       -0.0056989831
    8    2    3    2       -0.0054289894
    8    2    3    4       -0.0247122129
    8    2    3    6       -0.0066787120
    8    3    3    3       -0.0110222620
    8    3    3    7        0.0248910011
    8    3    3    8        0.0557256379
    8    4    3    1       -0.0068446045
    8    4    3    2       -0.0568129647
    8    4    3    4        0.0028909632
    8    4    3    6        0.0110090468
    8    5    3    5       -0.0092506987
    8    6    3    1       -0.0009305566
    8    6    3    2       -0.0068356716
    8    6    3    4        0.0110915102
    8    6    3    6        0.0009757452
    8    7    3    3        0.0743889857
    8    7    3    7       -0.0105043831
    8    7    3    8        0.0055649523
    8    8    3    3        0.4341290051
    8    8    3    7       -0.0231393524
    8    8    3    8        0.0198675595
    8    1    4    3       -0.0020758260
    8    1    4    7        0.0014465080
    8    1    4    8        0.0027819705
    8    2    4    3       -0.0243389088
    8    2    4    7        0.0024591844
    8    2    4    8       -0.0033165224
    8    3    4    1       -0.0043640126
    8    3    4    2       -0.0524482711
    8    3    4    4       -0.0391833601
    8    3    4    6        0.0150449303
    8    4    4    3        0.0013659172
    8    4    4    7        0.0150575942
    8    4    4    8        0.0423652432
    8    6    4    3        0.0110398994
    8    6    4    7        0.0024011135
    8    6    4    8        0.0053490250
    8    7    4    1        0.0002000522
    8    7    4    2        0.0005494808
    8    7    4    4        0.0724709651
    8    7    4    6        0.0004469572
    8    8    4    1       -0.0003084020
    8    8    4    2       -0.0104211145
    8    8    4    4        0.4175574495
    8    8    4    6       -0.0052109032
    8    3    5    5       -0.0423369703
    8    5    5    3       -0.0092559759
    8    5    5    7        0.0038677862
    8    5    5    8        0.0075076876
    8    7    5    5        0.0674154595
    8    8    5    5        0.4006339222
    8    1    6    3       -0.0017369719
    8    1    6    7        0.0013608847
    8    1    6    8        0.0003091438
    8    2    6    3       -0.0098128625
    8    2    6    7       -0.0064195166
    8    2    6    8       -0.0114197324
    8    3    6    1        0.0014075085
    8    3    6    2       -0.0109190177
    8    3    6    4        0.0153264547
    8    3    6    6        0.0142819265
    8    4    6    3        0.0120889137
    8    4    6    7        0.0253378292
    8    4    6    8        0.0053490250
    8    6    6    3        0.0005056997
    8    6    6    7        0.0000944570
    8    6    6    8        0.0173508542
    8    7    6    1       -0.0004763390
    8    7    6    2        0.0066796750
    8    7    6    4       -0.0002491971
    8    7    6    6        0.0261735442
    8    8    6    1       -0.0002798131
    8    8    6    2        0.0138712599
    8    8    6    4       -0.0052109032
    8    8    6    6        0.2857250490
    8    1    7    1        0.0039966342
    8    1    7    2        0.0033740866
    8    1    7    4        0.0014979441
    8    1    7    6        0.0013549528
    8    2    7    1        0.0029207703
    8    2    7    2        0.0114997357
    8    2    7    4        0.0031626332
    8    2    7    6       -0.0065418248
    8    3    7    3        0.0254041827
    8    3    7    7        0.0091634092
    8    3    7    8        0.0055649523
    8    4    7    1        0.0031757876
    8    4    7    2        0.0083594610
    8    4    7    4        0.0155742633
    8    4    7    6        0.0256999578
    8    5    7    5        0.0045494570
    8    6    7    1        0.0004215562
    8    6    7    2       -0.0011491126
    8    6    7    4        0.0019966528
    8    6    7    6        0.0001034490
    8    7    7    3       -0.0106904331
    8    7    7    7        0.0210049217
    8    7    7    8        0.0201849140
    8    8    7    3       -0.0231393524
    8    8    7    7        0.2687501174
    8    8    7    8        0.0473693502
    8    1    8    1        0.0033083847
    8    1    8    2        0.0026463847
    8    1    8    4        0.0027416953
    8    1    8    6        0.0003126402
    8    2    8    1        0.0026463847
    8    2    8    2        0.0264128212
    8    2    8    4       -0.0041004779
    8    2    8    6       -0.0105316668
    8    3    8    3        0.0565210763
    8    3    8    7        0.0043784997
    8    3    8    8        0.0198675595
    8    4    8    1        0.0027416953
    8    4    8    2       -0.0041004779
    8    4    8    4        0.0418241630
    8    4    8    6        0.0045523421
    8    5    8    5        0.0070294697
    8    6    8    1        0.0003126402
    8    6    8    2       -0.0105316668
    8    6    8    4        0.0045523421
    8    6    8    6        0.0173327247
    8    7    8    3        0.0043784997
    8    7    8    7        0.0201295763
    8    7    8    8        0.0473693502
    8    8    8    3        0.0198675595
    8    8    8    7        0.0473693502
    8    8    8    8        0.3735389911
 end_two_electron_integrals

 Task  times  cpu:      663.7s     wall:      663.7s
 
 
                                NWChem Input Module
                                -------------------
 
 
 Summary of allocated global arrays
-----------------------------------
  No active global arrays


MA_summarize_allocated_blocks: starting scan ...
MA_summarize_allocated_blocks: scan completed: 0 heap blocks, 0 stack blocks
MA usage statistics:

	allocation statistics:
					      heap	     stack
					      ----	     -----
	current number of blocks	         0	         0
	maximum number of blocks	        16	        42
	current total bytes		         0	         0
	maximum total bytes		     80104	4725685704
	maximum total K-bytes		        81	   4725686
	maximum total M-bytes		         1	      4726
 
 
                                     CITATION
                                     --------
                Please cite the following reference when publishing
                           results obtained with NWChem:
 
          E. Apra, E. J. Bylaska, W. A. de Jong, N. Govind, K. Kowalski,
       T. P. Straatsma, M. Valiev, H. J. J. van Dam, Y. Alexeev, J. Anchell,
       V. Anisimov, F. W. Aquino, R. Atta-Fynn, J. Autschbach, N. P. Bauman,
     J. C. Becca, D. E. Bernholdt, K. Bhaskaran-Nair, S. Bogatko, P. Borowski,
         J. Boschen, J. Brabec, A. Bruner, E. Cauet, Y. Chen, G. N. Chuev,
      C. J. Cramer, J. Daily, M. J. O. Deegan, T. H. Dunning Jr., M. Dupuis,
   K. G. Dyall, G. I. Fann, S. A. Fischer, A. Fonari, H. Fruchtl, L. Gagliardi,
      J. Garza, N. Gawande, S. Ghosh, K. Glaesemann, A. W. Gotz, J. Hammond,
       V. Helms, E. D. Hermes, K. Hirao, S. Hirata, M. Jacquelin, L. Jensen,
   B. G. Johnson, H. Jonsson, R. A. Kendall, M. Klemm, R. Kobayashi, V. Konkov,
      S. Krishnamoorthy, M. Krishnan, Z. Lin, R. D. Lins, R. J. Littlefield,
      A. J. Logsdail, K. Lopata, W. Ma, A. V. Marenich, J. Martin del Campo,
   D. Mejia-Rodriguez, J. E. Moore, J. M. Mullin, T. Nakajima, D. R. Nascimento,
    J. A. Nichols, P. J. Nichols, J. Nieplocha, A. Otero-de-la-Roza, B. Palmer,
    A. Panyala, T. Pirojsirikul, B. Peng, R. Peverati, J. Pittner, L. Pollack,
   R. M. Richard, P. Sadayappan, G. C. Schatz, W. A. Shelton, D. W. Silverstein,
   D. M. A. Smith, T. A. Soares, D. Song, M. Swart, H. L. Taylor, G. S. Thomas,
            V. Tipparaju, D. G. Truhlar, K. Tsemekhman, T. Van Voorhis,
      A. Vazquez-Mayagoitia, P. Verma, O. Villa, A. Vishnu, K. D. Vogiatzis,
        D. Wang, J. H. Weare, M. J. Williamson, T. L. Windus, K. Wolinski,
        A. T. Wong, Q. Wu, C. Yang, Q. Yu, M. Zacharias, Z. Zhang, Y. Zhao,
                                and R. J. Harrison
                        "NWChem: Past, present, and future
                         J. Chem. Phys. 152, 184102 (2020)
                               doi:10.1063/5.0004997
 
                                      AUTHORS
                                      -------
  E. Apra, E. J. Bylaska, N. Govind, K. Kowalski, M. Valiev, D. Mejia-Rodriguez,
       A. Kunitsa, N. P. Bauman, A. Panyala, W. A. de Jong, T. P. Straatsma,
   H. J. J. van Dam, D. Wang, T. L. Windus, J. Hammond, J. Autschbach, A. Woods,
    K. Bhaskaran-Nair, J. Brabec, K. Lopata, S. A. Fischer, S. Krishnamoorthy,
     M. Jacquelin, W. Ma, M. Klemm, O. Villa, Y. Chen, V. Anisimov, F. Aquino,
     S. Hirata, M. T. Hackler, E. Hermes, L. Jensen, J. E. Moore, J. C. Becca,
      V. Konjkov, T. Risthaus, M. Malagoli, A. Marenich, A. Otero-de-la-Roza,
        J. Mullin, P. Nichols, R. Peverati, J. Pittner, Y. Zhao, P.-D. Fan,
        A. Fonari, M. J. Williamson, R. J. Harrison, J. R. Rehr, M. Dupuis,
     D. Silverstein, D. M. A. Smith, J. Nieplocha, V. Tipparaju, M. Krishnan,
     B. E. Van Kuiken, A. Vazquez-Mayagoitia, M. Swart, Q. Wu, T. Van Voorhis,
     A. A. Auer, M. Nooijen, L. D. Crosby, E. Brown, G. Cisneros, G. I. Fann,
   H. Fruchtl, J. Garza, K. Hirao, R. A. Kendall, J. A. Nichols, K. Tsemekhman,
    K. Wolinski, J. Anchell, D. E. Bernholdt, P. Borowski, T. Clark, D. Clerc,
   H. Dachsel, M. J. O. Deegan, K. Dyall, D. Elwood, E. Glendening, M. Gutowski,
   A. C. Hess, J. Jaffe, B. G. Johnson, J. Ju, R. Kobayashi, R. Kutteh, Z. Lin,
   R. Littlefield, X. Long, B. Meng, T. Nakajima, S. Niu, L. Pollack, M. Rosing,
   K. Glaesemann, G. Sandrone, M. Stave, H. Taylor, G. Thomas, J. H. van Lenthe,
                               A. T. Wong, Z. Zhang.

 Total times  cpu:      664.2s     wall:      664.2s
