 argument  1 = input.nw
  NWChem w/ OpenMP: maximum threads =    1
 


============================== echo of input deck ==============================
 echo
 start H2O
 title "H2O"

 memory total 24 gb

 geometry units angstrom
 symmetry c1
   zmatrix
     O
     H1 O 0.97551
     H2 O 0.97551 H1 102.30
   end
 end

 basis spherical
   * library cc-pVTZ
 end

 tce
   2eorb
   2emet 13
   ccsd
   maxiter 300
 end

# set tce:print_integrals T
# set tce:qorb 8
# set tce:qela 5
# set tce:qelb 5

 set tce:qducc T
 set tce:nactv 3
 set tce:nonhf T
 set tce:ducc_model 6

 set tce:printtol 0.02

 task tce
================================================================================


                                         
                                         
 
 
             Northwest Computational Chemistry Package (NWChem) 7.2.3
             --------------------------------------------------------
 
 
                    Environmental Molecular Sciences Laboratory
                       Pacific Northwest National Laboratory
                                Richland, WA 99352
 
                              Copyright (c) 1994-2022
                       Pacific Northwest National Laboratory
                            Battelle Memorial Institute
 
             NWChem is an open-source computational chemistry package
                        distributed under the terms of the
                      Educational Community License (ECL) 2.0
             A copy of the license is included with this distribution
                              in the LICENSE.TXT file
 
                                  ACKNOWLEDGMENT
                                  --------------

            This software and its documentation were developed at the
            EMSL at Pacific Northwest National Laboratory, a multiprogram
            national laboratory, operated for the U.S. Department of Energy
            by Battelle under Contract Number DE-AC05-76RL01830. Support
            for this work was provided by the Department of Energy Office
            of Biological and Environmental Research, Office of Basic
            Energy Sciences, and the Office of Advanced Scientific Computing.


           Job information
           ---------------

    hostname        = koothan
    program         = /hpc/home/baum612/code/nwchem/bin/LINUX64/nwchem
    date            = Thu Nov 21 22:43:17 2024

    compiled        = Thu_Nov_21_17:16:59_2024
    source          = /hpc/home/baum612/code/nwchem
    nwchem branch   = 7.2.3
    nwchem revision = v7.2.0-beta1-1291-g6d839a76f0
    ga revision     = 5.8.0
    use scalapack   = T
    input           = input.nw
    prefix          = H2O.
    data base       = ./H2O.db
    status          = startup
    nproc           =        1
    time left       =     -1s



           Memory information
           ------------------

    heap     =    805306368 doubles =     6144.0 Mbytes
    stack    =    805306365 doubles =     6144.0 Mbytes
    global   =   1610612736 doubles =    12288.0 Mbytes (distinct from heap & stack)
    total    =   3221225469 doubles =    24576.0 Mbytes
    verify   = yes
    hardfail = no 


           Directory information
           ---------------------
 
  0 permanent = .
  0 scratch   = .
 
 
 
 
                                NWChem Input Module
                                -------------------
 
 
                                        H2O
                                        ---

 Scaling coordinates for geometry "geometry" by  1.889725989
 (inverse scale =  0.529177249)

 Turning off AUTOSYM since
 SYMMETRY directive was detected!
 
 
 
                             Geometry "geometry" -> ""
                             -------------------------
 
 Output coordinates in angstroms (scale by  1.889725989 to convert to a.u.)
 
  No.       Tag          Charge          X              Y              Z
 ---- ---------------- ---------- -------------- -------------- --------------
    1 O                    8.0000    -0.09531177     0.00000000    -0.07676967
    2 H1                   1.0000    -0.09531177     0.00000000     0.89874033
    3 H2                   1.0000     0.85780596     0.00000000    -0.28458294
 
      Atomic Mass 
      ----------- 
 
      O                 15.994910
      H1                 1.007825
      H2                 1.007825
 

 Effective nuclear repulsion energy (a.u.)       9.0276663843

            Nuclear Dipole moment (a.u.) 
            ----------------------------
        X                 Y               Z
 ---------------- ---------------- ----------------
    -0.0000000000     0.0000000000    -0.0000000000
 


                                Z-matrix (user)
                                -------- 

 Units are Angstrom for bonds and degrees for angles
 
      Type          Name      I     J     K     L     M      Value
      ----------- --------  ----- ----- ----- ----- ----- ----------
    1 Stretch                  2     1                       0.97551
    2 Stretch                  3     1                       0.97551
    3 Bend                     3     1     2               102.30000
 
 
            XYZ format geometry
            -------------------
     3
 geometry
 O                    -0.09531177     0.00000000    -0.07676967
 H1                   -0.09531177     0.00000000     0.89874033
 H2                    0.85780596     0.00000000    -0.28458294
 
 ==============================================================================
                                internuclear distances
 ------------------------------------------------------------------------------
       center one      |      center two      | atomic units |  angstroms
 ------------------------------------------------------------------------------
    2 H1               |   1 O                |     1.84345  |     0.97551
    3 H2               |   1 O                |     1.84345  |     0.97551
 ------------------------------------------------------------------------------
                         number of included internuclear distances:          2
 ==============================================================================



 ==============================================================================
                                 internuclear angles
 ------------------------------------------------------------------------------
        center 1       |       center 2       |       center 3       |  degrees
 ------------------------------------------------------------------------------
    2 H1               |   1 O                |   3 H2               |   102.30
 ------------------------------------------------------------------------------
                            number of included internuclear angles:          1
 ==============================================================================





 Summary of "ao basis" -> "" (spherical)
 ------------------------------------------------------------------------------
       Tag                 Description            Shells   Functions and Types
 ---------------- ------------------------------  ------  ---------------------
 *                          cc-pVTZ                   on all atoms 


                      Basis "ao basis" -> "ao basis" (spherical)
                      -----
  O (Oxygen)
  ----------
            Exponent  Coefficients 
       -------------- ---------------------------------------------------------
  1 S  1.53300000E+04  0.000508
  1 S  2.29900000E+03  0.003929
  1 S  5.22400000E+02  0.020243
  1 S  1.47300000E+02  0.079181
  1 S  4.75500000E+01  0.230687
  1 S  1.67600000E+01  0.433118
  1 S  6.20700000E+00  0.350260
  1 S  6.88200000E-01 -0.008154
 
  2 S  1.53300000E+04 -0.000115
  2 S  2.29900000E+03 -0.000895
  2 S  5.22400000E+02 -0.004636
  2 S  1.47300000E+02 -0.018724
  2 S  4.75500000E+01 -0.058463
  2 S  1.67600000E+01 -0.136463
  2 S  6.20700000E+00 -0.175740
  2 S  6.88200000E-01  0.603418
 
  3 S  1.75200000E+00  1.000000
 
  4 S  2.38400000E-01  1.000000
 
  5 P  3.44600000E+01  0.015928
  5 P  7.74900000E+00  0.099740
  5 P  2.28000000E+00  0.310492
 
  6 P  7.15600000E-01  1.000000
 
  7 P  2.14000000E-01  1.000000
 
  8 D  2.31400000E+00  1.000000
 
  9 D  6.45000000E-01  1.000000
 
 10 F  1.42800000E+00  1.000000
 
  H1 (Hydrogen)
  -------------
            Exponent  Coefficients 
       -------------- ---------------------------------------------------------
  1 S  3.38700000E+01  0.006068
  1 S  5.09500000E+00  0.045308
  1 S  1.15900000E+00  0.202822
 
  2 S  3.25800000E-01  1.000000
 
  3 S  1.02700000E-01  1.000000
 
  4 P  1.40700000E+00  1.000000
 
  5 P  3.88000000E-01  1.000000
 
  6 D  1.05700000E+00  1.000000
 
  H2 (Hydrogen)
  -------------
            Exponent  Coefficients 
       -------------- ---------------------------------------------------------
  1 S  3.38700000E+01  0.006068
  1 S  5.09500000E+00  0.045308
  1 S  1.15900000E+00  0.202822
 
  2 S  3.25800000E-01  1.000000
 
  3 S  1.02700000E-01  1.000000
 
  4 P  1.40700000E+00  1.000000
 
  5 P  3.88000000E-01  1.000000
 
  6 D  1.05700000E+00  1.000000
 


 Summary of "ao basis" -> "ao basis" (spherical)
 ------------------------------------------------------------------------------
       Tag                 Description            Shells   Functions and Types
 ---------------- ------------------------------  ------  ---------------------
 O                          cc-pVTZ                 10       30   4s3p2d1f
 H1                         cc-pVTZ                  6       14   3s2p1d
 H2                         cc-pVTZ                  6       14   3s2p1d


                                 NWChem SCF Module
                                 -----------------
 
 
                                        H2O
 
 

  ao basis        = "ao basis"
  functions       =    58
  atoms           =     3
  closed shells   =     5
  open shells     =     0
  charge          =   0.00
  wavefunction    = RHF 
  input vectors   = atomic
  output vectors  = ./H2O.movecs
  use symmetry    = F
  symmetry adapt  = F


 Summary of "ao basis" -> "ao basis" (spherical)
 ------------------------------------------------------------------------------
       Tag                 Description            Shells   Functions and Types
 ---------------- ------------------------------  ------  ---------------------
 O                          cc-pVTZ                 10       30   4s3p2d1f
 H1                         cc-pVTZ                  6       14   3s2p1d
 H2                         cc-pVTZ                  6       14   3s2p1d



 Forming initial guess at       0.4s

 
      Superposition of Atomic Density Guess
      -------------------------------------
 
 Sum of atomic energies:         -75.78028790
 
      Non-variational initial energy
      ------------------------------

 Total energy =     -75.912070
 1-e energy   =    -121.492220
 2-e energy   =      36.552483
 HOMO         =      -0.472280
 LUMO         =       0.062285
 

 Starting SCF solution at       0.6s



 ----------------------------------------------
         Quadratically convergent ROHF

 Convergence threshold     :          1.000E-04
 Maximum no. of iterations :           30
 Final Fock-matrix accuracy:          1.000E-07
 ----------------------------------------------


              iter       energy          gnorm     gmax       time
             ----- ------------------- --------- --------- --------
                 1      -76.0197609011  8.47D-01  2.94D-01      0.7
                 2      -76.0528755440  1.97D-01  6.24D-02      1.0
                 3      -76.0551184056  1.66D-02  6.62D-03      1.4
                 4      -76.0551436506  7.23D-05  3.06D-05      2.0


       Final RHF  results 
       ------------------ 

         Total SCF energy =    -76.055143650554
      One-electron energy =   -122.814976977226
      Two-electron energy =     37.732166942339
 Nuclear repulsion energy =      9.027666384333

        Time for solution =      1.5s


             Final eigenvalues
             -----------------

              1      
    1  -20.5591
    2   -1.3381
    3   -0.6958
    4   -0.5786
    5   -0.5038
    6    0.1399
    7    0.2028
    8    0.5330
    9    0.5991
   10    0.6703
   11    0.7866
   12    0.7868
   13    0.8064
   14    0.8620
   15    0.9442
 
                       ROHF Final Molecular Orbital Analysis
                       -------------------------------------
 
 Vector    2  Occ=2.000000D+00  E=-1.338061D+00
              MO Center=  3.7D-02,  7.8D-17,  3.0D-02, r^2= 5.0D-01
   Bfn.  Coefficient  Atom+Function         Bfn.  Coefficient  Atom+Function  
  ----- ------------  ---------------      ----- ------------  ---------------
     2      0.506055  1 O  s                  4      0.287534  1 O  s          
 
 Vector    3  Occ=2.000000D+00  E=-6.957697D-01
              MO Center=  7.7D-02, -1.5D-16,  6.2D-02, r^2= 7.8D-01
   Bfn.  Coefficient  Atom+Function         Bfn.  Coefficient  Atom+Function  
  ----- ------------  ---------------      ----- ------------  ---------------
    10      0.266745  1 O  pz                 7      0.219244  1 O  pz         
    32      0.217660  2 H  s                 46     -0.217660  3 H  s          
     8     -0.214852  1 O  px                 5     -0.176592  1 O  px         
 
 Vector    4  Occ=2.000000D+00  E=-5.786264D-01
              MO Center= -1.2D-01, -1.5D-17, -9.5D-02, r^2= 7.1D-01
   Bfn.  Coefficient  Atom+Function         Bfn.  Coefficient  Atom+Function  
  ----- ------------  ---------------      ----- ------------  ---------------
     8     -0.295884  1 O  px                 4      0.277882  1 O  s          
     5     -0.241678  1 O  px                10     -0.238322  1 O  pz         
    11     -0.213293  1 O  px                 7     -0.194662  1 O  pz         
     2      0.179845  1 O  s                 13     -0.171799  1 O  pz         
 
 Vector    5  Occ=2.000000D+00  E=-5.037917D-01
              MO Center= -6.9D-02,  3.6D-16, -5.5D-02, r^2= 6.3D-01
   Bfn.  Coefficient  Atom+Function         Bfn.  Coefficient  Atom+Function  
  ----- ------------  ---------------      ----- ------------  ---------------
     9      0.444873  1 O  py                12      0.376111  1 O  py         
     6      0.357601  1 O  py         
 
 Vector    6  Occ=0.000000D+00  E= 1.399110D-01
              MO Center=  5.0D-01, -1.6D-17,  4.1D-01, r^2= 3.7D+00
   Bfn.  Coefficient  Atom+Function         Bfn.  Coefficient  Atom+Function  
  ----- ------------  ---------------      ----- ------------  ---------------
     4      1.471209  1 O  s                 33     -0.908991  2 H  s          
    47     -0.908991  3 H  s                 11      0.355379  1 O  px         
    13      0.286243  1 O  pz                32     -0.251455  2 H  s          
    46     -0.251455  3 H  s                 39      0.167835  2 H  pz         
    51      0.164169  3 H  px                 8      0.151304  1 O  px         
 
 Vector    7  Occ=0.000000D+00  E= 2.027535D-01
              MO Center=  5.5D-01, -8.8D-17,  4.5D-01, r^2= 4.6D+00
   Bfn.  Coefficient  Atom+Function         Bfn.  Coefficient  Atom+Function  
  ----- ------------  ---------------      ----- ------------  ---------------
    33      1.741291  2 H  s                 47     -1.741291  3 H  s          
    13     -0.639126  1 O  pz                11      0.514789  1 O  px         
    39     -0.163987  2 H  pz                51      0.160165  3 H  px         
    10     -0.157397  1 O  pz         
 
 Vector    8  Occ=0.000000D+00  E= 5.329631D-01
              MO Center=  5.6D-02,  7.1D-17,  4.5D-02, r^2= 2.3D+00
   Bfn.  Coefficient  Atom+Function         Bfn.  Coefficient  Atom+Function  
  ----- ------------  ---------------      ----- ------------  ---------------
    32      1.472667  2 H  s                 46     -1.472667  3 H  s          
    13     -0.878468  1 O  pz                11      0.707569  1 O  px         
    33     -0.659276  2 H  s                 47      0.659276  3 H  s          
    10     -0.201365  1 O  pz                 8      0.162191  1 O  px         
 
 Vector    9  Occ=0.000000D+00  E= 5.991471D-01
              MO Center=  4.3D-01,  5.7D-16,  3.5D-01, r^2= 2.1D+00
   Bfn.  Coefficient  Atom+Function         Bfn.  Coefficient  Atom+Function  
  ----- ------------  ---------------      ----- ------------  ---------------
    32      1.325236  2 H  s                 46      1.325236  3 H  s          
    33     -0.625468  2 H  s                 47     -0.625468  3 H  s          
     4     -0.459053  1 O  s                 11     -0.446746  1 O  px         
    13     -0.359836  1 O  pz                 2     -0.199521  1 O  s          
    53     -0.191574  3 H  pz                39      0.173851  2 H  pz         
 
 Vector   10  Occ=0.000000D+00  E= 6.702910D-01
              MO Center= -3.0D-01,  3.0D-16, -2.4D-01, r^2= 2.3D+00
   Bfn.  Coefficient  Atom+Function         Bfn.  Coefficient  Atom+Function  
  ----- ------------  ---------------      ----- ------------  ---------------
     4      4.409288  1 O  s                 32     -2.243130  2 H  s          
    46     -2.243130  3 H  s                 11      2.067656  1 O  px         
    13      1.665411  1 O  pz                39      1.097260  2 H  pz         
    51      1.060090  3 H  px                33     -0.428510  2 H  s          
    47     -0.428510  3 H  s                 53     -0.288707  3 H  pz         
 
 Vector   11  Occ=0.000000D+00  E= 7.866165D-01
              MO Center= -5.2D-02,  1.2D-14, -4.1D-02, r^2= 1.7D+00
   Bfn.  Coefficient  Atom+Function         Bfn.  Coefficient  Atom+Function  
  ----- ------------  ---------------      ----- ------------  ---------------
    12      1.123227  1 O  py                 9     -0.774395  1 O  py         
     6     -0.259436  1 O  py         
 
 Vector   12  Occ=0.000000D+00  E= 7.867862D-01
              MO Center=  1.7D-01, -1.3D-14,  1.4D-01, r^2= 2.0D+00
   Bfn.  Coefficient  Atom+Function         Bfn.  Coefficient  Atom+Function  
  ----- ------------  ---------------      ----- ------------  ---------------
    11      1.041433  1 O  px                32     -0.970624  2 H  s          
    46     -0.970624  3 H  s                 37     -0.850073  2 H  px         
    13      0.838831  1 O  pz                53     -0.842194  3 H  pz         
     4      0.791946  1 O  s                 33      0.224192  2 H  s          
    47      0.224192  3 H  s          
 
 Vector   13  Occ=0.000000D+00  E= 8.064403D-01
              MO Center= -7.3D-02,  4.8D-16, -5.9D-02, r^2= 3.0D+00
   Bfn.  Coefficient  Atom+Function         Bfn.  Coefficient  Atom+Function  
  ----- ------------  ---------------      ----- ------------  ---------------
    13      2.270938  1 O  pz                11     -1.829146  1 O  px         
    32     -1.586486  2 H  s                 46      1.586486  3 H  s          
    33     -1.434048  2 H  s                 47      1.434048  3 H  s          
    39      1.166704  2 H  pz                51     -1.144638  3 H  px         
    21      0.391532  1 O  d  0              23     -0.226051  1 O  d  2       
 
 Vector   14  Occ=0.000000D+00  E= 8.620282D-01
              MO Center=  3.7D-01,  1.1D-16,  3.0D-01, r^2= 1.7D+00
   Bfn.  Coefficient  Atom+Function         Bfn.  Coefficient  Atom+Function  
  ----- ------------  ---------------      ----- ------------  ---------------
    38      0.841232  2 H  py                52     -0.841232  3 H  py         
 
 Vector   15  Occ=0.000000D+00  E= 9.442218D-01
              MO Center=  1.7D-01,  2.2D-16,  1.3D-01, r^2= 2.0D+00
   Bfn.  Coefficient  Atom+Function         Bfn.  Coefficient  Atom+Function  
  ----- ------------  ---------------      ----- ------------  ---------------
    12      1.159641  1 O  py                38     -0.986322  2 H  py         
    52     -0.986322  3 H  py         
 

 center of mass
 --------------
 x =  -0.07932642 y =   0.00000000 z =  -0.06389413

 moments of inertia (a.u.)
 ------------------
           3.461623432766           0.000000000000           0.860216437436
           0.000000000000           6.548131835606           0.000000000000
           0.860216437436           0.000000000000           3.086508402840
 
  Mulliken analysis of the total density
  --------------------------------------

    Atom       Charge   Shell Charges
 -----------   ------   -------------------------------------------------------
    1 O    8     8.49   1.95  1.00  0.23  0.61  1.25  2.14  1.29  0.00  0.02  0.00
    2 H    1     0.76   0.25  0.38  0.04  0.02  0.06  0.01
    3 H    1     0.76   0.25  0.38  0.04  0.02  0.06  0.01
 
       Multipole analysis of the density wrt the origin
       ------------------------------------------------
 
     L   x y z        total         open         nuclear
     -   - - -        -----         ----         -------
     0   0 0 0     -0.000000      0.000000     10.000000
 
     1   1 0 0      0.635702      0.000000     -0.000000
     1   0 1 0     -0.000000      0.000000      0.000000
     1   0 0 1      0.512032      0.000000     -0.000000
 
     2   2 0 0     -3.938249      0.000000      2.919667
     2   1 1 0     -0.000000      0.000000      0.000000
     2   1 0 1     -0.645908      0.000000     -0.968619
     2   0 2 0     -5.451706      0.000000      0.000000
     2   0 1 1     -0.000000      0.000000      0.000000
     2   0 0 2     -3.656587      0.000000      3.342053
 
                   NWChem Extensible Many-Electron Theory Module
                   ---------------------------------------------
 
              ======================================================
                   This portion of the program was automatically
                  generated by a Tensor Contraction Engine (TCE).
                  The development of this portion of the program
                 and TCE was supported by US Department of Energy,
                Office of Science, Office of Basic Energy Science.
                      TCE is a product of Battelle and PNNL.
              Please cite: S.Hirata, J.Phys.Chem.A 107, 9887 (2003).
              ======================================================
 
                                        H2O
 
 
            General Information
            -------------------
      Number of processors :     1
         Wavefunction type : Restricted Hartree-Fock
          No. of electrons :    10
           Alpha electrons :     5
            Beta electrons :     5
           No. of orbitals :   116
            Alpha orbitals :    58
             Beta orbitals :    58
        Alpha frozen cores :     0
         Beta frozen cores :     0
     Alpha frozen virtuals :     0
      Beta frozen virtuals :     0
         Spin multiplicity : singlet 
    Number of AO functions :    58
       Number of AO shells :    22
        Use of symmetry is : off
      Symmetry adaption is : off
         Schwarz screening : 0.10D-09
 
          Correlation Information
          -----------------------
          Calculation type : Coupled-cluster singles & doubles                           
   Perturbative correction : none                                                        
            Max iterations :      300
        Residual threshold : 0.10D-06
     T(0) DIIS level shift : 0.00D+00
     L(0) DIIS level shift : 0.00D+00
     T(1) DIIS level shift : 0.00D+00
     L(1) DIIS level shift : 0.00D+00
     T(R) DIIS level shift : 0.00D+00
     T(I) DIIS level shift : 0.00D+00
   CC-T/L Amplitude update :  5-th order DIIS
                I/O scheme : Global Array Library
        L-threshold :  0.10D-06
        EOM-threshold :  0.10D-06
 no EOMCCSD initial starts read in
 TCE RESTART OPTIONS
 READ_INT:   F
 WRITE_INT:  F
 READ_TA:    F
 WRITE_TA:   F
 READ_XA:    F
 WRITE_XA:   F
 READ_IN3:   F
 WRITE_IN3:  F
 SLICE:      F
 D4D5:       F
 quantumc:   F
 qrotation:  F
 pwtce:      F
 qducc:      T
 nacto:                          0
 nrotv:                          0
 nrot:                           0
 
            Memory Information
            ------------------
          Available GA space size is    1610609372 doubles
          Available MA space size is    1610609756 doubles
 
 Maximum block size        32 doubles

 tile_dim =     27

 Block   Spin    Irrep     Size     Offset   Alpha
 -------------------------------------------------
   1    alpha     a      5 doubles       0       1
   2    beta      a      5 doubles       5       1
   3    alpha     a     26 doubles      10       3
   4    alpha     a     27 doubles      36       4
   5    beta      a     26 doubles      63       3
   6    beta      a     27 doubles      89       4

 Global array virtual files algorithm will be used

 Parallel file system coherency ......... OK
 
 Fock matrix recomputed
 1-e file size   =             3364
 1-e file name   = ./H2O.f1
 Cpu & wall time / sec            0.1            0.1
 4-electron integrals stored in orbital form
 
 v2    file size   =          3631290
 4-index algorithm nr.  13 is used
 imaxsize =       30
 imaxsize ichop =        0
 Cpu & wall time / sec            1.6            1.6
 T1-number-of-tasks                     2
 
 t1 file size   =              265
 t1 file name   = ./H2O.t1
 t1 file handle =       -998
 T2-number-of-boxes                     7
 
 t2 file size   =           122900
 t2 file name   = ./H2O.t2
 t2 file handle =       -996
CCSD iterations
 ---------------------------------------------------------
 Iter          Residuum       Correlation     Cpu    Wall 
 ---------------------------------------------------------
NEW TASK SCHEDULING
CCSD_T1_NTS --- OK
CCSD_T2_NTS --- OK
    1   0.1392995008283  -0.2764844924111     0.3     0.3
    2   0.0306888725423  -0.2774868882782     0.3     0.3
    3   0.0104493808659  -0.2812752411895     0.3     0.3
    4   0.0041520683267  -0.2817013488268     0.3     0.3
    5   0.0017290795399  -0.2819717421698     0.3     0.3
 MICROCYCLE DIIS UPDATE:                     5                     5
    6   0.0003459727192  -0.2820966552505     0.2     0.2
    7   0.0001363701997  -0.2821092015274     0.2     0.2
    8   0.0000524476661  -0.2821085629060     0.2     0.2
    9   0.0000290212450  -0.2821087649773     0.2     0.2
   10   0.0000142667136  -0.2821090428756     0.2     0.2
 MICROCYCLE DIIS UPDATE:                    10                     5
   11   0.0000029083507  -0.2821095329490     0.2     0.2
   12   0.0000013180466  -0.2821093431936     0.2     0.2
   13   0.0000006263024  -0.2821093677366     0.2     0.2
   14   0.0000003673572  -0.2821093570754     0.2     0.2
   15   0.0000001993657  -0.2821093560893     0.2     0.2
 MICROCYCLE DIIS UPDATE:                    15                     5
   16   0.0000000310017  -0.2821093517344     0.2     0.2
 -----------------------------------------------------------------
 Iterations converged
 CCSD correlation energy / hartree =        -0.282109351734367
 CCSD total energy / hartree       =       -76.337253002288634

 Singles contributions

 Doubles contributions
     7a   (alpha)     7a   (beta ) ---     3a   (alpha)     3a   (beta )       -0.0209983968
     8a   (alpha)     8a   (beta ) ---     3a   (alpha)     3a   (beta )       -0.0284004559
     8a   (alpha)     8a   (beta ) ---     4a   (alpha)     4a   (beta )       -0.0226763788
     9a   (alpha)     9a   (beta ) ---     3a   (alpha)     3a   (beta )       -0.0256321405
    10a   (alpha)    10a   (beta ) ---     4a   (alpha)     4a   (beta )       -0.0293287118
    10a   (alpha)    11a   (beta ) ---     4a   (alpha)     5a   (beta )        0.0258779487
    11a   (alpha)    10a   (beta ) ---     5a   (alpha)     4a   (beta )        0.0258779487
    11a   (alpha)    11a   (beta ) ---     5a   (alpha)     5a   (beta )       -0.0477789846
    11a   (alpha)    13a   (beta ) ---     5a   (alpha)     3a   (beta )       -0.0222508354
    13a   (alpha)    11a   (beta ) ---     3a   (alpha)     5a   (beta )       -0.0222508354
    13a   (alpha)    13a   (beta ) ---     3a   (alpha)     3a   (beta )       -0.0224556569
 Ground state specification:
 exp(T)|Ref>~(1+T)|Ref>
 ------- a(p)+/a(q) strings ----------

 singles norm

 doubles norm

 Reference string
   1.00000000000000      :(1a)+ (2a)+ (3a)+ (4a)+ (5a)+ (1b)+ (2b)+ (3b)+ (4b)+ 
 (5b)+ |0>

 Singles strings

 Doubles strings
 -------------------------------------
 enrep_tce =    9.02766638433283     
  EHF(total)         =       -76.05514365
  Shift (HFtot-HFA)  =         0.00000000
 ALL OCCUPIED ORBITALS ARE ACTIVE IN DUCC --> NO SHIFT
 Number of active orbitals                     8
 Number of active alpha electrons                     5
 Number of active beta electrons                     5
  nos                     10
  nvs                    106
 noas                      5
 nobs                      5
 nvas                     53
 nvbs                     53
 nactv                      3
 DUCC MODEL =                      6
 NONHF =  T
 F-T1 correlation    =   1.311460091916493E-007
 V-T1-T1 correlation =   3.488378651866771E-005
 V-T2 correlation    =  -0.282144366666820     
 Total correlation   =  -0.282109351734292     
 F-T1(Ext) correlation         =   9.750306290799965E-008
 V-T1(Ext)-T1(Ext) correlation =   3.152287043008595E-005
 V-T2(Ext) correlation         =  -0.273987101645086     
 Total Ext correlation         =  -0.273955481271593     
1-BODY TIME =  299.664 SECONDS.
  HHHH TIME =  302.058 SECONDS.
  PPPP TIME =    2.762 SECONDS.
  HHHP TIME =   23.152 SECONDS.
  PPPH TIME =    6.901 SECONDS.
  HPHP TIME =   19.872 SECONDS.
  HHPP TIME =   11.919 SECONDS.
 ONE-BODY UNITARY CHECK
 TWO-BODY UNITARY CHECK
                     1                     3                     2
                     3 -1.478761557649477E-012
                     1                     3                     3
                     2  2.472005239395614E-012
                     1                     4                     2
                     4 -1.250506642680449E-012
                     1                     4                     4
                     2  1.680884598176391E-012
                     1                     5                     2
                     5 -1.369869495615461E-012
                     1                     5                     5
                     2  1.111631620087650E-012
                     1                     6                     2
                     9 -2.138126481421310E-012
                     1                     6                     3
                     8  1.456210152461779E-012
                     1                     6                     4
                     9  1.002274652162072E-012
                     1                     6                     5
                    10 -1.526993809175536E-012
                     1                     6                     7
                     4  2.196517273622689E-012
                     1                     6                     8
                     3 -1.456210152461779E-012
                     1                     6                     9
                     1  1.005584504554236E-012
                     1                     6                     9
                     4 -1.002274652162072E-012
                     1                     6                    10
                     5  1.526993809175536E-012
                     1                     7                     2
                     7 -1.440970606725323E-012
                     1                     7                     5
                    10 -2.038796215186878E-012
                     1                     7                     7
                     2  1.707411989571028E-012
                     1                     7                     9
                     2 -1.137612573587354E-012
                     1                     7                    10
                     5  2.621482891873583E-012
                     1                     8                     2
                     8 -2.887447225763395E-012
                     1                     8                     3
                     7 -1.241291791576060E-012
                     1                     8                     4
                     8  1.160349594186982E-012
                     1                     8                     7
                     3  1.408827915438948E-012
                     1                     8                     8
                     2  3.713163457264024E-012
                     1                     8                     8
                     4 -1.503156106530401E-012
                     1                     8                     9
                     3 -1.209813065700116E-012
                     1                     9                     2
                     9 -2.693080133897574E-012
                     1                     9                     3
                     8  2.304523759322219E-012
                     1                     9                     4
                     9  2.153867362242323E-012
                     1                     9                     7
                     2 -1.619477121850288E-012
                     1                     9                     7
                     4  1.442575225940601E-012
                     1                     9                     8
                     3 -2.436056564802946E-012
                     1                     9                     9
                     2  2.371667098821639E-012
                     1                     9                     9
                     4 -1.758631434922719E-012
                     1                    10                     2
                    10 -2.232840648486167E-012
                     1                    10                     5
                     7 -1.730119519871565E-012
                     1                    10                    10
                     2  2.841818794174777E-012
                     2                     2                     2
                     4 -1.003607317093336E-011
                     2                     2                     4
                     2  1.003607447353768E-011
                     2                     3                     1
                     3  1.478761557649477E-012
                     2                     3                     3
                     4 -3.075618535894331E-011
                     2                     3                     4
                     3  2.679687591614077E-011
                     2                     4                     1
                     4  1.250506642680449E-012
                     2                     4                     2
                     2  1.003607317093336E-011
                     2                     4                     3
                     3 -3.667778272704910E-012
                     2                     4                     4
                     2  1.423083872964526E-012
                     2                     4                     4
                     4 -2.870349719951923E-012
                     2                     5                     1
                     5  1.369869495615461E-012
                     2                     5                     4
                     5  2.823668902862675E-011
                     2                     5                     5
                     2  1.702282759197260E-011
                     2                     5                     5
                     4 -3.534507408975429E-011
                     2                     6                     2
                     7 -1.082812658981247E-012
                     2                     6                     4
                     9 -1.487397011112890E-012
                     2                     6                     5
                    10 -2.467200055367158E-012
                     2                     6                    10
                     5  1.884513378680452E-012
                     2                     7                     1
                     7  1.440970606725323E-012
                     2                     7                     2
                     6  1.082812658981247E-012
                     2                     7                     2
                     9 -7.938422488806829E-012
                     2                     7                     3
                     8 -1.944991390168127E-011
                     2                     7                     4
                     7  2.854163606846871E-011
                     2                     7                     4
                     9 -1.283380346439600E-011
                     2                     7                     5
                    10 -3.958509908752461E-011
                     2                     7                     6
                     2 -1.707377295101509E-012
                     2                     7                     6
                     4  1.619507479511118E-012
                     2                     7                     7
                     4 -2.097643239662439E-012
                     2                     7                     8
                     3  1.944991390168127E-011
                     2                     7                     9
                     2 -1.850557033999944E-011
                     2                     7                     9
                     4  1.283378958660819E-011
                     2                     7                    10
                     5  3.958509908752461E-011
                     2                     8                     1
                     8  2.887447225763395E-012
                     2                     8                     3
                     7 -1.645228397961773E-011
                     2                     8                     3
                     9  2.510770931440920E-011
                     2                     8                     4
                     8  5.142497191967799E-011
                     2                     8                     6
                     3 -1.408841793226756E-012
                     2                     8                     8
                     2  1.572553198769810E-011
                     2                     8                     8
                     4 -5.586376153332573E-011
                     2                     8                     9
                     3 -2.462822827620226E-011
                     2                     9                     1
                     6  2.138126481421310E-012
                     2                     9                     1
                     9  2.693080133897574E-012
                     2                     9                     2
                     7  7.938422488806829E-012
                     2                     9                     3
                     8  3.613908824973144E-011
                     2                     9                     4
                     7 -9.132250511356688E-012
                     2                     9                     4
                     9  7.762923637244512E-011
                     2                     9                     5
                    10  2.032413820574064E-011
                     2                     9                     6
                     1 -2.196531151410497E-012
                     2                     9                     6
                     4 -1.442554409258889E-012
                     2                     9                     7
                     2  2.097644974385915E-012
                     2                     9                     8
                     3 -3.980686093252306E-011
                     2                     9                     9
                     2  1.055522336201875E-011
                     2                     9                     9
                     4 -8.049948208022073E-011
                     2                     9                    10
                     5 -2.087167244591015E-011
                     2                    10                     1
                    10  2.232840648486167E-012
                     2                    10                     4
                    10  3.692589983783634E-011
                     2                    10                     5
                     6 -1.145916694866855E-012
                     2                    10                     5
                     7 -3.225247846572188E-011
                     2                    10                     5
                     9  1.678572905672304E-011
                     2                    10                     9
                     5 -8.689517855264839E-012
                     2                    10                    10
                     2  4.927525054654325E-011
                     2                    10                    10
                     4 -5.213054987684984E-011
                     3                     1                     3
                     2 -1.703810703634900E-012
                     3                     1                     3
                     4  1.410305899840480E-012
                     3                     2                     1
                     3 -2.472005239395614E-012
                     3                     2                     3
                     1  1.703810703634900E-012
                     3                     2                     3
                     4  2.183111330600340E-012
                     3                     2                     4
                     3  1.776190739627426E-012
                     3                     3                     2
                     4  3.667778272704910E-012
                     3                     3                     4
                     2 -3.667779120293722E-012
                     3                     4                     2
                     3  3.075618535894331E-011
                     3                     4                     3
                     1 -1.410305899840480E-012
                     3                     4                     3
                     2 -2.183111330600340E-012
                     3                     4                     4
                     3  1.980582364780048E-011
                     3                     5                     5
                     3  5.238887101910450E-011
                     3                     6                     3
                     7 -1.148056476274473E-012
                     3                     6                     3
                     9  1.395407227267054E-012
                     3                     6                     9
                     3 -1.052599847561897E-012
                     3                     7                     1
                     8  1.241291791576060E-012
                     3                     7                     2
                     8  1.645228397961773E-011
                     3                     7                     3
                     6  1.148056476274473E-012
                     3                     7                     4
                     8 -2.794122572202795E-012
                     3                     7                     6
                     3 -3.713170396157928E-012
                     3                     7                     7
                     3 -1.572553198769810E-011
                     3                     7                     8
                     4  2.314643268719330E-012
                     3                     7                     9
                     3  4.570366654577107E-012
                     3                     8                     1
                     6 -1.456210152461779E-012
                     3                     8                     1
                     9 -2.304523759322219E-012
                     3                     8                     2
                     7  1.944991390168127E-011
                     3                     8                     2
                     9 -3.613908824973144E-011
                     3                     8                     4
                     6 -1.701765030975855E-012
                     3                     8                     4
                     7 -1.617254073715824E-011
                     3                     8                     4
                     9  1.434942442646303E-012
                     3                     8                     5
                    10 -2.431756185306000E-011
                     3                     8                     6
                     1  1.456272602506914E-012
                     3                     8                     6
                     4  2.436052227994256E-012
                     3                     8                     7
                     2 -1.944991390168127E-011
                     3                     8                     7
                     4  3.980682970750049E-011
                     3                     8                     9
                     1  1.570236995984686E-012
                     3                     8                     9
                     2  1.250479927938919E-011
                     3                     8                     9
                     4 -1.434810603662129E-012
                     3                     8                    10
                     5  2.431755491416610E-011
                     3                     9                     2
                     8 -2.510770931440920E-011
                     3                     9                     3
                     6 -1.395407227267054E-012
                     3                     9                     4
                     8  3.719920205202953E-012
                     3                     9                     6
                     3  1.503145698189545E-012
                     3                     9                     7
                     3  5.586377888056049E-011
                     3                     9                     8
                     2 -2.314646738166282E-012
                     3                     9                     9
                     3  1.608613242609636E-011
                     3                    10                     5
                     8 -2.309352362117600E-011
                     3                    10                    10
                     3  7.548184299821514E-011
                     4                     2                     1
                     4 -1.680884598176391E-012
                     4                     2                     2
                     2 -1.003607447353768E-011
                     4                     2                     2
                     4 -1.423083872964526E-012
                     4                     2                     3
                     3  3.667779120293722E-012
                     4                     2                     4
                     4  2.870375191238499E-012
                     4                     3                     2
                     3 -2.679687591614077E-011
                     4                     3                     3
                     2 -1.776190739627426E-012
                     4                     3                     3
                     4 -1.980582364780048E-011
                     4                     4                     2
                     4  2.870349719951923E-012
                     4                     4                     4
                     2 -2.870375191238499E-012
                     4                     5                     2
                     5 -2.823668902862675E-011
                     4                     5                     5
                     2 -1.137181928484443E-011
                     4                     5                     5
                     4  3.774913714948980E-011
                     4                     6                     3
                     8  1.701765030975855E-012
                     4                     6                     6
                     1 -1.005556748978620E-012
                     4                     6                     8
                     3 -1.570232225495127E-012
                     4                     6                     9
                     4 -1.029830734577963E-012
                     4                     6                    10
                     5 -1.041174091387376E-012
                     4                     7                     2
                     7 -2.854163606846871E-011
                     4                     7                     2
                     9  9.132250511356688E-012
                     4                     7                     3
                     8  1.617254073715824E-011
                     4                     7                     4
                     9 -5.264746971711531E-012
                     4                     7                     5
                    10  2.745297045247952E-012
                     4                     7                     6
                     2  1.137594358990857E-012
                     4                     7                     6
                     4 -2.371687915503351E-012
                     4                     7                     7
                     2  1.850557207472292E-011
                     4                     7                     7
                     4 -1.055533438432121E-011
                     4                     7                     8
                     3 -1.250476805436662E-011
                     4                     7                     9
                     4  8.134853901609063E-012
                     4                     7                    10
                     5 -2.197762805078440E-012
                     4                     8                     1
                     8 -1.160349594186982E-012
                     4                     8                     2
                     8 -5.142497191967799E-011
                     4                     8                     3
                     7  2.794122572202795E-012
                     4                     8                     3
                     9 -3.719920205202953E-012
                     4                     8                     6
                     3  1.209816101466199E-012
                     4                     8                     7
                     3  2.462823694981964E-011
                     4                     8                     8
                     1  1.052611123264491E-012
                     4                     8                     8
                     2 -4.570410022664007E-012
                     4                     8                     8
                     4 -1.608613242609636E-011
                     4                     9                     1
                     6 -1.002274652162072E-012
                     4                     9                     1
                     9 -2.153867362242323E-012
                     4                     9                     2
                     6  1.487397011112890E-012
                     4                     9                     2
                     7  1.283380346439600E-011
                     4                     9                     2
                     9 -7.762923637244512E-011
                     4                     9                     3
                     8 -1.434942442646303E-012
                     4                     9                     4
                     7  5.264746971711531E-012
                     4                     9                     5
                    10 -3.389316605151294E-011
                     4                     9                     6
                     1  1.002274652162072E-012
                     4                     9                     6
                     4  1.758624496028816E-012
                     4                     9                     7
                     2 -1.283383121997161E-011
                     4                     9                     7
                     4  8.049927391340361E-011
                     4                     9                     8
                     3  1.434900809282880E-012
                     4                     9                     9
                     1  1.029889715176147E-012
                     4                     9                     9
                     2 -8.135034312850564E-012
                     4                     9                    10
                     5  3.389320074598245E-011
                     4                    10                     2
                    10 -3.692589983783634E-011
                     4                    10                     5
                     7  3.946239168772792E-012
                     4                    10                     5
                     9 -1.570430591124605E-011
                     4                    10                     7
                     5  8.689500508030079E-012
                     4                    10                    10
                     2 -1.531836463231073E-011
                     4                    10                    10
                     4  5.345290876590525E-011
                     5                     2                     1
                     5 -1.111631620087650E-012
                     5                     2                     2
                     5 -1.702282759197260E-011
                     5                     2                     4
                     5  1.137181928484443E-011
                     5                     2                     5
                     4 -4.263405600779535E-012
                     5                     3                     3
                     5 -5.238887101910450E-011
                     5                     4                     2
                     5  3.534507408975429E-011
                     5                     4                     4
                     5 -3.774913714948980E-011
                     5                     4                     5
                     2  4.263405600779535E-012
                     5                     6                     2
                    10  1.145916694866855E-012
                     5                     6                     5
                     9 -1.050831296978139E-012
                     5                     7                     1
                    10  1.730119519871565E-012
                     5                     7                     2
                    10  3.225247846572188E-011
                     5                     7                     4
                    10 -3.946239168772792E-012
                     5                     7                     6
                     5 -2.841813590004350E-012
                     5                     7                     7
                     5 -4.927525054654325E-011
                     5                     7                     9
                     5  1.531830912115950E-011
                     5                     7                    10
                     4 -4.149975502132364E-012
                     5                     8                     3
                    10  2.309352362117600E-011
                     5                     8                     8
                     5 -7.548184299821514E-011
                     5                     9                     2
                    10 -1.678572905672304E-011
                     5                     9                     4
                    10  1.570430591124605E-011
                     5                     9                     5
                     6  1.050831296978139E-012
                     5                     9                     7
                     5  5.213059151021326E-011
                     5                     9                     9
                     5 -5.345290876590525E-011
                     5                     9                    10
                     2  4.149982441026268E-012
                     5                    10                     1
                     6  1.526993809175536E-012
                     5                    10                     1
                     7  2.038796215186878E-012
                     5                    10                     2
                     6  2.467200055367158E-012
                     5                    10                     2
                     7  3.958509908752461E-011
                     5                    10                     2
                     9 -2.032413820574064E-011
                     5                    10                     3
                     8  2.431756185306000E-011
                     5                    10                     4
                     7 -2.745297045247952E-012
                     5                    10                     4
                     9  3.389316605151294E-011
                     5                    10                     6
                     1 -1.526993809175536E-012
                     5                    10                     6
                     2 -2.621475952979679E-012
                     5                    10                     7
                     1 -1.884520317574356E-012
                     5                    10                     7
                     2 -3.958509908752461E-011
                     5                    10                     7
                     4  2.087180775434128E-011
                     5                    10                     8
                     3 -2.431757573084781E-011
                     5                    10                     9
                     1  1.041198377516039E-012
                     5                    10                     9
                     2  2.197627496647314E-012
                     5                    10                     9
                     4 -3.389324931823978E-011
                     6                     1                     2
                     9  2.196531151410497E-012
                     6                     1                     3
                     8 -1.456272602506914E-012
                     6                     1                     4
                     6  1.005556748978620E-012
                     6                     1                     4
                     9 -1.002274652162072E-012
                     6                     1                     5
                    10  1.526993809175536E-012
                     6                     1                     7
                     4 -2.138109134186550E-012
                     6                     1                     8
                     3  1.456272602506914E-012
                     6                     1                     9
                     4  1.002274652162072E-012
                     6                     1                    10
                     5 -1.526993809175536E-012
                     6                     2                     2
                     7  1.707377295101509E-012
                     6                     2                     4
                     7 -1.137594358990857E-012
                     6                     2                     5
                    10  2.621475952979679E-012
                     6                     2                     7
                     2 -1.440932442808851E-012
                     6                     2                    10
                     5 -2.038789276292974E-012
                     6                     3                     2
                     8  1.408841793226756E-012
                     6                     3                     3
                     7  3.713170396157928E-012
                     6                     3                     3
                     9 -1.503145698189545E-012
                     6                     3                     4
                     8 -1.209816101466199E-012
                     6                     3                     7
                     3 -2.887453297295561E-012
                     6                     3                     8
                     2 -1.241309138810820E-012
                     6                     3                     9
                     3  1.160340053207864E-012
                     6                     4                     2
                     7 -1.619507479511118E-012
                     6                     4                     2
                     9  1.442554409258889E-012
                     6                     4                     3
                     8 -2.436052227994256E-012
                     6                     4                     4
                     7  2.371687915503351E-012
                     6                     4                     4
                     9 -1.758624496028816E-012
                     6                     4                     7
                     4 -2.693104420026238E-012
                     6                     4                     8
                     3  2.304519422513529E-012
                     6                     4                     9
                     4  2.153865627518847E-012
                     6                     5                     5
                     7  2.841813590004350E-012
                     6                     5                     7
                     5 -2.232835444315739E-012
                     6                     5                    10
                     2 -1.730126458765469E-012
                     6                     8                     7
                     8 -1.478761557649477E-012
                     6                     8                     8
                     7  2.472008708842566E-012
                     6                     9                     7
                     9 -1.250506642680449E-012
                     6                     9                     9
                     7  1.680884598176391E-012
                     6                    10                     7
                    10 -1.369869495615461E-012
                     6                    10                    10
                     7  1.111631620087650E-012
                     7                     1                     5
                    10  1.884520317574356E-012
                     7                     1                     7
                     2 -1.082847353450767E-012
                     7                     1                     9
                     4 -1.487449052817169E-012
                     7                     1                    10
                     5 -2.467206994261062E-012
                     7                     2                     1
                     7 -1.707411989571028E-012
                     7                     2                     1
                     9  1.619477121850288E-012
                     7                     2                     2
                     9 -2.097644974385915E-012
                     7                     2                     3
                     8  1.944991390168127E-011
                     7                     2                     4
                     7 -1.850557207472292E-011
                     7                     2                     4
                     9  1.283383121997161E-011
                     7                     2                     5
                    10  3.958509908752461E-011
                     7                     2                     6
                     2  1.440932442808851E-012
                     7                     2                     7
                     1  1.082847353450767E-012
                     7                     2                     7
                     4 -7.938420754083353E-012
                     7                     2                     8
                     3 -1.944991390168127E-011
                     7                     2                     9
                     2  2.854163780319219E-011
                     7                     2                     9
                     4 -1.283380346439600E-011
                     7                     2                    10
                     5 -3.958509908752461E-011
                     7                     3                     1
                     8 -1.408827915438948E-012
                     7                     3                     3
                     7  1.572553198769810E-011
                     7                     3                     3
                     9 -5.586377888056049E-011
                     7                     3                     4
                     8 -2.462823694981964E-011
                     7                     3                     6
                     3  2.887453297295561E-012
                     7                     3                     8
                     2 -1.645233949076896E-011
                     7                     3                     8
                     4  2.510771625330310E-011
                     7                     3                     9
                     3  5.142503263499965E-011
                     7                     4                     1
                     6 -2.196517273622689E-012
                     7                     4                     1
                     9 -1.442575225940601E-012
                     7                     4                     2
                     7  2.097643239662439E-012
                     7                     4                     3
                     8 -3.980682970750049E-011
                     7                     4                     4
                     7  1.055533438432121E-011
                     7                     4                     4
                     9 -8.049927391340361E-011
                     7                     4                     5
                    10 -2.087180775434128E-011
                     7                     4                     6
                     1  2.138109134186550E-012
                     7                     4                     6
                     4  2.693104420026238E-012
                     7                     4                     7
                     2  7.938420754083353E-012
                     7                     4                     8
                     3  3.613905702470888E-011
                     7                     4                     9
                     2 -9.132763989505577E-012
                     7                     4                     9
                     4  7.762920861686951E-011
                     7                     4                    10
                     5  2.032427351417176E-011
                     7                     5                     4
                    10 -8.689500508030079E-012
                     7                     5                     5
                     7  4.927525054654325E-011
                     7                     5                     5
                     9 -5.213059151021326E-011
                     7                     5                     6
                     5  2.232835444315739E-012
                     7                     5                     9
                     5  3.692594841009367E-011
                     7                     5                    10
                     1 -1.145923633760759E-012
                     7                     5                    10
                     2 -3.225253397687311E-011
                     7                     5                    10
                     4  1.678571864838219E-011
                     7                     7                     7
                     9 -1.003607561715955E-011
                     7                     7                     9
                     7  1.003606908979131E-011
                     7                     8                     6
                     8  1.478761557649477E-012
                     7                     8                     8
                     9 -3.075618579262418E-011
                     7                     8                     9
                     8  2.679687851822599E-011
                     7                     9                     6
                     9  1.250506642680449E-012
                     7                     9                     7
                     7  1.003607561715955E-011
                     7                     9                     8
                     8 -3.667780051438944E-012
                     7                     9                     9
                     7  1.423083872964526E-012
                     7                     9                     9
                     9 -2.870366396426958E-012
                     7                    10                     6
                    10  1.369869495615461E-012
                     7                    10                     9
                    10  2.823668122237111E-011
                     7                    10                    10
                     7  1.702282759197260E-011
                     7                    10                    10
                     9 -3.534506107932822E-011
                     8                     1                     4
                     8 -1.052611123264491E-012
                     8                     1                     8
                     2 -1.148049537380569E-012
                     8                     1                     8
                     4  1.395417635607910E-012
                     8                     2                     1
                     8 -3.713163457264024E-012
                     8                     2                     2
                     8 -1.572553198769810E-011
                     8                     2                     3
                     9  2.314646738166282E-012
                     8                     2                     4
                     8  4.570410022664007E-012
                     8                     2                     6
                     3  1.241309138810820E-012
                     8                     2                     7
                     3  1.645233949076896E-011
                     8                     2                     8
                     1  1.148049537380569E-012
                     8                     2                     9
                     3 -2.794131245820175E-012
                     8                     3                     1
                     6  1.456210152461779E-012
                     8                     3                     1
                     9  2.436056564802946E-012
                     8                     3                     2
                     7 -1.944991390168127E-011
                     8                     3                     2
                     9  3.980686093252306E-011
                     8                     3                     4
                     6  1.570232225495127E-012
                     8                     3                     4
                     7  1.250476805436662E-011
                     8                     3                     4
                     9 -1.434900809282880E-012
                     8                     3                     5
                    10  2.431757573084781E-011
                     8                     3                     6
                     1 -1.456272602506914E-012
                     8                     3                     6
                     4 -2.304519422513529E-012
                     8                     3                     7
                     2  1.944991390168127E-011
                     8                     3                     7
                     4 -3.613905702470888E-011
                     8                     3                     9
                     1 -1.701769801465414E-012
                     8                     3                     9
                     2 -1.617257543162776E-011
                     8                     3                     9
                     4  1.434748153616994E-012
                     8                     3                    10
                     5 -2.431756185306000E-011
                     8                     4                     1
                     8  1.503156106530401E-012
                     8                     4                     2
                     8  5.586376153332573E-011
                     8                     4                     3
                     7 -2.314643268719330E-012
                     8                     4                     4
                     8  1.608613242609636E-011
                     8                     4                     7
                     3 -2.510771625330310E-011
                     8                     4                     8
                     1 -1.395417635607910E-012
                     8                     4                     9
                     3  3.719843877370010E-012
                     8                     5                     5
                     8  7.548184299821514E-011
                     8                     5                    10
                     3 -2.309349586560039E-011
                     8                     6                     8
                     7 -1.703807234187948E-012
                     8                     6                     8
                     9  1.410305899840480E-012
                     8                     7                     6
                     8 -2.472008708842566E-012
                     8                     7                     8
                     6  1.703807234187948E-012
                     8                     7                     8
                     9  2.183107427472519E-012
                     8                     7                     9
                     8  1.776189004903950E-012
                     8                     8                     7
                     9  3.667780051438944E-012
                     8                     8                     9
                     7 -3.667777951353100E-012
                     8                     9                     7
                     8  3.075618579262418E-011
                     8                     9                     8
                     6 -1.410305899840480E-012
                     8                     9                     8
                     7 -2.183107427472519E-012
                     8                     9                     9
                     8  1.980582364780048E-011
                     8                    10                    10
                     8  5.238887101910450E-011
                     9                     1                     1
                     6 -1.005584504554236E-012
                     9                     1                     3
                     8 -1.570236995984686E-012
                     9                     1                     4
                     9 -1.029889715176147E-012
                     9                     1                     5
                    10 -1.041198377516039E-012
                     9                     1                     8
                     3  1.701769801465414E-012
                     9                     2                     1
                     7  1.137612573587354E-012
                     9                     2                     1
                     9 -2.371667098821639E-012
                     9                     2                     2
                     7  1.850557033999944E-011
                     9                     2                     2
                     9 -1.055522336201875E-011
                     9                     2                     3
                     8 -1.250479927938919E-011
                     9                     2                     4
                     9  8.135034312850564E-012
                     9                     2                     5
                    10 -2.197627496647314E-012
                     9                     2                     7
                     2 -2.854163780319219E-011
                     9                     2                     7
                     4  9.132763989505577E-012
                     9                     2                     8
                     3  1.617257543162776E-011
                     9                     2                     9
                     4 -5.264857994013994E-012
                     9                     2                    10
                     5  2.745161736816826E-012
                     9                     3                     1
                     8  1.209813065700116E-012
                     9                     3                     2
                     8  2.462822827620226E-011
                     9                     3                     3
                     6  1.052599847561897E-012
                     9                     3                     3
                     7 -4.570366654577107E-012
                     9                     3                     3
                     9 -1.608613242609636E-011
                     9                     3                     6
                     3 -1.160340053207864E-012
                     9                     3                     7
                     3 -5.142503263499965E-011
                     9                     3                     8
                     2  2.794131245820175E-012
                     9                     3                     8
                     4 -3.719843877370010E-012
                     9                     4                     1
                     6  1.002274652162072E-012
                     9                     4                     1
                     9  1.758631434922719E-012
                     9                     4                     2
                     7 -1.283378958660819E-011
                     9                     4                     2
                     9  8.049948208022073E-011
                     9                     4                     3
                     8  1.434810603662129E-012
                     9                     4                     4
                     6  1.029830734577963E-012
                     9                     4                     4
                     7 -8.134853901609063E-012
                     9                     4                     5
                    10  3.389324931823978E-011
                     9                     4                     6
                     1 -1.002274652162072E-012
                     9                     4                     6
                     4 -2.153865627518847E-012
                     9                     4                     7
                     1  1.487449052817169E-012
                     9                     4                     7
                     2  1.283380346439600E-011
                     9                     4                     7
                     4 -7.762920861686951E-011
[...]
    6    6    8    3        0.0141374827
    6    6    8    7        0.0260948866
    6    6    8    8        0.2856816526
    6    7    8    1        0.0013662147
    6    7    8    2       -0.0063773872
    6    7    8    4        0.0253681377
    6    7    8    6        0.0001241802
    6    8    8    1        0.0003144430
    6    8    8    2       -0.0114280105
    6    8    8    4        0.0053549993
    6    8    8    6        0.0174076359
    7    1    1    3       -0.0104269378
    7    1    1    7        0.0044904946
    7    1    1    8        0.0037866770
    7    2    1    1       -0.0000000002
    7    2    1    3       -0.0082799866
    7    2    1    7        0.0036910327
    7    2    1    8        0.0030971157
    7    3    1    1       -0.1658010005
    7    3    1    2        0.0005964825
    7    3    1    4        0.0003038145
    7    3    1    6        0.0005033285
    7    4    1    1        0.0000000001
    7    4    1    3       -0.0029205727
    7    4    1    7        0.0014309993
    7    4    1    8        0.0014393032
    7    6    1    3       -0.0038851332
    7    6    1    7        0.0016999737
    7    6    1    8        0.0013662147
    7    7    1    1        0.3360439006
    7    7    1    2       -0.0014304737
    7    7    1    4       -0.0014199368
    7    7    1    6       -0.0001253280
    7    8    1    1        0.1106023426
    7    8    1    2       -0.0014668871
    7    8    1    4        0.0002008750
    7    8    1    6       -0.0004763044
    7    1    2    3       -0.0111152686
    7    1    2    7        0.0036910327
    7    1    2    8        0.0026310785
    7    2    2    2       -0.0000000001
    7    2    2    3       -0.0325782976
    7    2    2    7        0.0127155901
    7    2    2    8        0.0099539237
    7    3    2    1        0.0014641157
    7    3    2    2       -0.0949875141
    7    3    2    4       -0.0143177325
    7    3    2    6       -0.0204793451
    7    4    2    3       -0.0155997066
    7    4    2    7        0.0025106957
    7    4    2    8        0.0024683199
    7    6    2    3       -0.0412957400
    7    6    2    7       -0.0007315349
    7    6    2    8       -0.0063773872
    7    7    2    1       -0.0014304737
    7    7    2    2        0.2997004211
    7    7    2    4       -0.0101613458
    7    7    2    6        0.0078311925
    7    8    2    1       -0.0014382009
    7    8    2    2        0.0751775435
    7    8    2    4        0.0005430407
    7    8    2    6        0.0066818362
    7    1    3    1       -0.0095085815
    7    1    3    2       -0.0108863739
    7    1    3    4       -0.0017022302
    7    1    3    6       -0.0017870031
    7    2    3    1       -0.0081958311
    7    2    3    2       -0.0329503667
    7    2    3    4       -0.0057174642
    7    2    3    6       -0.0076995644
    7    3    3    3       -0.0836504406
    7    3    3    7        0.0314599641
    7    3    3    8        0.0248261918
    7    4    3    1       -0.0030442473
    7    4    3    2       -0.0166644989
    7    4    3    4       -0.0059424757
    7    4    3    6        0.0058829801
    7    5    3    5       -0.0088983208
    7    6    3    1       -0.0038657041
    7    6    3    2       -0.0413533202
    7    6    3    4        0.0139684459
    7    6    3    6        0.0178471081
    7    7    3    3        0.3032217445
    7    7    3    7       -0.0061149868
    7    7    3    8        0.0091003026
    7    8    3    3        0.0742136130
    7    8    3    7       -0.0106592901
    7    8    3    8        0.0043485415
    7    1    4    3       -0.0017488033
    7    1    4    7        0.0014309993
    7    1    4    8        0.0030467451
    7    2    4    3       -0.0055783289
    7    2    4    7        0.0025106957
    7    2    4    8        0.0079816776
    7    3    4    1        0.0003177444
    7    3    4    2       -0.0153078416
    7    3    4    4       -0.0843867713
    7    3    4    6        0.0140523727
    7    4    4    3       -0.0068304192
    7    4    4    7        0.0084892001
    7    4    4    8        0.0149830043
    7    6    4    3        0.0137787167
    7    6    4    7        0.0124755016
    7    6    4    8        0.0253681377
    7    7    4    1       -0.0014199368
    7    7    4    2       -0.0101613458
    7    7    4    4        0.2850281912
    7    7    4    6        0.0038286067
    7    8    4    1        0.0000925176
    7    8    4    2        0.0002032922
    7    8    4    4        0.0722723171
    7    8    4    6       -0.0002221323
    7    2    5    5       -0.0000000001
    7    3    5    5       -0.0896567364
    7    5    5    3       -0.0091686244
    7    5    5    7        0.0044902658
    7    5    5    8        0.0038619123
    7    7    5    5        0.2864719069
    7    8    5    5        0.0672552639
    7    1    6    3       -0.0021500877
    7    1    6    7        0.0016999737
    7    1    6    8        0.0004450258
    7    2    6    3       -0.0110024135
    7    2    6    7       -0.0007315349
    7    2    6    8       -0.0011821078
    7    3    6    1        0.0000689607
    7    3    6    2       -0.0233228601
    7    3    6    4        0.0143099748
    7    3    6    6       -0.0078904560
    7    4    6    3        0.0065812778
    7    4    6    7        0.0124755016
    7    4    6    8        0.0024107846
    7    6    6    3        0.0182558626
    7    6    6    7        0.0649696628
    7    6    6    8        0.0001241802
    7    7    6    1       -0.0001253280
    7    7    6    2        0.0078311925
    7    7    6    4        0.0038286067
    7    7    6    6        0.2552254218
    7    7    6    7       -0.0000000001
    7    8    6    1       -0.0004621793
    7    8    6    2        0.0065838439
    7    8    6    4        0.0004718583
    7    8    6    6        0.0260948866
    7    1    7    1        0.0047776240
    7    1    7    2        0.0040612602
    7    1    7    4        0.0015241280
    7    1    7    6        0.0016919120
    7    2    7    1        0.0040612602
    7    2    7    2        0.0153341590
    7    2    7    4        0.0029374230
    7    2    7    6       -0.0008644686
    7    3    7    3        0.0338222890
    7    3    7    7       -0.0061149868
    7    3    7    8       -0.0104747489
    7    4    7    1        0.0015241280
    7    4    7    2        0.0029374230
    7    4    7    4        0.0102544598
    7    4    7    6        0.0125415443
    7    5    7    5        0.0062188615
    7    6    7    1        0.0016919120
    7    6    7    2       -0.0008644686
    7    6    7    4        0.0125415443
    7    6    7    6        0.0649702012
    7    6    7    7       -0.0000000001
    7    7    7    3       -0.0061149868
    7    7    7    6       -0.0000000001
    7    7    7    7        0.2603385725
    7    7    7    8        0.0209658449
    7    8    7    3       -0.0104747489
    7    8    7    7        0.0209658449
    7    8    7    8        0.0200659106
    7    1    8    1        0.0039983618
    7    1    8    2        0.0029255333
    7    1    8    4        0.0031686967
    7    1    8    6        0.0004268601
    7    2    8    1        0.0033781074
    7    2    8    2        0.0114971412
    7    2    8    4        0.0083690842
    7    2    8    6       -0.0011236585
    7    3    8    3        0.0253374909
    7    3    8    7       -0.0106592901
    7    3    8    8       -0.0231865363
    7    4    8    1        0.0014910476
    7    4    8    2        0.0031757004
    7    4    8    4        0.0154982961
    7    4    8    6        0.0020109783
    7    5    8    5        0.0045443997
    7    6    8    1        0.0013603622
    7    6    8    2       -0.0065014087
    7    6    8    4        0.0257347133
    7    6    8    6        0.0001332777
    7    7    8    3        0.0091003026
    7    7    8    7        0.0209658449
    7    7    8    8        0.2686004199
    7    8    8    3        0.0055319390
    7    8    8    7        0.0201208870
    7    8    8    8        0.0472261382
    8    1    1    3       -0.0090258474
    8    1    1    7        0.0037866770
    8    1    1    8        0.0032421290
    8    2    1    3       -0.0060642183
    8    2    1    7        0.0026310785
    8    2    1    8        0.0023652018
    8    3    1    1       -0.1022926116
    8    3    1    2        0.0013702631
    8    3    1    4       -0.0038641250
    8    3    1    6        0.0016851576
    8    4    1    3       -0.0063118169
    8    4    1    7        0.0030467451
    8    4    1    8        0.0027833179
    8    6    1    3       -0.0010614763
    8    6    1    7        0.0004450258
    8    6    1    8        0.0003144430
    8    7    1    1        0.1106023426
    8    7    1    2       -0.0014382009
    8    7    1    4        0.0000925176
    8    7    1    6       -0.0004621793
    8    8    1    1        0.4593732369
    8    8    1    2       -0.0012446355
    8    8    1    4       -0.0002871023
    8    8    1    6       -0.0002869237
    8    1    2    3       -0.0092997621
    8    1    2    7        0.0030971157
    8    1    2    8        0.0023652018
    8    2    2    3       -0.0064631932
    8    2    2    7        0.0099539237
    8    2    2    8        0.0241421550
    8    3    2    1        0.0021876630
    8    3    2    2       -0.0232940581
    8    3    2    4       -0.0493308395
    8    3    2    6       -0.0089483032
    8    4    2    3       -0.0535182056
    8    4    2    7        0.0079816776
    8    4    2    8       -0.0032100581
    8    6    2    3       -0.0073321222
    8    6    2    7       -0.0011821078
    8    6    2    8       -0.0114280105
    8    7    2    1       -0.0014668871
    8    7    2    2        0.0751775435
    8    7    2    4        0.0002032922
    8    7    2    6        0.0065838439
    8    8    2    1       -0.0012446355
    8    8    2    2        0.4296714688
    8    8    2    4       -0.0101763848
    8    8    2    6        0.0138499038
    8    1    3    1       -0.0080249842
    8    1    3    2       -0.0090068275
    8    1    3    4       -0.0020148698
    8    1    3    6       -0.0013522850
    8    2    3    1       -0.0057126106
    8    2    3    2       -0.0055648502
    8    2    3    4       -0.0246350838
    8    2    3    6       -0.0067051101
    8    3    3    3       -0.0111505145
    8    3    3    7        0.0248261918
    8    3    3    8        0.0556420396
    8    4    3    1       -0.0068334608
    8    4    3    2       -0.0567713683
    8    4    3    4        0.0028897255
    8    4    3    6        0.0110518124
    8    5    3    5       -0.0092648959
    8    6    3    1       -0.0009430477
    8    6    3    2       -0.0069272778
    8    6    3    4        0.0111092447
    8    6    3    6        0.0009891946
    8    7    3    3        0.0742136130
    8    7    3    7       -0.0104747489
    8    7    3    8        0.0055319390
    8    8    3    3        0.4341111244
    8    8    3    7       -0.0231865363
    8    8    3    8        0.0196443897
    8    1    4    3       -0.0020589735
    8    1    4    7        0.0014393032
    8    1    4    8        0.0027833179
    8    2    4    3       -0.0242594573
    8    2    4    7        0.0024683199
    8    2    4    8       -0.0032100581
    8    3    4    1       -0.0043603524
    8    3    4    2       -0.0523003843
    8    3    4    4       -0.0393940820
    8    3    4    6        0.0150017047
    8    4    4    3        0.0013708358
    8    4    4    7        0.0149830043
    8    4    4    8        0.0422905022
    8    6    4    3        0.0110624448
    8    6    4    7        0.0024107846
    8    6    4    8        0.0053549993
    8    7    4    1        0.0002008750
    8    7    4    2        0.0005430407
    8    7    4    4        0.0722723171
    8    7    4    6        0.0004718583
    8    8    4    1       -0.0002871023
    8    8    4    2       -0.0101763848
    8    8    4    4        0.4175681574
    8    8    4    6       -0.0052291979
    8    3    5    5       -0.0424900292
    8    5    5    3       -0.0092673175
    8    5    5    7        0.0038619123
    8    5    5    8        0.0075161393
    8    7    5    5        0.0672552639
    8    8    5    5        0.4006783903
    8    1    6    3       -0.0017406877
    8    1    6    7        0.0013662147
    8    1    6    8        0.0003144430
    8    2    6    3       -0.0098487732
    8    2    6    7       -0.0063773872
    8    2    6    8       -0.0114280105
    8    3    6    1        0.0014020048
    8    3    6    2       -0.0109964035
    8    3    6    4        0.0152823464
    8    3    6    6        0.0141374827
    8    4    6    3        0.0121361218
    8    4    6    7        0.0253681377
    8    4    6    8        0.0053549993
    8    6    6    3        0.0005221314
    8    6    6    7        0.0001241802
    8    6    6    8        0.0174076359
    8    7    6    1       -0.0004763044
    8    7    6    2        0.0066818362
    8    7    6    4       -0.0002221323
    8    7    6    6        0.0260948866
    8    8    6    1       -0.0002869237
    8    8    6    2        0.0138499038
    8    8    6    4       -0.0052291979
    8    8    6    6        0.2856816526
    8    1    7    1        0.0039983618
    8    1    7    2        0.0033781074
    8    1    7    4        0.0014910476
    8    1    7    6        0.0013603622
    8    2    7    1        0.0029255333
    8    2    7    2        0.0114971412
    8    2    7    4        0.0031757004
    8    2    7    6       -0.0065014087
    8    3    7    3        0.0253374909
    8    3    7    7        0.0091003026
    8    3    7    8        0.0055319390
    8    4    7    1        0.0031686967
    8    4    7    2        0.0083690842
    8    4    7    4        0.0154982961
    8    4    7    6        0.0257347133
    8    5    7    5        0.0045443997
    8    6    7    1        0.0004268601
    8    6    7    2       -0.0011236585
    8    6    7    4        0.0020109783
    8    6    7    6        0.0001332777
    8    7    7    3       -0.0106592901
    8    7    7    7        0.0209658449
    8    7    7    8        0.0201208870
    8    8    7    3       -0.0231865363
    8    8    7    7        0.2686004199
    8    8    7    8        0.0472261382
    8    1    8    1        0.0033189298
    8    1    8    2        0.0026569158
    8    1    8    4        0.0027442269
    8    1    8    6        0.0003179848
    8    2    8    1        0.0026569158
    8    2    8    2        0.0263869700
    8    2    8    4       -0.0039835286
    8    2    8    6       -0.0105435589
    8    3    8    3        0.0564427886
    8    3    8    7        0.0043485415
    8    3    8    8        0.0196443897
    8    4    8    1        0.0027442269
    8    4    8    2       -0.0039835286
    8    4    8    4        0.0417454797
    8    4    8    6        0.0045645558
    8    5    8    5        0.0070364856
    8    6    8    1        0.0003179848
    8    6    8    2       -0.0105435589
    8    6    8    4        0.0045645558
    8    6    8    6        0.0173895295
    8    7    8    3        0.0043485415
    8    7    8    7        0.0200659106
    8    7    8    8        0.0472261382
    8    8    8    3        0.0196443897
    8    8    8    7        0.0472261382
    8    8    8    8        0.3734911534
 end_two_electron_integrals

 Task  times  cpu:      703.2s     wall:      703.2s
 
 
                                NWChem Input Module
                                -------------------
 
 
 Summary of allocated global arrays
-----------------------------------
  No active global arrays


MA_summarize_allocated_blocks: starting scan ...
MA_summarize_allocated_blocks: scan completed: 0 heap blocks, 0 stack blocks
MA usage statistics:

	allocation statistics:
					      heap	     stack
					      ----	     -----
	current number of blocks	         0	         0
	maximum number of blocks	        16	        42
	current total bytes		         0	         0
	maximum total bytes		     80104	4725685704
	maximum total K-bytes		        81	   4725686
	maximum total M-bytes		         1	      4726
 
 
                                     CITATION
                                     --------
                Please cite the following reference when publishing
                           results obtained with NWChem:
 
          E. Apra, E. J. Bylaska, W. A. de Jong, N. Govind, K. Kowalski,
       T. P. Straatsma, M. Valiev, H. J. J. van Dam, Y. Alexeev, J. Anchell,
       V. Anisimov, F. W. Aquino, R. Atta-Fynn, J. Autschbach, N. P. Bauman,
     J. C. Becca, D. E. Bernholdt, K. Bhaskaran-Nair, S. Bogatko, P. Borowski,
         J. Boschen, J. Brabec, A. Bruner, E. Cauet, Y. Chen, G. N. Chuev,
      C. J. Cramer, J. Daily, M. J. O. Deegan, T. H. Dunning Jr., M. Dupuis,
   K. G. Dyall, G. I. Fann, S. A. Fischer, A. Fonari, H. Fruchtl, L. Gagliardi,
      J. Garza, N. Gawande, S. Ghosh, K. Glaesemann, A. W. Gotz, J. Hammond,
       V. Helms, E. D. Hermes, K. Hirao, S. Hirata, M. Jacquelin, L. Jensen,
   B. G. Johnson, H. Jonsson, R. A. Kendall, M. Klemm, R. Kobayashi, V. Konkov,
      S. Krishnamoorthy, M. Krishnan, Z. Lin, R. D. Lins, R. J. Littlefield,
      A. J. Logsdail, K. Lopata, W. Ma, A. V. Marenich, J. Martin del Campo,
   D. Mejia-Rodriguez, J. E. Moore, J. M. Mullin, T. Nakajima, D. R. Nascimento,
    J. A. Nichols, P. J. Nichols, J. Nieplocha, A. Otero-de-la-Roza, B. Palmer,
    A. Panyala, T. Pirojsirikul, B. Peng, R. Peverati, J. Pittner, L. Pollack,
   R. M. Richard, P. Sadayappan, G. C. Schatz, W. A. Shelton, D. W. Silverstein,
   D. M. A. Smith, T. A. Soares, D. Song, M. Swart, H. L. Taylor, G. S. Thomas,
            V. Tipparaju, D. G. Truhlar, K. Tsemekhman, T. Van Voorhis,
      A. Vazquez-Mayagoitia, P. Verma, O. Villa, A. Vishnu, K. D. Vogiatzis,
        D. Wang, J. H. Weare, M. J. Williamson, T. L. Windus, K. Wolinski,
        A. T. Wong, Q. Wu, C. Yang, Q. Yu, M. Zacharias, Z. Zhang, Y. Zhao,
                                and R. J. Harrison
                        "NWChem: Past, present, and future
                         J. Chem. Phys. 152, 184102 (2020)
                               doi:10.1063/5.0004997
 
                                      AUTHORS
                                      -------
  E. Apra, E. J. Bylaska, N. Govind, K. Kowalski, M. Valiev, D. Mejia-Rodriguez,
       A. Kunitsa, N. P. Bauman, A. Panyala, W. A. de Jong, T. P. Straatsma,
   H. J. J. van Dam, D. Wang, T. L. Windus, J. Hammond, J. Autschbach, A. Woods,
    K. Bhaskaran-Nair, J. Brabec, K. Lopata, S. A. Fischer, S. Krishnamoorthy,
     M. Jacquelin, W. Ma, M. Klemm, O. Villa, Y. Chen, V. Anisimov, F. Aquino,
     S. Hirata, M. T. Hackler, E. Hermes, L. Jensen, J. E. Moore, J. C. Becca,
      V. Konjkov, T. Risthaus, M. Malagoli, A. Marenich, A. Otero-de-la-Roza,
        J. Mullin, P. Nichols, R. Peverati, J. Pittner, Y. Zhao, P.-D. Fan,
        A. Fonari, M. J. Williamson, R. J. Harrison, J. R. Rehr, M. Dupuis,
     D. Silverstein, D. M. A. Smith, J. Nieplocha, V. Tipparaju, M. Krishnan,
     B. E. Van Kuiken, A. Vazquez-Mayagoitia, M. Swart, Q. Wu, T. Van Voorhis,
     A. A. Auer, M. Nooijen, L. D. Crosby, E. Brown, G. Cisneros, G. I. Fann,
   H. Fruchtl, J. Garza, K. Hirao, R. A. Kendall, J. A. Nichols, K. Tsemekhman,
    K. Wolinski, J. Anchell, D. E. Bernholdt, P. Borowski, T. Clark, D. Clerc,
   H. Dachsel, M. J. O. Deegan, K. Dyall, D. Elwood, E. Glendening, M. Gutowski,
   A. C. Hess, J. Jaffe, B. G. Johnson, J. Ju, R. Kobayashi, R. Kutteh, Z. Lin,
   R. Littlefield, X. Long, B. Meng, T. Nakajima, S. Niu, L. Pollack, M. Rosing,
   K. Glaesemann, G. Sandrone, M. Stave, H. Taylor, G. Thomas, J. H. van Lenthe,
                               A. T. Wong, Z. Zhang.

 Total times  cpu:      703.6s     wall:      703.6s
