 argument  1 = input.nw
  NWChem w/ OpenMP: maximum threads =    1
 


============================== echo of input deck ==============================
 echo
 start H2O
 title "H2O"

 memory total 24 gb

 geometry units angstrom
 symmetry c1
   zmatrix
     O
     H1 O 0.97551
     H2 O 0.97551 H1 103.10
   end
 end

 basis spherical
   * library cc-pVTZ
 end

 tce
   2eorb
   2emet 13
   ccsd
   maxiter 300
 end

# set tce:print_integrals T
# set tce:qorb 8
# set tce:qela 5
# set tce:qelb 5

 set tce:qducc T
 set tce:nactv 3
 set tce:nonhf T
 set tce:ducc_model 6

 set tce:printtol 0.02

 task tce
================================================================================


                                         
                                         
 
 
             Northwest Computational Chemistry Package (NWChem) 7.2.3
             --------------------------------------------------------
 
 
                    Environmental Molecular Sciences Laboratory
                       Pacific Northwest National Laboratory
                                Richland, WA 99352
 
                              Copyright (c) 1994-2022
                       Pacific Northwest National Laboratory
                            Battelle Memorial Institute
 
             NWChem is an open-source computational chemistry package
                        distributed under the terms of the
                      Educational Community License (ECL) 2.0
             A copy of the license is included with this distribution
                              in the LICENSE.TXT file
 
                                  ACKNOWLEDGMENT
                                  --------------

            This software and its documentation were developed at the
            EMSL at Pacific Northwest National Laboratory, a multiprogram
            national laboratory, operated for the U.S. Department of Energy
            by Battelle under Contract Number DE-AC05-76RL01830. Support
            for this work was provided by the Department of Energy Office
            of Biological and Environmental Research, Office of Basic
            Energy Sciences, and the Office of Advanced Scientific Computing.


           Job information
           ---------------

    hostname        = koothan
    program         = /hpc/home/baum612/code/nwchem/bin/LINUX64/nwchem
    date            = Thu Nov 21 21:59:31 2024

    compiled        = Thu_Nov_21_17:16:59_2024
    source          = /hpc/home/baum612/code/nwchem
    nwchem branch   = 7.2.3
    nwchem revision = v7.2.0-beta1-1291-g6d839a76f0
    ga revision     = 5.8.0
    use scalapack   = T
    input           = input.nw
    prefix          = H2O.
    data base       = ./H2O.db
    status          = startup
    nproc           =        1
    time left       =     -1s



           Memory information
           ------------------

    heap     =    805306368 doubles =     6144.0 Mbytes
    stack    =    805306365 doubles =     6144.0 Mbytes
    global   =   1610612736 doubles =    12288.0 Mbytes (distinct from heap & stack)
    total    =   3221225469 doubles =    24576.0 Mbytes
    verify   = yes
    hardfail = no 


           Directory information
           ---------------------
 
  0 permanent = .
  0 scratch   = .
 
 
 
 
                                NWChem Input Module
                                -------------------
 
 
                                        H2O
                                        ---

 Scaling coordinates for geometry "geometry" by  1.889725989
 (inverse scale =  0.529177249)

 Turning off AUTOSYM since
 SYMMETRY directive was detected!
 
 
 
                             Geometry "geometry" -> ""
                             -------------------------
 
 Output coordinates in angstroms (scale by  1.889725989 to convert to a.u.)
 
  No.       Tag          Charge          X              Y              Z
 ---- ---------------- ---------- -------------- -------------- --------------
    1 O                    8.0000    -0.09501233     0.00000000    -0.07544094
    2 H1                   1.0000    -0.09501233     0.00000000     0.90006906
    3 H2                   1.0000     0.85511097     0.00000000    -0.29654156
 
      Atomic Mass 
      ----------- 
 
      O                 15.994910
      H1                 1.007825
      H2                 1.007825
 

 Effective nuclear repulsion energy (a.u.)       9.0257273539

            Nuclear Dipole moment (a.u.) 
            ----------------------------
        X                 Y               Z
 ---------------- ---------------- ----------------
     0.0000000000     0.0000000000     0.0000000000
 


                                Z-matrix (user)
                                -------- 

 Units are Angstrom for bonds and degrees for angles
 
      Type          Name      I     J     K     L     M      Value
      ----------- --------  ----- ----- ----- ----- ----- ----------
    1 Stretch                  2     1                       0.97551
    2 Stretch                  3     1                       0.97551
    3 Bend                     3     1     2               103.10000
 
 
            XYZ format geometry
            -------------------
     3
 geometry
 O                    -0.09501233     0.00000000    -0.07544094
 H1                   -0.09501233     0.00000000     0.90006906
 H2                    0.85511097     0.00000000    -0.29654156
 
 ==============================================================================
                                internuclear distances
 ------------------------------------------------------------------------------
       center one      |      center two      | atomic units |  angstroms
 ------------------------------------------------------------------------------
    2 H1               |   1 O                |     1.84345  |     0.97551
    3 H2               |   1 O                |     1.84345  |     0.97551
 ------------------------------------------------------------------------------
                         number of included internuclear distances:          2
 ==============================================================================



 ==============================================================================
                                 internuclear angles
 ------------------------------------------------------------------------------
        center 1       |       center 2       |       center 3       |  degrees
 ------------------------------------------------------------------------------
    2 H1               |   1 O                |   3 H2               |   103.10
 ------------------------------------------------------------------------------
                            number of included internuclear angles:          1
 ==============================================================================





 Summary of "ao basis" -> "" (spherical)
 ------------------------------------------------------------------------------
       Tag                 Description            Shells   Functions and Types
 ---------------- ------------------------------  ------  ---------------------
 *                          cc-pVTZ                   on all atoms 


                      Basis "ao basis" -> "ao basis" (spherical)
                      -----
  O (Oxygen)
  ----------
            Exponent  Coefficients 
       -------------- ---------------------------------------------------------
  1 S  1.53300000E+04  0.000508
  1 S  2.29900000E+03  0.003929
  1 S  5.22400000E+02  0.020243
  1 S  1.47300000E+02  0.079181
  1 S  4.75500000E+01  0.230687
  1 S  1.67600000E+01  0.433118
  1 S  6.20700000E+00  0.350260
  1 S  6.88200000E-01 -0.008154
 
  2 S  1.53300000E+04 -0.000115
  2 S  2.29900000E+03 -0.000895
  2 S  5.22400000E+02 -0.004636
  2 S  1.47300000E+02 -0.018724
  2 S  4.75500000E+01 -0.058463
  2 S  1.67600000E+01 -0.136463
  2 S  6.20700000E+00 -0.175740
  2 S  6.88200000E-01  0.603418
 
  3 S  1.75200000E+00  1.000000
 
  4 S  2.38400000E-01  1.000000
 
  5 P  3.44600000E+01  0.015928
  5 P  7.74900000E+00  0.099740
  5 P  2.28000000E+00  0.310492
 
  6 P  7.15600000E-01  1.000000
 
  7 P  2.14000000E-01  1.000000
 
  8 D  2.31400000E+00  1.000000
 
  9 D  6.45000000E-01  1.000000
 
 10 F  1.42800000E+00  1.000000
 
  H1 (Hydrogen)
  -------------
            Exponent  Coefficients 
       -------------- ---------------------------------------------------------
  1 S  3.38700000E+01  0.006068
  1 S  5.09500000E+00  0.045308
  1 S  1.15900000E+00  0.202822
 
  2 S  3.25800000E-01  1.000000
 
  3 S  1.02700000E-01  1.000000
 
  4 P  1.40700000E+00  1.000000
 
  5 P  3.88000000E-01  1.000000
 
  6 D  1.05700000E+00  1.000000
 
  H2 (Hydrogen)
  -------------
            Exponent  Coefficients 
       -------------- ---------------------------------------------------------
  1 S  3.38700000E+01  0.006068
  1 S  5.09500000E+00  0.045308
  1 S  1.15900000E+00  0.202822
 
  2 S  3.25800000E-01  1.000000
 
  3 S  1.02700000E-01  1.000000
 
  4 P  1.40700000E+00  1.000000
 
  5 P  3.88000000E-01  1.000000
 
  6 D  1.05700000E+00  1.000000
 


 Summary of "ao basis" -> "ao basis" (spherical)
 ------------------------------------------------------------------------------
       Tag                 Description            Shells   Functions and Types
 ---------------- ------------------------------  ------  ---------------------
 O                          cc-pVTZ                 10       30   4s3p2d1f
 H1                         cc-pVTZ                  6       14   3s2p1d
 H2                         cc-pVTZ                  6       14   3s2p1d


                                 NWChem SCF Module
                                 -----------------
 
 
                                        H2O
 
 

  ao basis        = "ao basis"
  functions       =    58
  atoms           =     3
  closed shells   =     5
  open shells     =     0
  charge          =   0.00
  wavefunction    = RHF 
  input vectors   = atomic
  output vectors  = ./H2O.movecs
  use symmetry    = F
  symmetry adapt  = F


 Summary of "ao basis" -> "ao basis" (spherical)
 ------------------------------------------------------------------------------
       Tag                 Description            Shells   Functions and Types
 ---------------- ------------------------------  ------  ---------------------
 O                          cc-pVTZ                 10       30   4s3p2d1f
 H1                         cc-pVTZ                  6       14   3s2p1d
 H2                         cc-pVTZ                  6       14   3s2p1d



 Forming initial guess at       0.4s

 
      Superposition of Atomic Density Guess
      -------------------------------------
 
 Sum of atomic energies:         -75.78028790
 
      Non-variational initial energy
      ------------------------------

 Total energy =     -75.911232
 1-e energy   =    -121.488625
 2-e energy   =      36.551666
 HOMO         =      -0.472254
 LUMO         =       0.062262
 

 Starting SCF solution at       0.5s



 ----------------------------------------------
         Quadratically convergent ROHF

 Convergence threshold     :          1.000E-04
 Maximum no. of iterations :           30
 Final Fock-matrix accuracy:          1.000E-07
 ----------------------------------------------


              iter       energy          gnorm     gmax       time
             ----- ------------------- --------- --------- --------
                 1      -76.0199547498  8.47D-01  2.94D-01      0.7
                 2      -76.0529668281  1.97D-01  6.23D-02      1.0
                 3      -76.0552063343  1.65D-02  6.57D-03      1.4
                 4      -76.0552312809  7.11D-05  2.93D-05      2.1


       Final RHF  results 
       ------------------ 

         Total SCF energy =    -76.055231280919
      One-electron energy =   -122.813965366358
      Two-electron energy =     37.733006731549
 Nuclear repulsion energy =      9.025727353890

        Time for solution =      1.5s


             Final eigenvalues
             -----------------

              1      
    1  -20.5587
    2   -1.3375
    3   -0.6973
    4   -0.5770
    5   -0.5035
    6    0.1401
    7    0.2026
    8    0.5343
    9    0.5964
   10    0.6708
   11    0.7868
   12    0.7906
   13    0.8060
   14    0.8603
   15    0.9475
 
                       ROHF Final Molecular Orbital Analysis
                       -------------------------------------
 
 Vector    2  Occ=2.000000D+00  E=-1.337463D+00
              MO Center=  3.6D-02,  4.6D-17,  2.9D-02, r^2= 5.0D-01
   Bfn.  Coefficient  Atom+Function         Bfn.  Coefficient  Atom+Function  
  ----- ------------  ---------------      ----- ------------  ---------------
     2      0.506257  1 O  s                  4      0.287987  1 O  s          
 
 Vector    3  Occ=2.000000D+00  E=-6.972782D-01
              MO Center=  7.7D-02,  2.1D-16,  6.1D-02, r^2= 7.8D-01
   Bfn.  Coefficient  Atom+Function         Bfn.  Coefficient  Atom+Function  
  ----- ------------  ---------------      ----- ------------  ---------------
    10      0.267906  1 O  pz                 7      0.220267  1 O  pz         
    32      0.217642  2 H  s                 46     -0.217642  3 H  s          
     8     -0.212720  1 O  px                 5     -0.174895  1 O  px         
 
 Vector    4  Occ=2.000000D+00  E=-5.770419D-01
              MO Center= -1.2D-01,  2.1D-16, -9.4D-02, r^2= 7.1D-01
   Bfn.  Coefficient  Atom+Function         Bfn.  Coefficient  Atom+Function  
  ----- ------------  ---------------      ----- ------------  ---------------
     8     -0.298188  1 O  px                 4      0.276075  1 O  s          
     5     -0.243466  1 O  px                10     -0.236765  1 O  pz         
    11     -0.215858  1 O  px                 7     -0.193315  1 O  pz         
     2      0.178589  1 O  s                 13     -0.171394  1 O  pz         
 
 Vector    5  Occ=2.000000D+00  E=-5.035197D-01
              MO Center= -6.8D-02, -6.8D-16, -5.4D-02, r^2= 6.3D-01
   Bfn.  Coefficient  Atom+Function         Bfn.  Coefficient  Atom+Function  
  ----- ------------  ---------------      ----- ------------  ---------------
     9      0.444812  1 O  py                12      0.376336  1 O  py         
     6      0.357555  1 O  py         
 
 Vector    6  Occ=0.000000D+00  E= 1.400624D-01
              MO Center=  5.0D-01,  8.0D-17,  4.0D-01, r^2= 3.7D+00
   Bfn.  Coefficient  Atom+Function         Bfn.  Coefficient  Atom+Function  
  ----- ------------  ---------------      ----- ------------  ---------------
     4      1.476948  1 O  s                 33     -0.909794  2 H  s          
    47     -0.909794  3 H  s                 11      0.356739  1 O  px         
    13      0.283255  1 O  pz                32     -0.254446  2 H  s          
    46     -0.254446  3 H  s                 39      0.168788  2 H  pz         
    51      0.164477  3 H  px                 8      0.151611  1 O  px         
 
 Vector    7  Occ=0.000000D+00  E= 2.026014D-01
              MO Center=  5.5D-01, -3.5D-16,  4.4D-01, r^2= 4.6D+00
   Bfn.  Coefficient  Atom+Function         Bfn.  Coefficient  Atom+Function  
  ----- ------------  ---------------      ----- ------------  ---------------
    33      1.735925  2 H  s                 47     -1.735925  3 H  s          
    13     -0.645491  1 O  pz                11      0.512528  1 O  px         
    39     -0.164176  2 H  pz                51      0.160123  3 H  px         
    10     -0.158397  1 O  pz         
 
 Vector    8  Occ=0.000000D+00  E= 5.342682D-01
              MO Center=  5.4D-02, -6.4D-18,  4.3D-02, r^2= 2.3D+00
   Bfn.  Coefficient  Atom+Function         Bfn.  Coefficient  Atom+Function  
  ----- ------------  ---------------      ----- ------------  ---------------
    32      1.477142  2 H  s                 46     -1.477142  3 H  s          
    13     -0.890328  1 O  pz                11      0.706932  1 O  px         
    33     -0.653393  2 H  s                 47      0.653393  3 H  s          
    10     -0.203583  1 O  pz                 8      0.161648  1 O  px         
 
 Vector    9  Occ=0.000000D+00  E= 5.963788D-01
              MO Center=  4.3D-01,  1.1D-16,  3.4D-01, r^2= 2.1D+00
   Bfn.  Coefficient  Atom+Function         Bfn.  Coefficient  Atom+Function  
  ----- ------------  ---------------      ----- ------------  ---------------
    32      1.316543  2 H  s                 46      1.316543  3 H  s          
    33     -0.621835  2 H  s                 47     -0.621835  3 H  s          
     4     -0.460319  1 O  s                 11     -0.439103  1 O  px         
    13     -0.348653  1 O  pz                 2     -0.198164  1 O  s          
    53     -0.198773  3 H  pz                39      0.170967  2 H  pz         
 
 Vector   10  Occ=0.000000D+00  E= 6.708112D-01
              MO Center= -3.0D-01, -5.6D-16, -2.4D-01, r^2= 2.3D+00
   Bfn.  Coefficient  Atom+Function         Bfn.  Coefficient  Atom+Function  
  ----- ------------  ---------------      ----- ------------  ---------------
     4      4.417626  1 O  s                 32     -2.240558  2 H  s          
    46     -2.240558  3 H  s                 11      2.070442  1 O  px         
    13      1.643956  1 O  pz                39      1.102189  2 H  pz         
    51      1.059620  3 H  px                33     -0.431499  2 H  s          
    47     -0.431499  3 H  s                 53     -0.309483  3 H  pz         
 
 Vector   11  Occ=0.000000D+00  E= 7.867933D-01
              MO Center= -5.3D-02,  1.7D-14, -4.2D-02, r^2= 1.7D+00
   Bfn.  Coefficient  Atom+Function         Bfn.  Coefficient  Atom+Function  
  ----- ------------  ---------------      ----- ------------  ---------------
    12      1.125562  1 O  py                 9     -0.774519  1 O  py         
     6     -0.259412  1 O  py         
 
 Vector   12  Occ=0.000000D+00  E= 7.905649D-01
              MO Center=  1.6D-01, -1.7D-14,  1.3D-01, r^2= 2.0D+00
   Bfn.  Coefficient  Atom+Function         Bfn.  Coefficient  Atom+Function  
  ----- ------------  ---------------      ----- ------------  ---------------
    11      1.057545  1 O  px                32     -0.984682  2 H  s          
    46     -0.984682  3 H  s                 37     -0.856009  2 H  px         
    53     -0.845974  3 H  pz                13      0.839703  1 O  pz         
     4      0.790739  1 O  s                 33      0.230708  2 H  s          
    47      0.230708  3 H  s          
 
 Vector   13  Occ=0.000000D+00  E= 8.059538D-01
              MO Center= -7.3D-02,  9.8D-16, -5.8D-02, r^2= 3.0D+00
   Bfn.  Coefficient  Atom+Function         Bfn.  Coefficient  Atom+Function  
  ----- ------------  ---------------      ----- ------------  ---------------
    13      2.290989  1 O  pz                11     -1.819073  1 O  px         
    32     -1.585155  2 H  s                 46      1.585155  3 H  s          
    33     -1.431565  2 H  s                 47      1.431565  3 H  s          
    39      1.163980  2 H  pz                51     -1.138797  3 H  px         
    21      0.388086  1 O  d  0              53      0.241866  3 H  pz         
 
 Vector   14  Occ=0.000000D+00  E= 8.602984D-01
              MO Center=  3.7D-01, -1.4D-15,  2.9D-01, r^2= 1.7D+00
   Bfn.  Coefficient  Atom+Function         Bfn.  Coefficient  Atom+Function  
  ----- ------------  ---------------      ----- ------------  ---------------
    38      0.839833  2 H  py                52     -0.839833  3 H  py         
 
 Vector   15  Occ=0.000000D+00  E= 9.475160D-01
              MO Center=  1.7D-01,  5.5D-16,  1.3D-01, r^2= 2.0D+00
   Bfn.  Coefficient  Atom+Function         Bfn.  Coefficient  Atom+Function  
  ----- ------------  ---------------      ----- ------------  ---------------
    12      1.159611  1 O  py                38     -0.988840  2 H  py         
    52     -0.988840  3 H  py         
 

 center of mass
 --------------
 x =  -0.07907720 y =   0.00000000 z =  -0.06278825

 moments of inertia (a.u.)
 ------------------
           3.486207723326           0.000000000000           0.900407479326
           0.000000000000           6.553352678635           0.000000000000
           0.900407479326           0.000000000000           3.067144955309
 
  Mulliken analysis of the total density
  --------------------------------------

    Atom       Charge   Shell Charges
 -----------   ------   -------------------------------------------------------
    1 O    8     8.49   1.95  1.00  0.23  0.61  1.25  2.14  1.29  0.00  0.02  0.00
    2 H    1     0.76   0.25  0.38  0.04  0.02  0.06  0.01
    3 H    1     0.76   0.25  0.38  0.04  0.02  0.06  0.01
 
       Multipole analysis of the density wrt the origin
       ------------------------------------------------
 
     L   x y z        total         open         nuclear
     -   - - -        -----         ----         -------
     0   0 0 0     -0.000000      0.000000     10.000000
 
     1   1 0 0      0.635367      0.000000      0.000000
     1   0 1 0      0.000000      0.000000      0.000000
     1   0 0 1      0.504489      0.000000      0.000000
 
     2   2 0 0     -3.947475      0.000000      2.901350
     2   1 1 0      0.000000      0.000000      0.000000
     2   1 0 1     -0.665798      0.000000     -1.006151
     2   0 2 0     -5.452340      0.000000      0.000000
     2   0 1 1     -0.000000      0.000000      0.000000
     2   0 0 2     -3.637603      0.000000      3.369627
 
                   NWChem Extensible Many-Electron Theory Module
                   ---------------------------------------------
 
              ======================================================
                   This portion of the program was automatically
                  generated by a Tensor Contraction Engine (TCE).
                  The development of this portion of the program
                 and TCE was supported by US Department of Energy,
                Office of Science, Office of Basic Energy Science.
                      TCE is a product of Battelle and PNNL.
              Please cite: S.Hirata, J.Phys.Chem.A 107, 9887 (2003).
              ======================================================
 
                                        H2O
 
 
            General Information
            -------------------
      Number of processors :     1
         Wavefunction type : Restricted Hartree-Fock
          No. of electrons :    10
           Alpha electrons :     5
            Beta electrons :     5
           No. of orbitals :   116
            Alpha orbitals :    58
             Beta orbitals :    58
        Alpha frozen cores :     0
         Beta frozen cores :     0
     Alpha frozen virtuals :     0
      Beta frozen virtuals :     0
         Spin multiplicity : singlet 
    Number of AO functions :    58
       Number of AO shells :    22
        Use of symmetry is : off
      Symmetry adaption is : off
         Schwarz screening : 0.10D-09
 
          Correlation Information
          -----------------------
          Calculation type : Coupled-cluster singles & doubles                           
   Perturbative correction : none                                                        
            Max iterations :      300
        Residual threshold : 0.10D-06
     T(0) DIIS level shift : 0.00D+00
     L(0) DIIS level shift : 0.00D+00
     T(1) DIIS level shift : 0.00D+00
     L(1) DIIS level shift : 0.00D+00
     T(R) DIIS level shift : 0.00D+00
     T(I) DIIS level shift : 0.00D+00
   CC-T/L Amplitude update :  5-th order DIIS
                I/O scheme : Global Array Library
        L-threshold :  0.10D-06
        EOM-threshold :  0.10D-06
 no EOMCCSD initial starts read in
 TCE RESTART OPTIONS
 READ_INT:   F
 WRITE_INT:  F
 READ_TA:    F
 WRITE_TA:   F
 READ_XA:    F
 WRITE_XA:   F
 READ_IN3:   F
 WRITE_IN3:  F
 SLICE:      F
 D4D5:       F
 quantumc:   F
 qrotation:  F
 pwtce:      F
 qducc:      T
 nacto:                          0
 nrotv:                          0
 nrot:                           0
 
            Memory Information
            ------------------
          Available GA space size is    1610609372 doubles
          Available MA space size is    1610609756 doubles
 
 Maximum block size        32 doubles

 tile_dim =     27

 Block   Spin    Irrep     Size     Offset   Alpha
 -------------------------------------------------
   1    alpha     a      5 doubles       0       1
   2    beta      a      5 doubles       5       1
   3    alpha     a     26 doubles      10       3
   4    alpha     a     27 doubles      36       4
   5    beta      a     26 doubles      63       3
   6    beta      a     27 doubles      89       4

 Global array virtual files algorithm will be used

 Parallel file system coherency ......... OK
 
 Fock matrix recomputed
 1-e file size   =             3364
 1-e file name   = ./H2O.f1
 Cpu & wall time / sec            0.1            0.1
 4-electron integrals stored in orbital form
 
 v2    file size   =          3631290
 4-index algorithm nr.  13 is used
 imaxsize =       30
 imaxsize ichop =        0
 Cpu & wall time / sec            1.5            1.5
 T1-number-of-tasks                     2
 
 t1 file size   =              265
 t1 file name   = ./H2O.t1
 t1 file handle =       -998
 T2-number-of-boxes                     7
 
 t2 file size   =           122900
 t2 file name   = ./H2O.t2
 t2 file handle =       -996
CCSD iterations
 ---------------------------------------------------------
 Iter          Residuum       Correlation     Cpu    Wall 
 ---------------------------------------------------------
NEW TASK SCHEDULING
CCSD_T1_NTS --- OK
CCSD_T2_NTS --- OK
    1   0.1392408522108  -0.2764031663423     0.2     0.2
    2   0.0306753360160  -0.2774246352329     0.2     0.2
    3   0.0104433896266  -0.2812076057224     0.2     0.2
    4   0.0041487648763  -0.2816344892874     0.2     0.2
    5   0.0017276686195  -0.2819043998857     0.2     0.2
 MICROCYCLE DIIS UPDATE:                     5                     5
    6   0.0003455200801  -0.2820291831430     0.2     0.2
    7   0.0001368799869  -0.2820417358052     0.2     0.2
    8   0.0000529049808  -0.2820410959663     0.2     0.2
    9   0.0000293971764  -0.2820412987904     0.2     0.2
   10   0.0000145312139  -0.2820415758723     0.2     0.2
 MICROCYCLE DIIS UPDATE:                    10                     5
   11   0.0000029361480  -0.2820420713864     0.2     0.2
   12   0.0000013250693  -0.2820418784141     0.2     0.2
   13   0.0000006281436  -0.2820419027258     0.3     0.3
   14   0.0000003681599  -0.2820418918541     0.3     0.3
   15   0.0000001997154  -0.2820418907876     0.3     0.3
 MICROCYCLE DIIS UPDATE:                    15                     5
   16   0.0000000315529  -0.2820418863496     0.3     0.3
 -----------------------------------------------------------------
 Iterations converged
 CCSD correlation energy / hartree =        -0.282041886349579
 CCSD total energy / hartree       =       -76.337273167268236

 Singles contributions

 Doubles contributions
     7a   (alpha)     7a   (beta ) ---     3a   (alpha)     3a   (beta )       -0.0208775299
     8a   (alpha)     8a   (beta ) ---     3a   (alpha)     3a   (beta )       -0.0282659165
     8a   (alpha)     8a   (beta ) ---     4a   (alpha)     4a   (beta )       -0.0226159949
     9a   (alpha)     9a   (beta ) ---     3a   (alpha)     3a   (beta )       -0.0258702538
    10a   (alpha)    10a   (beta ) ---     4a   (alpha)     4a   (beta )       -0.0294980278
    10a   (alpha)    11a   (beta ) ---     4a   (alpha)     5a   (beta )        0.0259527722
    11a   (alpha)    10a   (beta ) ---     5a   (alpha)     4a   (beta )        0.0259527722
    11a   (alpha)    11a   (beta ) ---     5a   (alpha)     5a   (beta )       -0.0477862765
    11a   (alpha)    13a   (beta ) ---     5a   (alpha)     3a   (beta )       -0.0222378527
    13a   (alpha)    11a   (beta ) ---     3a   (alpha)     5a   (beta )       -0.0222378527
    13a   (alpha)    13a   (beta ) ---     3a   (alpha)     3a   (beta )       -0.0224503615
 Ground state specification:
 exp(T)|Ref>~(1+T)|Ref>
 ------- a(p)+/a(q) strings ----------

 singles norm

 doubles norm

 Reference string
   1.00000000000000      :(1a)+ (2a)+ (3a)+ (4a)+ (5a)+ (1b)+ (2b)+ (3b)+ (4b)+ 
 (5b)+ |0>

 Singles strings

 Doubles strings
 -------------------------------------
 enrep_tce =    9.02572735389043     
  EHF(total)         =       -76.05523128
  Shift (HFtot-HFA)  =         0.00000000
 ALL OCCUPIED ORBITALS ARE ACTIVE IN DUCC --> NO SHIFT
 Number of active orbitals                     8
 Number of active alpha electrons                     5
 Number of active beta electrons                     5
  nos                     10
  nvs                    106
 noas                      5
 nobs                      5
 nvas                     53
 nvbs                     53
 nactv                      3
 DUCC MODEL =                      6
 NONHF =  T
 F-T1 correlation    =   1.298316806138131E-007
 V-T1-T1 correlation =   3.472041924682437E-005
 V-T2 correlation    =  -0.282076736600524     
 Total correlation   =  -0.282041886349596     
 F-T1(Ext) correlation         =   1.016469185413977E-007
 V-T1(Ext)-T1(Ext) correlation =   3.149895939322511E-005
 V-T2(Ext) correlation         =  -0.273965405621874     
 Total Ext correlation         =  -0.273933805015563     
1-BODY TIME =  283.761 SECONDS.
  HHHH TIME =  273.110 SECONDS.
  PPPP TIME =    3.090 SECONDS.
  HHHP TIME =   22.107 SECONDS.
  PPPH TIME =    5.621 SECONDS.
  HPHP TIME =   20.194 SECONDS.
  HHPP TIME =   12.081 SECONDS.
 ONE-BODY UNITARY CHECK
 TWO-BODY UNITARY CHECK
                     1                     3                     2
                     3 -1.455193604504856E-012
                     1                     3                     3
                     2  2.432179457834138E-012
                     1                     4                     2
                     4 -1.249271519565553E-012
                     1                     4                     4
                     2  1.667395388427195E-012
                     1                     5                     2
                     5 -1.332475796367305E-012
                     1                     5                     5
                     2  1.076624900342438E-012
                     1                     6                     2
                     9 -2.001475374324713E-012
                     1                     6                     3
                     8  1.434945912093255E-012
                     1                     6                     5
                    10 -1.624776702069397E-012
                     1                     6                     7
                     4  2.057822662271391E-012
                     1                     6                     8
                     3 -1.434945912093255E-012
                     1                     6                    10
                     5  1.624776702069397E-012
                     1                     7                     2
                     7 -1.448438591289403E-012
                     1                     7                     5
                    10 -2.097370888076711E-012
                     1                     7                     7
                     2  1.707085861557545E-012
                     1                     7                     9
                     2 -1.094666891854335E-012
                     1                     7                    10
                     5  2.668625737056729E-012
                     1                     8                     2
                     8 -2.840962708139383E-012
                     1                     8                     3
                     7 -1.228118301499492E-012
                     1                     8                     4
                     8  1.073480714042230E-012
                     1                     8                     7
                     3  1.385676295928562E-012
                     1                     8                     8
                     2  3.660413985806521E-012
                     1                     8                     8
                     4 -1.412052766380789E-012
                     1                     8                     9
                     3 -1.153536901415952E-012
                     1                     9                     2
                     9 -2.651294114808245E-012
                     1                     9                     3
                     8  2.210757184956114E-012
                     1                     9                     4
                     9  1.976342700604761E-012
                     1                     9                     7
                     2 -1.564784760099691E-012
                     1                     9                     7
                     4  1.401746774210011E-012
                     1                     9                     8
                     3 -2.342997323934171E-012
                     1                     9                     9
                     2  2.372742627376745E-012
                     1                     9                     9
                     4 -1.571512017739529E-012
                     1                    10                     2
                    10 -2.198474041703591E-012
                     1                    10                     5
                     7 -1.771152668972320E-012
                     1                    10                    10
                     2  2.847461849642130E-012
                     2                     2                     2
                     4 -9.564660996079926E-012
                     2                     2                     4
                     2  9.564654770943629E-012
                     2                     3                     1
                     3  1.455193604504856E-012
                     2                     3                     3
                     4 -2.912083334888349E-011
                     2                     3                     4
                     3  2.511530089802094E-011
                     2                     4                     1
                     4  1.249271519565553E-012
                     2                     4                     2
                     2  9.564660996079926E-012
                     2                     4                     3
                     3 -3.588629240937383E-012
                     2                     4                     4
                     2  1.411426531205962E-012
                     2                     4                     4
                     4 -2.870202734492297E-012
                     2                     5                     1
                     5  1.332475796367305E-012
                     2                     5                     4
                     5  2.634611018931254E-011
                     2                     5                     5
                     2  1.681887962234896E-011
                     2                     5                     5
                     4 -3.343279646184083E-011
                     2                     6                     2
                     7 -1.061848525774067E-012
                     2                     6                     4
                     9 -1.464637439108074E-012
                     2                     6                     5
                    10 -2.491781087021749E-012
                     2                     6                    10
                     5  1.920526238041731E-012
                     2                     7                     1
                     7  1.448438591289403E-012
                     2                     7                     2
                     6  1.061848525774067E-012
                     2                     7                     2
                     9 -7.223227224684159E-012
                     2                     7                     3
                     8 -1.825151141332526E-011
                     2                     7                     4
                     7  2.628645218161196E-011
                     2                     7                     4
                     9 -1.228397938923820E-011
                     2                     7                     5
                    10 -4.036065925916432E-011
                     2                     7                     6
                     2 -1.707065044875833E-012
                     2                     7                     6
                     4  1.564781290652739E-012
                     2                     7                     7
                     4 -2.341436072805791E-012
                     2                     7                     8
                     3  1.825151141332526E-011
                     2                     7                     9
                     2 -1.672179061884549E-011
                     2                     7                     9
                     4  1.228397938923820E-011
                     2                     7                    10
                     5  4.036065925916432E-011
                     2                     8                     1
                     8  2.840962708139383E-012
                     2                     8                     3
                     7 -1.528324689026306E-011
                     2                     8                     3
                     9  2.310673527516904E-011
                     2                     8                     4
                     8  4.750995256930235E-011
                     2                     8                     6
                     3 -1.385679765375514E-012
                     2                     8                     8
                     2  1.441791130929460E-011
                     2                     8                     8
                     4 -5.222747234689962E-011
                     2                     8                     9
                     3 -2.239476833143517E-011
                     2                     9                     1
                     6  2.001475374324713E-012
                     2                     9                     1
                     9  2.651294114808245E-012
                     2                     9                     2
                     7  7.223227224684159E-012
                     2                     9                     3
                     8  3.341807386370022E-011
                     2                     9                     4
                     7 -8.618702973528514E-012
                     2                     9                     4
                     9  7.175338101461648E-011
                     2                     9                     5
                    10  1.832040075200325E-011
                     2                     9                     6
                     1 -2.057767151120160E-012
                     2                     9                     6
                     4 -1.401757182550867E-012
                     2                     9                     7
                     2  2.341422195017984E-012
                     2                     9                     8
                     3 -3.700670325734734E-011
                     2                     9                     9
                     2  1.003142013900060E-011
                     2                     9                     9
                     4 -7.462347406672620E-011
                     2                     9                    10
                     5 -1.883772304811515E-011
                     2                    10                     1
                    10  2.198474041703591E-012
                     2                    10                     4
                    10  3.396848080594594E-011
                     2                    10                     5
                     6 -1.168357077752091E-012
                     2                    10                     5
                     7 -3.293121331182647E-011
                     2                    10                     5
                     9  1.557130466234291E-011
                     2                    10                     9
                     5 -7.622399239570754E-012
                     2                    10                    10
                     2  4.974953782266311E-011
                     2                    10                    10
                     4 -4.900410632835417E-011
                     3                     1                     3
                     2 -1.668415405831070E-012
                     3                     1                     3
                     4  1.357041215510613E-012
                     3                     2                     1
                     3 -2.432179457834138E-012
                     3                     2                     3
                     1  1.668415405831070E-012
                     3                     2                     3
                     4  2.194044425307684E-012
                     3                     2                     4
                     3  1.811487591873995E-012
                     3                     3                     2
                     4  3.588629240937383E-012
                     3                     3                     4
                     2 -3.588628345252981E-012
                     3                     4                     2
                     3  2.912083334888349E-011
                     3                     4                     3
                     1 -1.357041215510613E-012
                     3                     4                     3
                     2 -2.194044425307684E-012
                     3                     4                     4
                     3  1.954059136721753E-011
                     3                     5                     5
                     3  5.243572243074368E-011
                     3                     6                     3
                     7 -1.118590463311531E-012
                     3                     6                     3
                     9  1.342263973580504E-012
                     3                     6                     9
                     3 -1.003691921241945E-012
                     3                     7                     1
                     8  1.228118301499492E-012
                     3                     7                     2
                     8  1.528324689026306E-011
                     3                     7                     3
                     6  1.118590463311531E-012
                     3                     7                     4
                     8 -2.910453128501800E-012
                     3                     7                     6
                     3 -3.660412251083045E-012
                     3                     7                     7
                     3 -1.441791130929460E-011
                     3                     7                     8
                     4  2.198482715320971E-012
                     3                     7                     9
                     3  4.721868729351542E-012
                     3                     8                     1
                     6 -1.434945912093255E-012
                     3                     8                     1
                     9 -2.210757184956114E-012
                     3                     8                     2
                     7  1.825151141332526E-011
                     3                     8                     2
                     9 -3.341807386370022E-011
                     3                     8                     4
                     6 -1.679304698770645E-012
                     3                     8                     4
                     7 -1.619286822684973E-011
                     3                     8                     4
                     9  1.533419224930554E-012
                     3                     8                     5
                    10 -2.549186209344079E-011
                     3                     8                     6
                     1  1.435032648267054E-012
                     3                     8                     6
                     4  2.343002528104599E-012
                     3                     8                     7
                     2 -1.825151141332526E-011
                     3                     8                     7
                     4  3.700672754347600E-011
                     3                     8                     9
                     1  1.547060656664767E-012
                     3                     8                     9
                     2  1.260421628179742E-011
                     3                     8                     9
                     4 -1.533363713779323E-012
                     3                     8                    10
                     5  2.549185862399383E-011
                     3                     9                     2
                     8 -2.310673527516904E-011
                     3                     9                     3
                     6 -1.342263973580504E-012
                     3                     9                     4
                     8  3.579636587147661E-012
                     3                     9                     6
                     3  1.412039755954719E-012
                     3                     9                     7
                     3  5.222749316358133E-011
                     3                     9                     8
                     2 -2.198373427741984E-012
                     3                     9                     9
                     3  1.596167642503588E-011
                     3                    10                     5
                     8 -2.326857803658378E-011
                     3                    10                    10
                     3  7.570355453623279E-011
                     4                     2                     1
                     4 -1.667395388427195E-012
                     4                     2                     2
                     2 -9.564654770943629E-012
                     4                     2                     2
                     4 -1.411426531205962E-012
                     4                     2                     3
                     3  3.588628345252981E-012
                     4                     2                     4
                     4  2.870201688883063E-012
                     4                     3                     2
                     3 -2.511530089802094E-011
                     4                     3                     3
                     2 -1.811487591873995E-012
                     4                     3                     3
                     4 -1.954059136721753E-011
                     4                     4                     2
                     4  2.870202734492297E-012
                     4                     4                     4
                     2 -2.870201688883063E-012
                     4                     5                     2
                     5 -2.634611018931254E-011
                     4                     5                     5
                     2 -1.128176631975952E-011
                     4                     5                     5
                     4  3.841493789735750E-011
                     4                     6                     3
                     8  1.679304698770645E-012
                     4                     6                     8
                     3 -1.547065860835195E-012
                     4                     6                     9
                     4 -1.034897861851292E-012
                     4                     6                    10
                     5 -1.008797212431745E-012
                     4                     7                     2
                     7 -2.628645218161196E-011
                     4                     7                     2
                     9  8.618702973528514E-012
                     4                     7                     3
                     8  1.619286822684973E-011
                     4                     7                     4
                     9 -5.076716824703453E-012
                     4                     7                     5
                    10  2.928872422369722E-012
                     4                     7                     6
                     2  1.094678167556928E-012
                     4                     7                     6
                     4 -2.372763444058457E-012
                     4                     7                     7
                     2  1.672180276190982E-011
                     4                     7                     7
                     4 -1.003142013900060E-011
                     4                     7                     8
                     3 -1.260423883320261E-011
                     4                     7                     9
                     4  7.946740487874138E-012
                     4                     7                    10
                     5 -2.411553595704774E-012
                     4                     8                     1
                     8 -1.073480714042230E-012
                     4                     8                     2
                     8 -4.750995256930235E-011
                     4                     8                     3
                     7  2.910453128501800E-012
                     4                     8                     3
                     9 -3.579636587147661E-012
                     4                     8                     6
                     3  1.153535600373345E-012
                     4                     8                     7
                     3  2.239465383968575E-011
                     4                     8                     8
                     1  1.003704931668015E-012
                     4                     8                     8
                     2 -4.721938118290581E-012
                     4                     8                     8
                     4 -1.596167642503588E-011
                     4                     9                     1
                     9 -1.976342700604761E-012
                     4                     9                     2
                     6  1.464637439108074E-012
                     4                     9                     2
                     7  1.228397938923820E-011
                     4                     9                     2
                     9 -7.175338101461648E-011
                     4                     9                     3
                     8 -1.533419224930554E-012
                     4                     9                     4
                     7  5.076716824703453E-012
                     4                     9                     5
                    10 -3.475554566367833E-011
                     4                     9                     6
                     4  1.571510283016053E-012
                     4                     9                     7
                     2 -1.228397938923820E-011
                     4                     9                     7
                     4  7.462284956627485E-011
                     4                     9                     8
                     3  1.533377591567131E-012
                     4                     9                     9
                     1  1.034963781343379E-012
                     4                     9                     9
                     2 -7.946199254149633E-012
                     4                     9                    10
                     5  3.475553872478443E-011
                     4                    10                     2
                    10 -3.396848080594594E-011
                     4                    10                     5
                     7  3.938294135252818E-012
                     4                    10                     5
                     9 -1.630857254797391E-011
                     4                    10                     7
                     5  7.622437403487226E-012
                     4                    10                    10
                     2 -1.522020010025216E-011
                     4                    10                    10
                     4  5.472355901758874E-011
                     5                     2                     1
                     5 -1.076624900342438E-012
                     5                     2                     2
                     5 -1.681887962234896E-011
                     5                     2                     4
                     5  1.128176631975952E-011
                     5                     2                     5
                     4 -4.195077445146023E-012
                     5                     3                     3
                     5 -5.243572243074368E-011
                     5                     4                     2
                     5  3.343279646184083E-011
                     5                     4                     4
                     5 -3.841493789735750E-011
                     5                     4                     5
                     2  4.195077445146023E-012
                     5                     6                     2
                    10  1.168357077752091E-012
                     5                     6                     5
                     9 -1.010699336723153E-012
                     5                     7                     1
                    10  1.771152668972320E-012
                     5                     7                     2
                    10  3.293121331182647E-011
                     5                     7                     4
                    10 -3.938294135252818E-012
                     5                     7                     6
                     5 -2.847463584365606E-012
                     5                     7                     7
                     5 -4.974953782266311E-011
                     5                     7                     9
                     5  1.522022785582777E-011
                     5                     7                    10
                     4 -4.010607818072387E-012
                     5                     8                     3
                    10  2.326857803658378E-011
                     5                     8                     8
                     5 -7.570355453623279E-011
                     5                     9                     2
                    10 -1.557130466234291E-011
                     5                     9                     4
                    10  1.630857254797391E-011
                     5                     9                     5
                     6  1.010699336723153E-012
                     5                     9                     7
                     5  4.900407857277855E-011
                     5                     9                     9
                     5 -5.472355901758874E-011
                     5                     9                    10
                     2  4.010573123602867E-012
                     5                    10                     1
                     6  1.624776702069397E-012
                     5                    10                     1
                     7  2.097370888076711E-012
                     5                    10                     2
                     6  2.491781087021749E-012
                     5                    10                     2
                     7  4.036065925916432E-011
                     5                    10                     2
                     9 -1.832040075200325E-011
                     5                    10                     3
                     8  2.549186209344079E-011
                     5                    10                     4
                     7 -2.928872422369722E-012
                     5                    10                     4
                     9  3.475554566367833E-011
                     5                    10                     6
                     1 -1.624773232622445E-012
                     5                    10                     6
                     2 -2.668618798162825E-012
                     5                    10                     7
                     1 -1.920533176935635E-012
                     5                    10                     7
                     2 -4.036065925916432E-011
                     5                    10                     7
                     4  1.883770223143344E-011
                     5                    10                     8
                     3 -2.549183780731212E-011
                     5                    10                     9
                     1  1.008805886049124E-012
                     5                    10                     9
                     2  2.411574412386486E-012
                     5                    10                     9
                     4 -3.475563586929908E-011
                     6                     1                     2
                     9  2.057767151120160E-012
                     6                     1                     3
                     8 -1.435032648267054E-012
                     6                     1                     5
                    10  1.624773232622445E-012
                     6                     1                     7
                     4 -2.001530885475944E-012
                     6                     1                     8
                     3  1.435032648267054E-012
                     6                     1                    10
                     5 -1.624773232622445E-012
                     6                     2                     2
                     7  1.707065044875833E-012
                     6                     2                     4
                     7 -1.094678167556928E-012
                     6                     2                     5
                    10  2.668618798162825E-012
                     6                     2                     7
                     2 -1.448419509331167E-012
                     6                     2                    10
                     5 -2.097363949182807E-012
                     6                     3                     2
                     8  1.385679765375514E-012
                     6                     3                     3
                     7  3.660412251083045E-012
                     6                     3                     3
                     9 -1.412039755954719E-012
                     6                     3                     4
                     8 -1.153535600373345E-012
                     6                     3                     7
                     3 -2.840961840777645E-012
                     6                     3                     8
                     2 -1.228121770946444E-012
                     6                     3                     9
                     3  1.073467703616160E-012
                     6                     4                     2
                     7 -1.564781290652739E-012
                     6                     4                     2
                     9  1.401757182550867E-012
                     6                     4                     3
                     8 -2.343002528104599E-012
                     6                     4                     4
                     7  2.372763444058457E-012
                     6                     4                     4
                     9 -1.571510283016053E-012
                     6                     4                     7
                     4 -2.651314931489956E-012
                     6                     4                     8
                     3  2.210761955445673E-012
                     6                     4                     9
                     4  1.976323618646525E-012
                     6                     5                     5
                     7  2.847463584365606E-012
                     6                     5                     7
                     5 -2.198474041703591E-012
                     6                     5                    10
                     2 -1.771142260631464E-012
                     6                     8                     7
                     8 -1.455193604504856E-012
                     6                     8                     8
                     7  2.432179457834138E-012
                     6                     9                     7
                     9 -1.249271519565553E-012
                     6                     9                     9
                     7  1.667395388427195E-012
                     6                    10                     7
                    10 -1.332482735261209E-012
                     6                    10                    10
                     7  1.076617961448534E-012
                     7                     1                     5
                    10  1.920533176935635E-012
                     7                     1                     7
                     2 -1.061869342455779E-012
                     7                     1                     9
                     4 -1.464692950259305E-012
                     7                     1                    10
                     5 -2.491788025915653E-012
                     7                     2                     1
                     7 -1.707085861557545E-012
                     7                     2                     1
                     9  1.564784760099691E-012
                     7                     2                     2
                     9 -2.341422195017984E-012
                     7                     2                     3
                     8  1.825151141332526E-011
                     7                     2                     4
                     7 -1.672180276190982E-011
                     7                     2                     4
                     9  1.228397938923820E-011
                     7                     2                     5
                    10  4.036065925916432E-011
                     7                     2                     6
                     2  1.448419509331167E-012
                     7                     2                     7
                     1  1.061869342455779E-012
                     7                     2                     7
                     4 -7.223213346896351E-012
                     7                     2                     8
                     3 -1.825151141332526E-011
                     7                     2                     9
                     2  2.628644003854763E-011
                     7                     2                     9
                     4 -1.228397938923820E-011
                     7                     2                    10
                     5 -4.036065925916432E-011
                     7                     3                     1
                     8 -1.385676295928562E-012
                     7                     3                     3
                     7  1.441791130929460E-011
                     7                     3                     3
                     9 -5.222749316358133E-011
                     7                     3                     4
                     8 -2.239465383968575E-011
                     7                     3                     6
                     3  2.840961840777645E-012
                     7                     3                     8
                     2 -1.528316362353621E-011
                     7                     3                     8
                     4  2.310662251814311E-011
                     7                     3                     9
                     3  4.750999420266577E-011
                     7                     4                     1
                     6 -2.057822662271391E-012
                     7                     4                     1
                     9 -1.401746774210011E-012
                     7                     4                     2
                     7  2.341436072805791E-012
                     7                     4                     3
                     8 -3.700672754347600E-011
                     7                     4                     4
                     7  1.003142013900060E-011
                     7                     4                     4
                     9 -7.462284956627485E-011
                     7                     4                     5
                    10 -1.883770223143344E-011
                     7                     4                     6
                     1  2.001530885475944E-012
                     7                     4                     6
                     4  2.651314931489956E-012
                     7                     4                     7
                     2  7.223213346896351E-012
                     7                     4                     8
                     3  3.341809814982888E-011
                     7                     4                     9
                     2 -8.619008284860286E-012
                     7                     4                     9
                     4  7.175281202531636E-011
                     7                     4                    10
                     5  1.832037646587459E-011
                     7                     5                     4
                    10 -7.622437403487226E-012
                     7                     5                     5
                     7  4.974953782266311E-011
                     7                     5                     5
                     9 -4.900407857277855E-011
                     7                     5                     6
                     5  2.198474041703591E-012
                     7                     5                     9
                     5  3.396845305037033E-011
                     7                     5                    10
                     1 -1.168346669411235E-012
                     7                     5                    10
                     2 -3.293129657855332E-011
                     7                     5                    10
                     4  1.557133935681243E-011
                     7                     7                     7
                     9 -9.564668339881221E-012
                     7                     7                     9
                     7  9.564649700630049E-012
                     7                     8                     6
                     8  1.455193604504856E-012
                     7                     8                     8
                     9 -2.912083811937305E-011
                     7                     8                     9
                     8  2.511529656121225E-011
                     7                     9                     6
                     9  1.249271519565553E-012
                     7                     9                     7
                     7  9.564668339881221E-012
                     7                     9                     8
                     8 -3.588627954324942E-012
                     7                     9                     9
                     7  1.411426531205962E-012
                     7                     9                     9
                     9 -2.870186224035306E-012
                     7                    10                     6
                    10  1.332482735261209E-012
                     7                    10                     9
                    10  2.634611279139776E-011
                     7                    10                    10
                     7  1.681899064465142E-011
                     7                    10                    10
                     9 -3.343279472711735E-011
                     8                     1                     4
                     8 -1.003704931668015E-012
                     8                     1                     8
                     2 -1.118592198035007E-012
                     8                     1                     8
                     4  1.342276984006574E-012
                     8                     2                     1
                     8 -3.660413985806521E-012
                     8                     2                     2
                     8 -1.441791130929460E-011
                     8                     2                     3
                     9  2.198373427741984E-012
                     8                     2                     4
                     8  4.721938118290581E-012
                     8                     2                     6
                     3  1.228121770946444E-012
                     8                     2                     7
                     3  1.528316362353621E-011
                     8                     2                     8
                     1  1.118592198035007E-012
                     8                     2                     9
                     3 -2.910340371475861E-012
                     8                     3                     1
                     6  1.434945912093255E-012
                     8                     3                     1
                     9  2.342997323934171E-012
                     8                     3                     2
                     7 -1.825151141332526E-011
                     8                     3                     2
                     9  3.700670325734734E-011
                     8                     3                     4
                     6  1.547065860835195E-012
                     8                     3                     4
                     7  1.260423883320261E-011
                     8                     3                     4
                     9 -1.533377591567131E-012
                     8                     3                     5
                    10  2.549183780731212E-011
                     8                     3                     6
                     1 -1.435032648267054E-012
                     8                     3                     6
                     4 -2.210761955445673E-012
                     8                     3                     7
                     2  1.825151141332526E-011
                     8                     3                     7
                     4 -3.341809814982888E-011
                     8                     3                     9
                     1 -1.679300795642824E-012
                     8                     3                     9
                     2 -1.619284567544454E-011
                     8                     3                     9
                     4  1.533335958203708E-012
                     8                     3                    10
                     5 -2.549183433786517E-011
                     8                     4                     1
                     8  1.412052766380789E-012
                     8                     4                     2
                     8  5.222747234689962E-011
                     8                     4                     3
                     7 -2.198482715320971E-012
                     8                     4                     4
                     8  1.596167642503588E-011
                     8                     4                     7
                     3 -2.310662251814311E-011
                     8                     4                     8
                     1 -1.342276984006574E-012
                     8                     4                     9
                     3  3.579317398028081E-012
                     8                     5                     5
                     8  7.570355453623279E-011
                     8                     5                    10
                     3 -2.326857109768987E-011
                     8                     6                     8
                     7 -1.668415405831070E-012
                     8                     6                     8
                     9  1.357042950234089E-012
                     8                     7                     6
                     8 -2.432179457834138E-012
                     8                     7                     8
                     6  1.668415405831070E-012
                     8                     7                     8
                     9  2.194039221137256E-012
                     8                     7                     9
                     8  1.811499301257458E-012
                     8                     8                     7
                     9  3.588627954324942E-012
                     8                     8                     9
                     7 -3.588629737805752E-012
                     8                     9                     7
                     8  2.912083811937305E-011
                     8                     9                     8
                     6 -1.357042950234089E-012
                     8                     9                     8
                     7 -2.194039221137256E-012
                     8                     9                     9
                     8  1.954059136721753E-011
                     8                    10                    10
                     8  5.243572243074368E-011
                     9                     1                     3
                     8 -1.547060656664767E-012
                     9                     1                     4
                     9 -1.034963781343379E-012
                     9                     1                     5
                    10 -1.008805886049124E-012
                     9                     1                     8
                     3  1.679300795642824E-012
                     9                     2                     1
                     7  1.094666891854335E-012
                     9                     2                     1
                     9 -2.372742627376745E-012
                     9                     2                     2
                     7  1.672179061884549E-011
                     9                     2                     2
                     9 -1.003142013900060E-011
                     9                     2                     3
                     8 -1.260421628179742E-011
                     9                     2                     4
                     9  7.946199254149633E-012
                     9                     2                     5
                    10 -2.411574412386486E-012
                     9                     2                     7
                     2 -2.628644003854763E-011
                     9                     2                     7
                     4  8.619008284860286E-012
                     9                     2                     8
                     3  1.619284567544454E-011
                     9                     2                     9
                     4 -5.076078446464294E-012
                     9                     2                    10
                     5  2.928896708498385E-012
                     9                     3                     1
                     8  1.153536901415952E-012
                     9                     3                     2
                     8  2.239476833143517E-011
                     9                     3                     3
                     6  1.003691921241945E-012
                     9                     3                     3
                     7 -4.721868729351542E-012
                     9                     3                     3
                     9 -1.596167642503588E-011
                     9                     3                     6
                     3 -1.073467703616160E-012
                     9                     3                     7
                     3 -4.750999420266577E-011
                     9                     3                     8
                     2  2.910340371475861E-012
                     9                     3                     8
                     4 -3.579317398028081E-012
                     9                     4                     1
                     9  1.571512017739529E-012
                     9                     4                     2
                     7 -1.228397938923820E-011
                     9                     4                     2
                     9  7.462347406672620E-011
                     9                     4                     3
                     8  1.533363713779323E-012
                     9                     4                     4
                     6  1.034897861851292E-012
                     9                     4                     4
                     7 -7.946740487874138E-012
                     9                     4                     5
                    10  3.475563586929908E-011
                     9                     4                     6
                     4 -1.976323618646525E-012
                     9                     4                     7
                     1  1.464692950259305E-012
                     9                     4                     7
                     2  1.228397938923820E-011
                     9                     4                     7
                     4 -7.175281202531636E-011
                     9                     4                     8
                     3 -1.533335958203708E-012
                     9                     4                     9
                     2  5.076078446464294E-012
                     9                     4                    10
                     5 -3.475558035814785E-011
                     9                     5                     2
                    10  7.622399239570754E-012
                     9                     5                     5
                     7 -1.522022785582777E-011
                     9                     5                     5
                     9  5.472355901758874E-011
                     9                     5                     7
                     5 -3.396845305037033E-011
                     9                     5                    10
                     2  3.938332299169289E-012
                     9                     5                    10
                     4 -1.630862805912514E-011
                     9                     7                     6
                     9 -1.667395388427195E-012
                     9                     7                     7
                     7 -9.564649700630049E-012
                     9                     7                     7
                     9 -1.411426531205962E-012
[...]
    6    7    8    1        0.0013731947
    6    7    8    2       -0.0063219735
    6    7    8    4        0.0254082901
    6    7    8    6        0.0001653108
    6    8    8    1        0.0003215122
    6    8    8    2       -0.0114393691
    6    8    8    4        0.0053641089
    6    8    8    6        0.0174843595
    7    1    1    1        0.0000000001
    7    1    1    3       -0.0104001566
    7    1    1    7        0.0044759976
    7    1    1    8        0.0037877070
    7    2    1    1       -0.0000000002
    7    2    1    3       -0.0082686675
    7    2    1    7        0.0036836245
    7    2    1    8        0.0031019942
    7    3    1    1       -0.1655357690
    7    3    1    2        0.0005933201
    7    3    1    4        0.0003072406
    7    3    1    6        0.0005019172
    7    4    1    1        0.0000000001
    7    4    1    3       -0.0028888337
    7    4    1    7        0.0014145128
    7    4    1    8        0.0014295738
    7    6    1    1       -0.0000000001
    7    6    1    3       -0.0038914642
    7    6    1    7        0.0017017327
    7    6    1    8        0.0013731947
    7    7    1    1        0.3356911949
    7    7    1    2       -0.0014275994
    7    7    1    4       -0.0014125522
    7    7    1    6       -0.0001277732
    7    8    1    1        0.1103723332
    7    8    1    2       -0.0014661304
    7    8    1    4        0.0002018842
    7    8    1    6       -0.0004762038
    7    1    2    3       -0.0111038430
    7    1    2    7        0.0036836245
    7    1    2    8        0.0026366517
    7    2    2    2       -0.0000000001
    7    2    2    3       -0.0326108420
    7    2    2    7        0.0126983656
    7    2    2    8        0.0099459898
    7    3    2    1        0.0014590309
    7    3    2    2       -0.0949577787
    7    3    2    4       -0.0141420733
    7    3    2    6       -0.0204693394
    7    4    2    3       -0.0154528101
    7    4    2    7        0.0024720695
    7    4    2    8        0.0024793817
    7    6    2    3       -0.0414159742
    7    6    2    7       -0.0007160064
    7    6    2    8       -0.0063219735
    7    7    2    1       -0.0014275994
    7    7    2    2        0.2994165417
    7    7    2    4       -0.0101159070
    7    7    2    6        0.0078091333
    7    8    2    1       -0.0014376316
    7    8    2    2        0.0749403945
    7    8    2    4        0.0005324457
    7    8    2    6        0.0066840771
    7    1    3    1       -0.0094863558
    7    1    3    2       -0.0108757547
    7    1    3    4       -0.0016728933
    7    1    3    6       -0.0017844465
    7    2    3    1       -0.0081859531
    7    2    3    2       -0.0329879898
    7    2    3    4       -0.0056021939
    7    2    3    6       -0.0076889464
    7    3    3    3       -0.0835806652
    7    3    3    7        0.0313452833
    7    3    3    8        0.0247389329
    7    4    3    1       -0.0030114960
    7    4    3    2       -0.0165085135
    7    4    3    4       -0.0059277613
    7    4    3    6        0.0058830733
    7    5    3    5       -0.0088813760
    7    6    3    1       -0.0038730244
    7    6    3    2       -0.0414757992
    7    6    3    4        0.0139986973
    7    6    3    6        0.0179388849
    7    7    3    3        0.3029619420
    7    7    3    7       -0.0061163819
    7    7    3    8        0.0090168329
    7    8    3    3        0.0739775380
    7    8    3    7       -0.0106168011
    7    8    3    8        0.0043110175
    7    1    4    3       -0.0017174115
    7    1    4    7        0.0014145128
    7    1    4    8        0.0030369453
    7    2    4    3       -0.0054616932
    7    2    4    7        0.0024720695
    7    2    4    8        0.0079881057
    7    3    4    1        0.0003225702
    7    3    4    2       -0.0151169040
    7    3    4    4       -0.0843296488
    7    3    4    6        0.0139698676
    7    4    4    3       -0.0068090246
    7    4    4    7        0.0084256994
    7    4    4    8        0.0148833163
    7    6    4    3        0.0138107450
    7    6    4    7        0.0124452654
    7    6    4    8        0.0254082901
    7    7    4    1       -0.0014125522
    7    7    4    2       -0.0101159070
    7    7    4    4        0.2847981616
    7    7    4    6        0.0037995627
    7    8    4    1        0.0000938216
    7    8    4    2        0.0001953782
    7    8    4    4        0.0720047933
    7    8    4    6       -0.0001851495
    7    2    5    5       -0.0000000001
    7    3    5    5       -0.0895340996
    7    5    5    3       -0.0091469788
    7    5    5    7        0.0044764441
    7    5    5    8        0.0038537430
    7    7    5    5        0.2862486528
    7    8    5    5        0.0670385652
    7    1    6    3       -0.0021470572
    7    1    6    7        0.0017017327
    7    1    6    8        0.0004519071
    7    2    6    3       -0.0109882768
    7    2    6    7       -0.0007160064
    7    2    6    8       -0.0011458582
    7    3    6    1        0.0000676403
    7    3    6    2       -0.0233113824
    7    3    6    4        0.0142283466
    7    3    6    6       -0.0079464360
    7    4    6    3        0.0065809102
    7    4    6    7        0.0124452654
    7    4    6    8        0.0024241575
    7    6    6    3        0.0183516102
    7    6    6    6        0.0000000001
    7    6    6    7        0.0651408757
    7    6    6    8        0.0001653108
    7    7    6    1       -0.0001277732
    7    7    6    2        0.0078091333
    7    7    6    4        0.0037995627
    7    7    6    6        0.2550018212
    7    7    6    7       -0.0000000001
    7    8    6    1       -0.0004621678
    7    8    6    2        0.0065864560
    7    8    6    4        0.0005059558
    7    8    6    6        0.0259900486
    7    1    7    1        0.0047629166
    7    1    7    2        0.0040529655
    7    1    7    4        0.0015066905
    7    1    7    6        0.0016938944
    7    2    7    1        0.0040529655
    7    2    7    2        0.0153185076
    7    2    7    4        0.0028924851
    7    2    7    6       -0.0008478167
    7    3    7    3        0.0337032604
    7    3    7    7       -0.0061163819
    7    3    7    8       -0.0104342911
    7    4    7    1        0.0015066905
    7    4    7    2        0.0028924851
    7    4    7    4        0.0101889293
    7    4    7    6        0.0125136108
    7    5    7    5        0.0062050685
    7    6    7    1        0.0016938944
    7    6    7    2       -0.0008478167
    7    6    7    4        0.0125136108
    7    6    7    6        0.0651414063
    7    6    7    7       -0.0000000001
    7    7    7    3       -0.0061163819
    7    7    7    6       -0.0000000001
    7    7    7    7        0.2600586979
    7    7    7    8        0.0209134195
    7    8    7    3       -0.0104342911
    7    8    7    7        0.0209134195
    7    8    7    8        0.0199816289
    7    1    8    1        0.0040002742
    7    1    8    2        0.0029315015
    7    1    8    4        0.0031590462
    7    1    8    6        0.0004339149
    7    2    8    1        0.0033830955
    7    2    8    2        0.0114928183
    7    2    8    4        0.0083804907
    7    2    8    6       -0.0010898289
    7    3    8    3        0.0252474730
    7    3    8    7       -0.0106168011
    7    3    8    8       -0.0232460955
    7    4    8    1        0.0014817187
    7    4    8    2        0.0031919575
    7    4    8    4        0.0153965117
    7    4    8    6        0.0020305640
    7    5    8    5        0.0045372065
    7    6    8    1        0.0013674483
    7    6    8    2       -0.0064482525
    7    6    8    4        0.0257807740
    7    6    8    6        0.0001745491
    7    7    8    3        0.0090168329
    7    7    8    7        0.0209134195
    7    7    8    8        0.2684034233
    7    8    8    3        0.0054903253
    7    8    8    7        0.0200361297
    7    8    8    8        0.0470351612
    8    1    1    3       -0.0090339390
    8    1    1    7        0.0037877070
    8    1    1    8        0.0032541900
    8    2    1    3       -0.0060791317
    8    2    1    7        0.0026366517
    8    2    1    8        0.0023779511
    8    3    1    1       -0.1026018357
    8    3    1    2        0.0013675004
    8    3    1    4       -0.0038598897
    8    3    1    6        0.0016786528
    8    4    1    3       -0.0062960404
    8    4    1    7        0.0030369453
    8    4    1    8        0.0027847255
    8    6    1    3       -0.0010771816
    8    6    1    7        0.0004519071
    8    6    1    8        0.0003215122
    8    7    1    1        0.1103723332
    8    7    1    2       -0.0014376316
    8    7    1    4        0.0000938216
    8    7    1    6       -0.0004621678
    8    8    1    1        0.4595532670
    8    8    1    2       -0.0012536014
    8    8    1    4       -0.0002589504
    8    8    1    6       -0.0002962131
    8    1    2    3       -0.0093233301
    8    1    2    7        0.0031019942
    8    1    2    8        0.0023779511
    8    2    2    3       -0.0066322525
    8    2    2    7        0.0099459898
    8    2    2    8        0.0241019336
    8    3    2    1        0.0021838779
    8    3    2    2       -0.0237261282
    8    3    2    4       -0.0491546738
    8    3    2    6       -0.0090366607
    8    4    2    3       -0.0534710706
    8    4    2    7        0.0079881057
    8    4    2    8       -0.0030706269
    8    6    2    3       -0.0074537913
    8    6    2    7       -0.0011458582
    8    6    2    8       -0.0114393691
    8    7    2    1       -0.0014661304
    8    7    2    2        0.0749403945
    8    7    2    4        0.0001953782
    8    7    2    6        0.0065864560
    8    8    2    1       -0.0012536014
    8    8    2    2        0.4295742439
    8    8    2    4       -0.0098552718
    8    8    2    6        0.0138201627
    8    1    3    1       -0.0080347983
    8    1    3    2       -0.0090307108
    8    1    3    4       -0.0019966442
    8    1    3    6       -0.0013560793
    8    2    3    1       -0.0057301956
    8    2    3    2       -0.0057435669
    8    2    3    4       -0.0245311937
    8    2    3    6       -0.0067401950
    8    3    3    3       -0.0113230333
    8    3    3    7        0.0247389329
    8    3    3    8        0.0555278685
    8    4    3    1       -0.0068183905
    8    4    3    2       -0.0567137154
    8    4    3    4        0.0028856295
    8    4    3    6        0.0111091157
    8    5    3    5       -0.0092832171
    8    6    3    1       -0.0009597151
    8    6    3    2       -0.0070506870
    8    6    3    4        0.0111330129
    8    6    3    6        0.0010082397
    8    7    3    3        0.0739775380
    8    7    3    7       -0.0104342911
    8    7    3    8        0.0054903253
    8    8    3    3        0.4340840053
    8    8    3    7       -0.0232460955
    8    8    3    8        0.0193519260
    8    1    4    3       -0.0020365601
    8    1    4    7        0.0014295738
    8    1    4    8        0.0027847255
    8    2    4    3       -0.0241526395
    8    2    4    7        0.0024793817
    8    2    4    8       -0.0030706269
    8    3    4    1       -0.0043554594
    8    3    4    2       -0.0521024442
    8    3    4    4       -0.0396707931
    8    3    4    6        0.0149432791
    8    4    4    3        0.0013752428
    8    4    4    7        0.0148833163
    8    4    4    8        0.0421893168
    8    6    4    3        0.0110926412
    8    6    4    7        0.0024241575
    8    6    4    8        0.0053641089
    8    7    4    1        0.0002018842
    8    7    4    2        0.0005324457
    8    7    4    4        0.0720047933
    8    7    4    6        0.0005059558
    8    8    4    1       -0.0002589504
    8    8    4    2       -0.0098552718
    8    8    4    4        0.4175786338
    8    8    4    6       -0.0052505607
    8    3    5    5       -0.0426899364
    8    5    5    3       -0.0092817929
    8    5    5    7        0.0038537430
    8    5    5    8        0.0075267458
    8    7    5    5        0.0670385652
    8    8    5    5        0.4007328509
    8    1    6    3       -0.0017454633
    8    1    6    7        0.0013731947
    8    1    6    8        0.0003215122
    8    2    6    3       -0.0098963304
    8    2    6    7       -0.0063219735
    8    2    6    8       -0.0114393691
    8    3    6    1        0.0013946629
    8    3    6    2       -0.0110993142
    8    3    6    4        0.0152226115
    8    3    6    6        0.0139460994
    8    4    6    3        0.0121990733
    8    4    6    7        0.0254082901
    8    4    6    8        0.0053641089
    8    6    6    3        0.0005452026
    8    6    6    7        0.0001653108
    8    6    6    8        0.0174843595
    8    7    6    1       -0.0004762038
    8    7    6    2        0.0066840771
    8    7    6    4       -0.0001851495
    8    7    6    6        0.0259900486
    8    8    6    1       -0.0002962131
    8    8    6    2        0.0138201627
    8    8    6    4       -0.0052505607
    8    8    6    6        0.2856286080
    8    1    7    1        0.0040002742
    8    1    7    2        0.0033830955
    8    1    7    4        0.0014817187
    8    1    7    6        0.0013674483
    8    2    7    1        0.0029315015
    8    2    7    2        0.0114928183
    8    2    7    4        0.0031919575
    8    2    7    6       -0.0064482525
    8    3    7    3        0.0252474730
    8    3    7    7        0.0090168329
    8    3    7    8        0.0054903253
    8    4    7    1        0.0031590462
    8    4    7    2        0.0083804907
    8    4    7    4        0.0153965117
    8    4    7    6        0.0257807740
    8    5    7    5        0.0045372065
    8    6    7    1        0.0004339149
    8    6    7    2       -0.0010898289
    8    6    7    4        0.0020305640
    8    6    7    6        0.0001745491
    8    7    7    3       -0.0106168011
    8    7    7    7        0.0209134195
    8    7    7    8        0.0200361297
    8    8    7    3       -0.0232460955
    8    8    7    7        0.2684034233
    8    8    7    8        0.0470351612
    8    1    8    1        0.0033324705
    8    1    8    2        0.0026705191
    8    1    8    4        0.0027472124
    8    1    8    6        0.0003251167
    8    2    8    1        0.0026705191
    8    2    8    2        0.0263519381
    8    2    8    4       -0.0038298644
    8    2    8    6       -0.0105597220
    8    3    8    3        0.0563345181
    8    3    8    7        0.0043110175
    8    3    8    8        0.0193519260
    8    4    8    1        0.0027472124
    8    4    8    2       -0.0038298644
    8    4    8    4        0.0416383840
    8    4    8    6        0.0045820317
    8    5    8    5        0.0070450138
    8    6    8    1        0.0003251167
    8    6    8    2       -0.0105597220
    8    6    8    4        0.0045820317
    8    6    8    6        0.0174662809
    8    7    8    3        0.0043110175
    8    7    8    7        0.0199816289
    8    7    8    8        0.0470351612
    8    8    8    3        0.0193519260
    8    8    8    7        0.0470351612
    8    8    8    8        0.3734311348
 end_two_electron_integrals

 Task  times  cpu:      655.4s     wall:      655.4s
 
 
                                NWChem Input Module
                                -------------------
 
 
 Summary of allocated global arrays
-----------------------------------
  No active global arrays


MA_summarize_allocated_blocks: starting scan ...
MA_summarize_allocated_blocks: scan completed: 0 heap blocks, 0 stack blocks
MA usage statistics:

	allocation statistics:
					      heap	     stack
					      ----	     -----
	current number of blocks	         0	         0
	maximum number of blocks	        16	        42
	current total bytes		         0	         0
	maximum total bytes		     80104	4725685704
	maximum total K-bytes		        81	   4725686
	maximum total M-bytes		         1	      4726
 
 
                                     CITATION
                                     --------
                Please cite the following reference when publishing
                           results obtained with NWChem:
 
          E. Apra, E. J. Bylaska, W. A. de Jong, N. Govind, K. Kowalski,
       T. P. Straatsma, M. Valiev, H. J. J. van Dam, Y. Alexeev, J. Anchell,
       V. Anisimov, F. W. Aquino, R. Atta-Fynn, J. Autschbach, N. P. Bauman,
     J. C. Becca, D. E. Bernholdt, K. Bhaskaran-Nair, S. Bogatko, P. Borowski,
         J. Boschen, J. Brabec, A. Bruner, E. Cauet, Y. Chen, G. N. Chuev,
      C. J. Cramer, J. Daily, M. J. O. Deegan, T. H. Dunning Jr., M. Dupuis,
   K. G. Dyall, G. I. Fann, S. A. Fischer, A. Fonari, H. Fruchtl, L. Gagliardi,
      J. Garza, N. Gawande, S. Ghosh, K. Glaesemann, A. W. Gotz, J. Hammond,
       V. Helms, E. D. Hermes, K. Hirao, S. Hirata, M. Jacquelin, L. Jensen,
   B. G. Johnson, H. Jonsson, R. A. Kendall, M. Klemm, R. Kobayashi, V. Konkov,
      S. Krishnamoorthy, M. Krishnan, Z. Lin, R. D. Lins, R. J. Littlefield,
      A. J. Logsdail, K. Lopata, W. Ma, A. V. Marenich, J. Martin del Campo,
   D. Mejia-Rodriguez, J. E. Moore, J. M. Mullin, T. Nakajima, D. R. Nascimento,
    J. A. Nichols, P. J. Nichols, J. Nieplocha, A. Otero-de-la-Roza, B. Palmer,
    A. Panyala, T. Pirojsirikul, B. Peng, R. Peverati, J. Pittner, L. Pollack,
   R. M. Richard, P. Sadayappan, G. C. Schatz, W. A. Shelton, D. W. Silverstein,
   D. M. A. Smith, T. A. Soares, D. Song, M. Swart, H. L. Taylor, G. S. Thomas,
            V. Tipparaju, D. G. Truhlar, K. Tsemekhman, T. Van Voorhis,
      A. Vazquez-Mayagoitia, P. Verma, O. Villa, A. Vishnu, K. D. Vogiatzis,
        D. Wang, J. H. Weare, M. J. Williamson, T. L. Windus, K. Wolinski,
        A. T. Wong, Q. Wu, C. Yang, Q. Yu, M. Zacharias, Z. Zhang, Y. Zhao,
                                and R. J. Harrison
                        "NWChem: Past, present, and future
                         J. Chem. Phys. 152, 184102 (2020)
                               doi:10.1063/5.0004997
 
                                      AUTHORS
                                      -------
  E. Apra, E. J. Bylaska, N. Govind, K. Kowalski, M. Valiev, D. Mejia-Rodriguez,
       A. Kunitsa, N. P. Bauman, A. Panyala, W. A. de Jong, T. P. Straatsma,
   H. J. J. van Dam, D. Wang, T. L. Windus, J. Hammond, J. Autschbach, A. Woods,
    K. Bhaskaran-Nair, J. Brabec, K. Lopata, S. A. Fischer, S. Krishnamoorthy,
     M. Jacquelin, W. Ma, M. Klemm, O. Villa, Y. Chen, V. Anisimov, F. Aquino,
     S. Hirata, M. T. Hackler, E. Hermes, L. Jensen, J. E. Moore, J. C. Becca,
      V. Konjkov, T. Risthaus, M. Malagoli, A. Marenich, A. Otero-de-la-Roza,
        J. Mullin, P. Nichols, R. Peverati, J. Pittner, Y. Zhao, P.-D. Fan,
        A. Fonari, M. J. Williamson, R. J. Harrison, J. R. Rehr, M. Dupuis,
     D. Silverstein, D. M. A. Smith, J. Nieplocha, V. Tipparaju, M. Krishnan,
     B. E. Van Kuiken, A. Vazquez-Mayagoitia, M. Swart, Q. Wu, T. Van Voorhis,
     A. A. Auer, M. Nooijen, L. D. Crosby, E. Brown, G. Cisneros, G. I. Fann,
   H. Fruchtl, J. Garza, K. Hirao, R. A. Kendall, J. A. Nichols, K. Tsemekhman,
    K. Wolinski, J. Anchell, D. E. Bernholdt, P. Borowski, T. Clark, D. Clerc,
   H. Dachsel, M. J. O. Deegan, K. Dyall, D. Elwood, E. Glendening, M. Gutowski,
   A. C. Hess, J. Jaffe, B. G. Johnson, J. Ju, R. Kobayashi, R. Kutteh, Z. Lin,
   R. Littlefield, X. Long, B. Meng, T. Nakajima, S. Niu, L. Pollack, M. Rosing,
   K. Glaesemann, G. Sandrone, M. Stave, H. Taylor, G. Thomas, J. H. van Lenthe,
                               A. T. Wong, Z. Zhang.

 Total times  cpu:      655.8s     wall:      655.8s
