 argument  1 = input.nw
  NWChem w/ OpenMP: maximum threads =    1
 


============================== echo of input deck ==============================
 echo
 start H2O
 title "H2O"

 memory total 24 gb

 geometry units angstrom
 symmetry c1
   zmatrix
     O
     H1 O 0.97551
     H2 O 0.97551 H1 107.20
   end
 end

 basis spherical
   * library cc-pVTZ
 end

 tce
   2eorb
   2emet 13
   ccsd
   maxiter 300
 end

# set tce:print_integrals T
# set tce:qorb 8
# set tce:qela 5
# set tce:qelb 5

 set tce:qducc T
 set tce:nactv 3
 set tce:nonhf T
 set tce:ducc_model 6

 set tce:printtol 0.02

 task tce
================================================================================


                                         
                                         
 
 
             Northwest Computational Chemistry Package (NWChem) 7.2.3
             --------------------------------------------------------
 
 
                    Environmental Molecular Sciences Laboratory
                       Pacific Northwest National Laboratory
                                Richland, WA 99352
 
                              Copyright (c) 1994-2022
                       Pacific Northwest National Laboratory
                            Battelle Memorial Institute
 
             NWChem is an open-source computational chemistry package
                        distributed under the terms of the
                      Educational Community License (ECL) 2.0
             A copy of the license is included with this distribution
                              in the LICENSE.TXT file
 
                                  ACKNOWLEDGMENT
                                  --------------

            This software and its documentation were developed at the
            EMSL at Pacific Northwest National Laboratory, a multiprogram
            national laboratory, operated for the U.S. Department of Energy
            by Battelle under Contract Number DE-AC05-76RL01830. Support
            for this work was provided by the Department of Energy Office
            of Biological and Environmental Research, Office of Basic
            Energy Sciences, and the Office of Advanced Scientific Computing.


           Job information
           ---------------

    hostname        = koothan
    program         = /hpc/home/baum612/code/nwchem/bin/LINUX64/nwchem
    date            = Thu Nov 21 22:24:29 2024

    compiled        = Thu_Nov_21_17:16:59_2024
    source          = /hpc/home/baum612/code/nwchem
    nwchem branch   = 7.2.3
    nwchem revision = v7.2.0-beta1-1291-g6d839a76f0
    ga revision     = 5.8.0
    use scalapack   = T
    input           = input.nw
    prefix          = H2O.
    data base       = ./H2O.db
    status          = startup
    nproc           =        1
    time left       =     -1s



           Memory information
           ------------------

    heap     =    805306368 doubles =     6144.0 Mbytes
    stack    =    805306365 doubles =     6144.0 Mbytes
    global   =   1610612736 doubles =    12288.0 Mbytes (distinct from heap & stack)
    total    =   3221225469 doubles =    24576.0 Mbytes
    verify   = yes
    hardfail = no 


           Directory information
           ---------------------
 
  0 permanent = .
  0 scratch   = .
 
 
 
 
                                NWChem Input Module
                                -------------------
 
 
                                        H2O
                                        ---

 Scaling coordinates for geometry "geometry" by  1.889725989
 (inverse scale =  0.529177249)

 Turning off AUTOSYM since
 SYMMETRY directive was detected!
 
 
 
                             Geometry "geometry" -> ""
                             -------------------------
 
 Output coordinates in angstroms (scale by  1.889725989 to convert to a.u.)
 
  No.       Tag          Charge          X              Y              Z
 ---- ---------------- ---------- -------------- -------------- --------------
    1 O                    8.0000    -0.09318836     0.00000000    -0.06870438
    2 H1                   1.0000    -0.09318836     0.00000000     0.90680562
    3 H2                   1.0000     0.83869524     0.00000000    -0.35717054
 
      Atomic Mass 
      ----------- 
 
      O                 15.994910
      H1                 1.007825
      H2                 1.007825
 

 Effective nuclear repulsion energy (a.u.)       9.0163718192

            Nuclear Dipole moment (a.u.) 
            ----------------------------
        X                 Y               Z
 ---------------- ---------------- ----------------
     0.0000000000     0.0000000000     0.0000000000
 


                                Z-matrix (user)
                                -------- 

 Units are Angstrom for bonds and degrees for angles
 
      Type          Name      I     J     K     L     M      Value
      ----------- --------  ----- ----- ----- ----- ----- ----------
    1 Stretch                  2     1                       0.97551
    2 Stretch                  3     1                       0.97551
    3 Bend                     3     1     2               107.20000
 
 
            XYZ format geometry
            -------------------
     3
 geometry
 O                    -0.09318836     0.00000000    -0.06870438
 H1                   -0.09318836     0.00000000     0.90680562
 H2                    0.83869524     0.00000000    -0.35717054
 
 ==============================================================================
                                internuclear distances
 ------------------------------------------------------------------------------
       center one      |      center two      | atomic units |  angstroms
 ------------------------------------------------------------------------------
    2 H1               |   1 O                |     1.84345  |     0.97551
    3 H2               |   1 O                |     1.84345  |     0.97551
 ------------------------------------------------------------------------------
                         number of included internuclear distances:          2
 ==============================================================================



 ==============================================================================
                                 internuclear angles
 ------------------------------------------------------------------------------
        center 1       |       center 2       |       center 3       |  degrees
 ------------------------------------------------------------------------------
    2 H1               |   1 O                |   3 H2               |   107.20
 ------------------------------------------------------------------------------
                            number of included internuclear angles:          1
 ==============================================================================





 Summary of "ao basis" -> "" (spherical)
 ------------------------------------------------------------------------------
       Tag                 Description            Shells   Functions and Types
 ---------------- ------------------------------  ------  ---------------------
 *                          cc-pVTZ                   on all atoms 


                      Basis "ao basis" -> "ao basis" (spherical)
                      -----
  O (Oxygen)
  ----------
            Exponent  Coefficients 
       -------------- ---------------------------------------------------------
  1 S  1.53300000E+04  0.000508
  1 S  2.29900000E+03  0.003929
  1 S  5.22400000E+02  0.020243
  1 S  1.47300000E+02  0.079181
  1 S  4.75500000E+01  0.230687
  1 S  1.67600000E+01  0.433118
  1 S  6.20700000E+00  0.350260
  1 S  6.88200000E-01 -0.008154
 
  2 S  1.53300000E+04 -0.000115
  2 S  2.29900000E+03 -0.000895
  2 S  5.22400000E+02 -0.004636
  2 S  1.47300000E+02 -0.018724
  2 S  4.75500000E+01 -0.058463
  2 S  1.67600000E+01 -0.136463
  2 S  6.20700000E+00 -0.175740
  2 S  6.88200000E-01  0.603418
 
  3 S  1.75200000E+00  1.000000
 
  4 S  2.38400000E-01  1.000000
 
  5 P  3.44600000E+01  0.015928
  5 P  7.74900000E+00  0.099740
  5 P  2.28000000E+00  0.310492
 
  6 P  7.15600000E-01  1.000000
 
  7 P  2.14000000E-01  1.000000
 
  8 D  2.31400000E+00  1.000000
 
  9 D  6.45000000E-01  1.000000
 
 10 F  1.42800000E+00  1.000000
 
  H1 (Hydrogen)
  -------------
            Exponent  Coefficients 
       -------------- ---------------------------------------------------------
  1 S  3.38700000E+01  0.006068
  1 S  5.09500000E+00  0.045308
  1 S  1.15900000E+00  0.202822
 
  2 S  3.25800000E-01  1.000000
 
  3 S  1.02700000E-01  1.000000
 
  4 P  1.40700000E+00  1.000000
 
  5 P  3.88000000E-01  1.000000
 
  6 D  1.05700000E+00  1.000000
 
  H2 (Hydrogen)
  -------------
            Exponent  Coefficients 
       -------------- ---------------------------------------------------------
  1 S  3.38700000E+01  0.006068
  1 S  5.09500000E+00  0.045308
  1 S  1.15900000E+00  0.202822
 
  2 S  3.25800000E-01  1.000000
 
  3 S  1.02700000E-01  1.000000
 
  4 P  1.40700000E+00  1.000000
 
  5 P  3.88000000E-01  1.000000
 
  6 D  1.05700000E+00  1.000000
 


 Summary of "ao basis" -> "ao basis" (spherical)
 ------------------------------------------------------------------------------
       Tag                 Description            Shells   Functions and Types
 ---------------- ------------------------------  ------  ---------------------
 O                          cc-pVTZ                 10       30   4s3p2d1f
 H1                         cc-pVTZ                  6       14   3s2p1d
 H2                         cc-pVTZ                  6       14   3s2p1d


                                 NWChem SCF Module
                                 -----------------
 
 
                                        H2O
 
 

  ao basis        = "ao basis"
  functions       =    58
  atoms           =     3
  closed shells   =     5
  open shells     =     0
  charge          =   0.00
  wavefunction    = RHF 
  input vectors   = atomic
  output vectors  = ./H2O.movecs
  use symmetry    = F
  symmetry adapt  = F


 Summary of "ao basis" -> "ao basis" (spherical)
 ------------------------------------------------------------------------------
       Tag                 Description            Shells   Functions and Types
 ---------------- ------------------------------  ------  ---------------------
 O                          cc-pVTZ                 10       30   4s3p2d1f
 H1                         cc-pVTZ                  6       14   3s2p1d
 H2                         cc-pVTZ                  6       14   3s2p1d



 Forming initial guess at       0.4s

 
      Superposition of Atomic Density Guess
      -------------------------------------
 
 Sum of atomic energies:         -75.78028790
 
      Non-variational initial energy
      ------------------------------

 Total energy =     -75.907261
 1-e energy   =    -121.471194
 2-e energy   =      36.547562
 HOMO         =      -0.472130
 LUMO         =       0.061919
 

 Starting SCF solution at       0.5s



 ----------------------------------------------
         Quadratically convergent ROHF

 Convergence threshold     :          1.000E-04
 Maximum no. of iterations :           30
 Final Fock-matrix accuracy:          1.000E-07
 ----------------------------------------------


              iter       energy          gnorm     gmax       time
             ----- ------------------- --------- --------- --------
                 1      -76.0203649102  8.44D-01  2.94D-01      0.7
                 2      -76.0529011014  1.96D-01  6.17D-02      1.1
                 3      -76.0551224546  1.62D-02  6.35D-03      1.7
                 4      -76.0551460983  6.69D-05  3.39D-05      2.7


       Final RHF  results 
       ------------------ 

         Total SCF energy =    -76.055146098340
      One-electron energy =   -122.809416314720
      Two-electron energy =     37.737898397150
 Nuclear repulsion energy =      9.016371819230

        Time for solution =      2.2s


             Final eigenvalues
             -----------------

              1      
    1  -20.5565
    2   -1.3345
    3   -0.7047
    4   -0.5690
    5   -0.5021
    6    0.1407
    7    0.2018
    8    0.5414
    9    0.5816
   10    0.6742
   11    0.7877
   12    0.8033
   13    0.8122
   14    0.8517
   15    0.9646
 
                       ROHF Final Molecular Orbital Analysis
                       -------------------------------------
 
 Vector    2  Occ=2.000000D+00  E=-1.334460D+00
              MO Center=  3.5D-02, -1.3D-16,  2.6D-02, r^2= 5.1D-01
   Bfn.  Coefficient  Atom+Function         Bfn.  Coefficient  Atom+Function  
  ----- ------------  ---------------      ----- ------------  ---------------
     2      0.507206  1 O  s                  4      0.290259  1 O  s          
 
 Vector    3  Occ=2.000000D+00  E=-7.047404D-01
              MO Center=  7.8D-02,  4.3D-16,  5.8D-02, r^2= 7.8D-01
   Bfn.  Coefficient  Atom+Function         Bfn.  Coefficient  Atom+Function  
  ----- ------------  ---------------      ----- ------------  ---------------
    10      0.273752  1 O  pz                 7      0.225382  1 O  pz         
    32      0.217482  2 H  s                 46     -0.217482  3 H  s          
     8     -0.201828  1 O  px                 5     -0.166166  1 O  px         
 
 Vector    4  Occ=2.000000D+00  E=-5.689745D-01
              MO Center= -1.2D-01,  9.8D-17, -8.9D-02, r^2= 7.1D-01
   Bfn.  Coefficient  Atom+Function         Bfn.  Coefficient  Atom+Function  
  ----- ------------  ---------------      ----- ------------  ---------------
     8      0.309865  1 O  px                 4     -0.266139  1 O  s          
     5      0.252468  1 O  px                10      0.228452  1 O  pz         
    11      0.229227  1 O  px                 7      0.186136  1 O  pz         
     2     -0.172092  1 O  s                 13      0.169001  1 O  pz         
 
 Vector    5  Occ=2.000000D+00  E=-5.020910D-01
              MO Center= -6.7D-02, -9.5D-17, -4.9D-02, r^2= 6.4D-01
   Bfn.  Coefficient  Atom+Function         Bfn.  Coefficient  Atom+Function  
  ----- ------------  ---------------      ----- ------------  ---------------
     9      0.444475  1 O  py                12      0.377502  1 O  py         
     6      0.357300  1 O  py         
 
 Vector    6  Occ=0.000000D+00  E= 1.407033D-01
              MO Center=  4.9D-01, -8.7D-17,  3.6D-01, r^2= 3.7D+00
   Bfn.  Coefficient  Atom+Function         Bfn.  Coefficient  Atom+Function  
  ----- ------------  ---------------      ----- ------------  ---------------
     4      1.508284  1 O  s                 33     -0.913852  2 H  s          
    47     -0.913852  3 H  s                 11      0.363260  1 O  px         
    32     -0.270846  2 H  s                 46     -0.270846  3 H  s          
    13      0.267818  1 O  pz                39      0.174413  2 H  pz         
    51      0.165842  3 H  px                 8      0.153149  1 O  px         
 
 Vector    7  Occ=0.000000D+00  E= 2.018254D-01
              MO Center=  5.5D-01,  2.0D-16,  4.0D-01, r^2= 4.7D+00
   Bfn.  Coefficient  Atom+Function         Bfn.  Coefficient  Atom+Function  
  ----- ------------  ---------------      ----- ------------  ---------------
    33      1.710489  2 H  s                 47     -1.710489  3 H  s          
    13     -0.678846  1 O  pz                11      0.500488  1 O  px         
    39     -0.165368  2 H  pz                10     -0.163361  1 O  pz         
    51      0.160028  3 H  px         
 
 Vector    8  Occ=0.000000D+00  E= 5.414448D-01
              MO Center=  4.4D-02, -3.9D-17,  3.2D-02, r^2= 2.3D+00
   Bfn.  Coefficient  Atom+Function         Bfn.  Coefficient  Atom+Function  
  ----- ------------  ---------------      ----- ------------  ---------------
    32      1.500950  2 H  s                 46     -1.500950  3 H  s          
    13     -0.952135  1 O  pz                11      0.701974  1 O  px         
    33     -0.624297  2 H  s                 47      0.624297  3 H  s          
    10     -0.214806  1 O  pz                 8      0.158368  1 O  px         
 
 Vector    9  Occ=0.000000D+00  E= 5.815589D-01
              MO Center=  4.3D-01,  2.7D-17,  3.2D-01, r^2= 2.1D+00
   Bfn.  Coefficient  Atom+Function         Bfn.  Coefficient  Atom+Function  
  ----- ------------  ---------------      ----- ------------  ---------------
    32      1.268906  2 H  s                 46      1.268906  3 H  s          
    33     -0.608809  2 H  s                 47     -0.608809  3 H  s          
     4     -0.449018  1 O  s                 11     -0.397605  1 O  px         
    13     -0.293140  1 O  pz                53     -0.226823  3 H  pz         
     2     -0.190630  1 O  s                 37     -0.187004  2 H  px         
 
 Vector   10  Occ=0.000000D+00  E= 6.741691D-01
              MO Center= -2.7D-01,  1.0D-16, -2.0D-01, r^2= 2.3D+00
   Bfn.  Coefficient  Atom+Function         Bfn.  Coefficient  Atom+Function  
  ----- ------------  ---------------      ----- ------------  ---------------
     4      4.448931  1 O  s                 32     -2.222913  2 H  s          
    46     -2.222913  3 H  s                 11      2.074703  1 O  px         
    13      1.529603  1 O  pz                39      1.124763  2 H  pz         
    51      1.050502  3 H  px                33     -0.444782  2 H  s          
    47     -0.444782  3 H  s                 53     -0.410001  3 H  pz         
 
 Vector   11  Occ=0.000000D+00  E= 7.876907D-01
              MO Center= -5.7D-02, -3.2D-15, -4.2D-02, r^2= 1.7D+00
   Bfn.  Coefficient  Atom+Function         Bfn.  Coefficient  Atom+Function  
  ----- ------------  ---------------      ----- ------------  ---------------
    12      1.135687  1 O  py                 9     -0.775160  1 O  py         
     6     -0.259296  1 O  py         
 
 Vector   12  Occ=0.000000D+00  E= 8.033470D-01
              MO Center= -6.9D-02, -2.7D-15, -5.1D-02, r^2= 3.0D+00
   Bfn.  Coefficient  Atom+Function         Bfn.  Coefficient  Atom+Function  
  ----- ------------  ---------------      ----- ------------  ---------------
    13      2.391769  1 O  pz                11     -1.763364  1 O  px         
    32     -1.580347  2 H  s                 46      1.580347  3 H  s          
    33     -1.419771  2 H  s                 47      1.419771  3 H  s          
    39      1.150833  2 H  pz                51     -1.105754  3 H  px         
    21      0.368624  1 O  d  0              53      0.319674  3 H  pz         
 
 Vector   13  Occ=0.000000D+00  E= 8.122078D-01
              MO Center=  1.3D-01,  2.2D-15,  9.5D-02, r^2= 2.1D+00
   Bfn.  Coefficient  Atom+Function         Bfn.  Coefficient  Atom+Function  
  ----- ------------  ---------------      ----- ------------  ---------------
    11      1.130195  1 O  px                32     -1.021870  2 H  s          
    46     -1.021870  3 H  s                 37     -0.886551  2 H  px         
    53     -0.861601  3 H  pz                13      0.833252  1 O  pz         
     4      0.753046  1 O  s                 33      0.254807  2 H  s          
    47      0.254807  3 H  s                 51     -0.214677  3 H  px         
 
 Vector   14  Occ=0.000000D+00  E= 8.516775D-01
              MO Center=  3.6D-01,  1.8D-15,  2.7D-01, r^2= 1.7D+00
   Bfn.  Coefficient  Atom+Function         Bfn.  Coefficient  Atom+Function  
  ----- ------------  ---------------      ----- ------------  ---------------
    38      0.833581  2 H  py                52     -0.833581  3 H  py         
 
 Vector   15  Occ=0.000000D+00  E= 9.645680D-01
              MO Center=  1.6D-01, -1.2D-15,  1.2D-01, r^2= 2.0D+00
   Bfn.  Coefficient  Atom+Function         Bfn.  Coefficient  Atom+Function  
  ----- ------------  ---------------      ----- ------------  ---------------
    12      1.160559  1 O  py                38     -1.000901  2 H  py         
    52     -1.000901  3 H  py         
 

 center of mass
 --------------
 x =  -0.07755914 y =   0.00000000 z =  -0.05718153

 moments of inertia (a.u.)
 ------------------
           3.629307697493           0.000000000000           1.096413830474
           0.000000000000           6.579821843898           0.000000000000
           1.096413830474           0.000000000000           2.950514146406
 
  Mulliken analysis of the total density
  --------------------------------------

    Atom       Charge   Shell Charges
 -----------   ------   -------------------------------------------------------
    1 O    8     8.50   1.95  1.00  0.23  0.60  1.26  2.14  1.30  0.00  0.02  0.00
    2 H    1     0.75   0.25  0.37  0.04  0.02  0.06  0.01
    3 H    1     0.75   0.25  0.37  0.04  0.02  0.06  0.01
 
       Multipole analysis of the density wrt the origin
       ------------------------------------------------
 
     L   x y z        total         open         nuclear
     -   - - -        -----         ----         -------
     0   0 0 0     -0.000000      0.000000     10.000000
 
     1   1 0 0      0.631958      0.000000      0.000000
     1   0 1 0     -0.000000      0.000000      0.000000
     1   0 0 1      0.465920      0.000000      0.000000
 
     2   2 0 0     -4.003513      0.000000      2.791024
     2   1 1 0      0.000000      0.000000      0.000000
     2   1 0 1     -0.762665      0.000000     -1.188598
     2   0 2 0     -5.455848      0.000000      0.000000
     2   0 1 1      0.000000      0.000000      0.000000
     2   0 0 2     -3.531344      0.000000      3.526889
 
                   NWChem Extensible Many-Electron Theory Module
                   ---------------------------------------------
 
              ======================================================
                   This portion of the program was automatically
                  generated by a Tensor Contraction Engine (TCE).
                  The development of this portion of the program
                 and TCE was supported by US Department of Energy,
                Office of Science, Office of Basic Energy Science.
                      TCE is a product of Battelle and PNNL.
              Please cite: S.Hirata, J.Phys.Chem.A 107, 9887 (2003).
              ======================================================
 
                                        H2O
 
 
            General Information
            -------------------
      Number of processors :     1
         Wavefunction type : Restricted Hartree-Fock
          No. of electrons :    10
           Alpha electrons :     5
            Beta electrons :     5
           No. of orbitals :   116
            Alpha orbitals :    58
             Beta orbitals :    58
        Alpha frozen cores :     0
         Beta frozen cores :     0
     Alpha frozen virtuals :     0
      Beta frozen virtuals :     0
         Spin multiplicity : singlet 
    Number of AO functions :    58
       Number of AO shells :    22
        Use of symmetry is : off
      Symmetry adaption is : off
         Schwarz screening : 0.10D-09
 
          Correlation Information
          -----------------------
          Calculation type : Coupled-cluster singles & doubles                           
   Perturbative correction : none                                                        
            Max iterations :      300
        Residual threshold : 0.10D-06
     T(0) DIIS level shift : 0.00D+00
     L(0) DIIS level shift : 0.00D+00
     T(1) DIIS level shift : 0.00D+00
     L(1) DIIS level shift : 0.00D+00
     T(R) DIIS level shift : 0.00D+00
     T(I) DIIS level shift : 0.00D+00
   CC-T/L Amplitude update :  5-th order DIIS
                I/O scheme : Global Array Library
        L-threshold :  0.10D-06
        EOM-threshold :  0.10D-06
 no EOMCCSD initial starts read in
 TCE RESTART OPTIONS
 READ_INT:   F
 WRITE_INT:  F
 READ_TA:    F
 WRITE_TA:   F
 READ_XA:    F
 WRITE_XA:   F
 READ_IN3:   F
 WRITE_IN3:  F
 SLICE:      F
 D4D5:       F
 quantumc:   F
 qrotation:  F
 pwtce:      F
 qducc:      T
 nacto:                          0
 nrotv:                          0
 nrot:                           0
 
            Memory Information
            ------------------
          Available GA space size is    1610609372 doubles
          Available MA space size is    1610609756 doubles
 
 Maximum block size        32 doubles

 tile_dim =     27

 Block   Spin    Irrep     Size     Offset   Alpha
 -------------------------------------------------
   1    alpha     a      5 doubles       0       1
   2    beta      a      5 doubles       5       1
   3    alpha     a     26 doubles      10       3
   4    alpha     a     27 doubles      36       4
   5    beta      a     26 doubles      63       3
   6    beta      a     27 doubles      89       4

 Global array virtual files algorithm will be used

 Parallel file system coherency ......... OK
 
 Fock matrix recomputed
 1-e file size   =             3364
 1-e file name   = ./H2O.f1
 Cpu & wall time / sec            0.1            0.1
 4-electron integrals stored in orbital form
 
 v2    file size   =          3631290
 4-index algorithm nr.  13 is used
 imaxsize =       30
 imaxsize ichop =        0
 Cpu & wall time / sec            1.4            1.4
 T1-number-of-tasks                     2
 
 t1 file size   =              265
 t1 file name   = ./H2O.t1
 t1 file handle =       -998
 T2-number-of-boxes                     7
 
 t2 file size   =           122900
 t2 file name   = ./H2O.t2
 t2 file handle =       -996
CCSD iterations
 ---------------------------------------------------------
 Iter          Residuum       Correlation     Cpu    Wall 
 ---------------------------------------------------------
NEW TASK SCHEDULING
CCSD_T1_NTS --- OK
CCSD_T2_NTS --- OK
    1   0.1389535302741  -0.2760374625378     0.2     0.2
    2   0.0306051645100  -0.2771402350194     0.2     0.2
    3   0.0104124647447  -0.2808973358942     0.2     0.2
    4   0.0041322112596  -0.2813275487767     0.2     0.2
    5   0.0017208004566  -0.2815950937339     0.2     0.2
 MICROCYCLE DIIS UPDATE:                     5                     5
    6   0.0003439435223  -0.2817192076067     0.2     0.2
    7   0.0001398420063  -0.2817317961551     0.2     0.2
    8   0.0000555123609  -0.2817311513909     0.2     0.2
    9   0.0000314712511  -0.2817313596184     0.2     0.2
   10   0.0000159805243  -0.2817316339622     0.2     0.2
 MICROCYCLE DIIS UPDATE:                    10                     5
   11   0.0000030712829  -0.2817321575612     0.2     0.2
   12   0.0000013612278  -0.2817319492997     0.2     0.2
   13   0.0000006377147  -0.2817319726112     0.2     0.2
   14   0.0000003726904  -0.2817319607619     0.2     0.2
   15   0.0000002018115  -0.2817319593252     0.2     0.2
 MICROCYCLE DIIS UPDATE:                    15                     5
   16   0.0000000343163  -0.2817319545039     0.2     0.2
 -----------------------------------------------------------------
 Iterations converged
 CCSD correlation energy / hartree =        -0.281731954503887
 CCSD total energy / hartree       =       -76.336878052843602

 Singles contributions

 Doubles contributions
     7a   (alpha)     7a   (beta ) ---     3a   (alpha)     3a   (beta )       -0.0202774548
     8a   (alpha)     8a   (beta ) ---     3a   (alpha)     3a   (beta )       -0.0275490546
     8a   (alpha)     8a   (beta ) ---     4a   (alpha)     4a   (beta )       -0.0222700779
     9a   (alpha)     9a   (beta ) ---     3a   (alpha)     3a   (beta )       -0.0269192541
    10a   (alpha)    10a   (beta ) ---     4a   (alpha)     4a   (beta )       -0.0303510384
    10a   (alpha)    11a   (beta ) ---     4a   (alpha)     5a   (beta )       -0.0263207113
    11a   (alpha)    10a   (beta ) ---     5a   (alpha)     4a   (beta )       -0.0263207113
    11a   (alpha)    11a   (beta ) ---     5a   (alpha)     5a   (beta )       -0.0478276406
    11a   (alpha)    12a   (beta ) ---     5a   (alpha)     3a   (beta )       -0.0221758766
    12a   (alpha)    11a   (beta ) ---     3a   (alpha)     5a   (beta )       -0.0221758766
    12a   (alpha)    12a   (beta ) ---     3a   (alpha)     3a   (beta )       -0.0224404341
 Ground state specification:
 exp(T)|Ref>~(1+T)|Ref>
 ------- a(p)+/a(q) strings ----------

 singles norm

 doubles norm

 Reference string
   1.00000000000000      :(1a)+ (2a)+ (3a)+ (4a)+ (5a)+ (1b)+ (2b)+ (3b)+ (4b)+ 
 (5b)+ |0>

 Singles strings

 Doubles strings
 -------------------------------------
 enrep_tce =    9.01637181922982     
  EHF(total)         =       -76.05514610
  Shift (HFtot-HFA)  =         0.00000000
 ALL OCCUPIED ORBITALS ARE ACTIVE IN DUCC --> NO SHIFT
 Number of active orbitals                     8
 Number of active alpha electrons                     5
 Number of active beta electrons                     5
  nos                     10
  nvs                    106
 noas                      5
 nobs                      5
 nvas                     53
 nvbs                     53
 nactv                      3
 DUCC MODEL =                      6
 NONHF =  T
 F-T1 correlation    =   1.171189082721425E-007
 V-T1-T1 correlation =   3.403184466125605E-005
 V-T2 correlation    =  -0.281766103467536     
 Total correlation   =  -0.281731954503967     
 F-T1(Ext) correlation         =   1.182094459020317E-007
 V-T1(Ext)-T1(Ext) correlation =   3.143092967251807E-005
 V-T2(Ext) correlation         =  -0.273890958860721     
 Total Ext correlation         =  -0.273859409721603     
1-BODY TIME =  279.872 SECONDS.
  HHHH TIME =  268.609 SECONDS.
  PPPP TIME =    2.816 SECONDS.
  HHHP TIME =   20.856 SECONDS.
  PPPH TIME =    5.237 SECONDS.
  HPHP TIME =   19.469 SECONDS.
  HHPP TIME =   11.533 SECONDS.
 ONE-BODY UNITARY CHECK
 TWO-BODY UNITARY CHECK
                     1                     3                     2
                     3 -1.350485695494896E-012
                     1                     3                     3
                     2  2.262797588192811E-012
                     1                     4                     2
                     4 -1.274105820847637E-012
                     1                     4                     4
                     2  1.619142320219424E-012
                     1                     5                     2
                     5 -1.160155305157673E-012
                     1                     6                     2
                     9  1.308422120649411E-012
                     1                     6                     3
                     8  1.423965112490322E-012
                     1                     6                     5
                    10 -2.074430904830393E-012
                     1                     6                     7
                     4 -1.353292478079027E-012
                     1                     6                     8
                     3 -1.423965112490322E-012
                     1                     6                    10
                     5  2.074430904830393E-012
                     1                     7                     2
                     7 -1.514061445662129E-012
                     1                     7                     5
                    10 -2.417656352893260E-012
                     1                     7                     7
                     2  1.734468471625839E-012
                     1                     7                     9
                     4  1.027750801130267E-012
                     1                     7                    10
                     5  2.937924209467369E-012
                     1                     8                     2
                     8 -2.645326666050885E-012
                     1                     8                     3
                     7 -1.144698918986720E-012
                     1                     8                     7
                     3  1.294742091317858E-012
                     1                     8                     8
                     2  3.407604060035041E-012
                     1                     9                     2
                     9 -2.527072301417022E-012
                     1                     9                     3
                     8 -1.712391079627951E-012
                     1                     9                     7
                     2  1.253683788726700E-012
                     1                     9                     7
                     4  1.252935255546817E-012
                     1                     9                     8
                     3  1.840085375737210E-012
                     1                     9                     9
                     2  2.453639721955447E-012
                     1                    10                     2
                    10 -2.093793888269246E-012
                     1                    10                     5
                     7 -2.005534627258498E-012
                     1                    10                    10
                     2  2.924866945863691E-012
                     2                     2                     2
                     4  7.183069438777596E-012
                     2                     2                     4
                     2 -7.183056533277733E-012
                     2                     3                     1
                     3  1.350485695494896E-012
                     2                     3                     3
                     2 -1.832867191353671E-012
                     2                     3                     3
                     4  2.085740477900111E-011
                     2                     3                     4
                     3 -1.664429618436492E-011
                     2                     4                     1
                     4  1.274105820847637E-012
                     2                     4                     2
                     2 -7.183069438777596E-012
                     2                     4                     3
                     3  3.202255069462042E-012
                     2                     4                     4
                     2  1.444067088129941E-012
                     2                     4                     4
                     4  2.936575889154573E-012
                     2                     5                     1
                     5  1.160155305157673E-012
                     2                     5                     4
                     5 -1.687629463259510E-011
                     2                     5                     5
                     2  1.575561903166545E-011
                     2                     5                     5
                     4  2.381825726233133E-011
                     2                     6                     4
                     9 -1.366774748934318E-012
                     2                     6                     5
                    10 -2.612101507315501E-012
                     2                     6                    10
                     5  2.091833650741393E-012
                     2                     7                     1
                     7  1.514061445662129E-012
                     2                     7                     2
                     9  3.791075092740570E-012
                     2                     7                     3
                     8 -9.739070661041183E-012
                     2                     7                     4
                     6  1.042508961102140E-012
                     2                     7                     4
                     7 -1.461987822470867E-011
                     2                     7                     4
                     9 -9.945183565562843E-012
                     2                     7                     5
                    10 -4.366680628198338E-011
                     2                     7                     6
                     2 -1.734473675796266E-012
                     2                     7                     6
                     4 -1.253682921364963E-012
                     2                     7                     7
                     4  3.392012365432961E-012
                     2                     7                     8
                     3  9.739070661041183E-012
                     2                     7                     9
                     2  7.436792501258616E-012
                     2                     7                     9
                     4  9.945169687775035E-012
                     2                     7                    10
                     5  4.366680628198338E-011
                     2                     8                     1
                     8  2.645326666050885E-012
                     2                     8                     3
                     7 -7.663092382870218E-012
                     2                     8                     3
                     9 -1.238727523333871E-011
                     2                     8                     4
                     8 -2.776671947923859E-011
                     2                     8                     6
                     3 -1.294735152423954E-012
                     2                     8                     8
                     2  5.827005544745134E-012
                     2                     8                     8
                     4  3.324474029398061E-011
                     2                     8                     9
                     3  1.112233569133814E-011
                     2                     9                     1
                     6 -1.308422120649411E-012
                     2                     9                     1
                     9  2.527072301417022E-012
                     2                     9                     2
                     7 -3.791075092740570E-012
                     2                     9                     3
                     8 -1.894416915004804E-011
                     2                     9                     4
                     7 -6.175976396960436E-012
                     2                     9                     4
                     9 -4.202412029474800E-011
                     2                     9                     5
                    10 -8.184130456667660E-012
                     2                     9                     6
                     1  1.353278600291219E-012
                     2                     9                     6
                     4 -1.252869336054729E-012
                     2                     9                     7
                     2 -3.391986344580822E-012
                     2                     9                     8
                     3  2.214641837972042E-011
                     2                     9                     9
                     2  7.620015729514762E-012
                     2                     9                     9
                     4  4.496071570603277E-011
                     2                     9                    10
                     5  8.573232401776210E-012
                     2                    10                     1
                    10  2.093793888269246E-012
                     2                    10                     4
                    10 -1.884551542596924E-011
                     2                    10                     5
                     6 -1.267590199471869E-012
                     2                    10                     5
                     7 -3.587452557241022E-011
                     2                    10                     5
                     9 -9.468838907400468E-012
                     2                    10                     9
                     5  1.969070739793466E-012
                     2                    10                    10
                     2  5.162947847026089E-011
                     2                    10                    10
                     4  3.328723408024814E-011
                     3                     1                     3
                     2 -1.508772273783876E-012
                     3                     1                     3
                     4 -1.088270099036670E-012
                     3                     2                     1
                     3 -2.262797588192811E-012
                     3                     2                     2
                     3  1.832867191353671E-012
                     3                     2                     3
                     1  1.508772273783876E-012
                     3                     2                     3
                     4 -2.351927680388499E-012
                     3                     2                     4
                     3 -1.861169638545102E-012
                     3                     3                     2
                     4 -3.202255069462042E-012
                     3                     3                     4
                     2  3.202253518703534E-012
                     3                     4                     2
                     3 -2.085740477900111E-011
                     3                     4                     3
                     1  1.088270099036670E-012
                     3                     4                     3
                     2  2.351927680388499E-012
                     3                     4                     4
                     3  2.007194410680313E-011
                     3                     5                     5
                     3  5.388378632176227E-011
                     3                     6                     3
                     9 -1.069972235812067E-012
                     3                     7                     1
                     8  1.144698918986720E-012
                     3                     7                     2
                     8  7.663092382870218E-012
                     3                     7                     4
                     8  2.830692277799862E-012
                     3                     7                     6
                     3 -3.407606662120255E-012
                     3                     7                     7
                     3 -5.827005544745134E-012
                     3                     7                     8
                     4 -1.565752735799286E-012
                     3                     7                     9
                     3 -4.691696683933877E-012
                     3                     8                     1
                     6 -1.423965112490322E-012
                     3                     8                     1
                     9  1.712391079627951E-012
                     3                     8                     2
                     7  9.739070661041183E-012
                     3                     8                     2
                     9  1.894416915004804E-011
                     3                     8                     4
                     6  1.618311821355300E-012
                     3                     8                     4
                     7  1.576449387696854E-011
                     3                     8                     5
                    10 -3.264056039342655E-011
                     3                     8                     6
                     1  1.424037970876313E-012
                     3                     8                     6
                     4 -1.840086243098948E-012
                     3                     8                     7
                     2 -9.739070661041183E-012
                     3                     8                     7
                     4 -2.214644440057256E-011
                     3                     8                     9
                     1 -1.490616657884303E-012
                     3                     8                     9
                     2 -1.256221689172055E-011
                     3                     8                    10
                     5  3.264053957674484E-011
                     3                     9                     2
                     8  1.238727523333871E-011
                     3                     9                     3
                     6  1.069972235812067E-012
                     3                     9                     4
                     8  1.222584533611126E-012
                     3                     9                     7
                     3 -3.324478192734404E-011
                     3                     9                     8
                     2  1.565678142689819E-012
                     3                     9                     9
                     3  1.884903344517852E-011
                     3                    10                     5
                     8 -2.468903900765262E-011
                     3                    10                    10
                     3  7.857403616640113E-011
                     4                     2                     1
                     4 -1.619142320219424E-012
                     4                     2                     2
                     2  7.183056533277733E-012
                     4                     2                     2
                     4 -1.444067088129941E-012
                     4                     2                     3
                     3 -3.202253518703534E-012
                     4                     2                     4
                     4 -2.936583803195157E-012
                     4                     3                     2
                     3  1.664429618436492E-011
                     4                     3                     3
                     2  1.861169638545102E-012
                     4                     3                     3
                     4 -2.007194410680313E-011
                     4                     4                     2
                     4 -2.936575889154573E-012
                     4                     4                     4
                     2  2.936583803195157E-012
                     4                     5                     2
                     5  1.687629463259510E-011
                     4                     5                     5
                     2  1.090070655268560E-011
                     4                     5                     5
                     4  4.137401532489093E-011
                     4                     6                     2
                     7 -1.042508961102140E-012
                     4                     6                     3
                     8 -1.618311821355300E-012
                     4                     6                     8
                     3  1.490617525246041E-012
                     4                     6                     9
                     4  1.092905280164480E-012
                     4                     7                     2
                     7  1.461987822470867E-011
                     4                     7                     2
                     9  6.175976396960436E-012
                     4                     7                     3
                     8 -1.576449387696854E-011
                     4                     7                     4
                     9  4.202707626355107E-012
                     4                     7                     5
                    10 -4.087140348385532E-012
                     4                     7                     6
                     4 -2.453650130296303E-012
                     4                     7                     7
                     2 -7.436815052663803E-012
                     4                     7                     7
                     4 -7.620015729514762E-012
                     4                     7                     8
                     3  1.256224464729616E-011
                     4                     7                     9
                     4 -7.139608348971649E-012
                     4                     7                    10
                     5  3.698045342170886E-012
                     4                     8                     2
                     8  2.776671947923859E-011
                     4                     8                     3
                     7 -2.830692277799862E-012
                     4                     8                     3
                     9 -1.222584533611126E-012
                     4                     8                     7
                     3 -1.112225936350519E-011
                     4                     8                     8
                     2  4.691724439509493E-012
                     4                     8                     8
                     4 -1.884903344517852E-011
                     4                     9                     2
                     6  1.366774748934318E-012
                     4                     9                     2
                     7  9.945183565562843E-012
                     4                     9                     2
                     9  4.202412029474800E-011
                     4                     9                     4
                     7 -4.202707626355107E-012
                     4                     9                     5
                    10 -3.825440311744366E-011
                     4                     9                     6
                     2 -1.027747331683315E-012
                     4                     9                     7
                     2 -9.945183565562843E-012
                     4                     9                     7
                     4 -4.496020222788388E-011
                     4                     9                     9
                     1 -1.092863646801057E-012
                     4                     9                     9
                     2  7.139691615698496E-012
                     4                     9                    10
                     5  3.825441699523147E-011
                     4                    10                     2
                    10  1.884551542596924E-011
                     4                    10                     5
                     7 -4.203640907585182E-012
                     4                    10                     5
                     9 -1.902017432442449E-011
                     4                    10                     7
                     5 -1.969056862005658E-012
                     4                    10                    10
                     2  1.510416097749712E-011
                     4                    10                    10
                     4  6.039324595974449E-011
                     5                     2                     2
                     5 -1.575561903166545E-011
                     5                     2                     4
                     5 -1.090070655268560E-011
                     5                     2                     5
                     4  3.958740453502418E-012
                     5                     3                     3
                     5 -5.388378632176227E-011
                     5                     4                     2
                     5 -2.381825726233133E-011
                     5                     4                     4
                     5 -4.137401532489093E-011
                     5                     4                     5
                     2 -3.958740453502418E-012
                     5                     6                     2
                    10  1.267590199471869E-012
                     5                     7                     1
                    10  2.005534627258498E-012
                     5                     7                     2
                    10  3.587452557241022E-011
                     5                     7                     4
                    10  4.203640907585182E-012
                     5                     7                     6
                     5 -2.924873884757595E-012
                     5                     7                     7
                     5 -5.162947847026089E-011
                     5                     7                     9
                     5 -1.510414016081540E-011
                     5                     7                    10
                     4  3.296127260021819E-012
                     5                     8                     3
                    10  2.468903900765262E-011
                     5                     8                     8
                     5 -7.857403616640113E-011
                     5                     9                     2
                    10  9.468838907400468E-012
                     5                     9                     4
                    10  1.902017432442449E-011
                     5                     9                     7
                     5 -3.328726183582376E-011
                     5                     9                     9
                     5 -6.039324595974449E-011
                     5                     9                    10
                     2 -3.296141137809627E-012
                     5                    10                     1
                     6  2.074430904830393E-012
                     5                    10                     1
                     7  2.417656352893260E-012
                     5                    10                     2
                     6  2.612101507315501E-012
                     5                    10                     2
                     7  4.366680628198338E-011
                     5                    10                     2
                     9  8.184130456667660E-012
                     5                    10                     3
                     8  3.264056039342655E-011
                     5                    10                     4
                     7  4.087140348385532E-012
                     5                    10                     4
                     9  3.825440311744366E-011
                     5                    10                     6
                     1 -2.074430904830393E-012
                     5                    10                     6
                     2 -2.937861759422233E-012
                     5                    10                     7
                     1 -2.091896100786528E-012
                     5                    10                     7
                     2 -4.366680628198338E-011
                     5                    10                     7
                     4 -8.573267096245729E-012
                     5                    10                     8
                     3 -3.264060202678998E-011
                     5                    10                     9
                     2 -3.698007178254414E-012
                     5                    10                     9
                     4 -3.825462516204858E-011
                     6                     1                     2
                     9 -1.353278600291219E-012
                     6                     1                     3
                     8 -1.424037970876313E-012
                     6                     1                     5
                    10  2.074430904830393E-012
                     6                     1                     7
                     4  1.308435998437218E-012
                     6                     1                     8
                     3  1.424037970876313E-012
                     6                     1                    10
                     5 -2.074430904830393E-012
                     6                     2                     2
                     7  1.734473675796266E-012
                     6                     2                     4
                     9  1.027747331683315E-012
                     6                     2                     5
                    10  2.937861759422233E-012
                     6                     2                     7
                     2 -1.514066649832557E-012
                     6                     2                    10
                     5 -2.417593902848125E-012
                     6                     3                     2
                     8  1.294735152423954E-012
                     6                     3                     3
                     7  3.407606662120255E-012
                     6                     3                     7
                     3 -2.645329268136098E-012
                     6                     3                     8
                     2 -1.144691980092816E-012
                     6                     4                     2
                     7  1.253682921364963E-012
                     6                     4                     2
                     9  1.252869336054729E-012
                     6                     4                     3
                     8  1.840086243098948E-012
                     6                     4                     4
                     7  2.453650130296303E-012
                     6                     4                     7
                     4 -2.527082709757877E-012
                     6                     4                     8
                     3 -1.712391946989689E-012
                     6                     5                     5
                     7  2.924873884757595E-012
                     6                     5                     7
                     5 -2.093800827163150E-012
                     6                     5                    10
                     2 -2.005562382834114E-012
                     6                     8                     7
                     8 -1.350485695494896E-012
                     6                     8                     8
                     7  2.262797588192811E-012
                     6                     9                     7
                     9 -1.274105820847637E-012
                     6                     9                     9
                     7  1.619142320219424E-012
                     6                    10                     7
                    10 -1.160155305157673E-012
                     7                     1                     5
                    10  2.091896100786528E-012
                     7                     1                     9
                     4 -1.366778218381270E-012
                     7                     1                    10
                     5 -2.612163957360636E-012
                     7                     2                     1
                     7 -1.734468471625839E-012
                     7                     2                     1
                     9 -1.253683788726700E-012
                     7                     2                     2
                     9  3.391986344580822E-012
                     7                     2                     3
                     8  9.739070661041183E-012
                     7                     2                     4
                     7  7.436815052663803E-012
                     7                     2                     4
                     9  9.945183565562843E-012
                     7                     2                     5
                    10  4.366680628198338E-011
                     7                     2                     6
                     2  1.514066649832557E-012
                     7                     2                     7
                     4  3.791050806611906E-012
                     7                     2                     8
                     3 -9.739070661041183E-012
                     7                     2                     9
                     1  1.042509828463878E-012
                     7                     2                     9
                     2 -1.461985393858001E-011
                     7                     2                     9
                     4 -9.945169687775035E-012
                     7                     2                    10
                     5 -4.366680628198338E-011
                     7                     3                     1
                     8 -1.294742091317858E-012
                     7                     3                     3
                     7  5.827005544745134E-012
                     7                     3                     3
                     9  3.324478192734404E-011
                     7                     3                     4
                     8  1.112225936350519E-011
                     7                     3                     6
                     3  2.645329268136098E-012
                     7                     3                     8
                     2 -7.662592782509137E-012
                     7                     3                     8
                     4 -1.238719890550577E-011
                     7                     3                     9
                     3 -2.776673682647335E-011
                     7                     4                     1
                     6  1.353292478079027E-012
                     7                     4                     1
                     9 -1.252935255546817E-012
                     7                     4                     2
                     7 -3.392012365432961E-012
                     7                     4                     3
                     8  2.214644440057256E-011
                     7                     4                     4
                     7  7.620015729514762E-012
                     7                     4                     4
                     9  4.496020222788388E-011
                     7                     4                     5
                    10  8.573267096245729E-012
                     7                     4                     6
                     1 -1.308435998437218E-012
                     7                     4                     6
                     4  2.527082709757877E-012
                     7                     4                     7
                     2 -3.791050806611906E-012
                     7                     4                     8
                     3 -1.894419517090018E-011
                     7                     4                     9
                     2 -6.175948641384821E-012
                     7                     4                     9
                     4 -4.202352354987227E-011
                     7                     4                    10
                     5 -8.184165151137179E-012
                     7                     5                     4
                    10  1.969056862005658E-012
                     7                     5                     5
                     7  5.162947847026089E-011
                     7                     5                     5
                     9  3.328726183582376E-011
                     7                     5                     6
                     5  2.093800827163150E-012
                     7                     5                     9
                     5 -1.884554318154485E-011
                     7                     5                    10
                     1 -1.267614485600532E-012
                     7                     5                    10
                     2 -3.587419250550283E-011
                     7                     5                    10
                     4 -9.468825029612660E-012
                     7                     7                     7
                     9  7.183069306688433E-012
                     7                     7                     9
                     7 -7.183059716475525E-012
                     7                     8                     6
                     8  1.350485695494896E-012
                     7                     8                     8
                     7 -1.837530128057097E-012
                     7                     8                     8
                     9  2.085740044219242E-011
                     7                     8                     9
                     8 -1.664429748540752E-011
                     7                     9                     6
                     9  1.274105820847637E-012
                     7                     9                     7
                     7 -7.183069306688433E-012
                     7                     9                     8
                     8  3.202254609521497E-012
                     7                     9                     9
                     7  1.444067088129941E-012
                     7                     9                     9
                     9  2.936570634096614E-012
                     7                    10                     6
                    10  1.160155305157673E-012
                     7                    10                     9
                    10 -1.687629636731858E-011
                     7                    10                    10
                     7  1.575561903166545E-011
                     7                    10                    10
                     9  2.381828154846000E-011
                     8                     1                     8
                     4 -1.069964429556425E-012
                     8                     2                     1
                     8 -3.407604060035041E-012
                     8                     2                     2
                     8 -5.827005544745134E-012
                     8                     2                     3
                     9 -1.565678142689819E-012
                     8                     2                     4
                     8 -4.691724439509493E-012
                     8                     2                     6
                     3  1.144691980092816E-012
                     8                     2                     7
                     3  7.662592782509137E-012
                     8                     2                     9
                     3  2.830617684690395E-012
                     8                     3                     1
                     6  1.423965112490322E-012
                     8                     3                     1
                     9 -1.840085375737210E-012
                     8                     3                     2
                     7 -9.739070661041183E-012
                     8                     3                     2
                     9 -2.214641837972042E-011
                     8                     3                     4
                     6 -1.490617525246041E-012
                     8                     3                     4
                     7 -1.256224464729616E-011
                     8                     3                     5
                    10  3.264060202678998E-011
                     8                     3                     6
                     1 -1.424037970876313E-012
                     8                     3                     6
                     4  1.712391946989689E-012
                     8                     3                     7
                     2  9.739070661041183E-012
                     8                     3                     7
                     4  1.894419517090018E-011
                     8                     3                     9
                     1  1.618310953993563E-012
                     8                     3                     9
                     2  1.576446612139293E-011
                     8                     3                    10
                     5 -3.264058121010827E-011
                     8                     4                     2
                     8 -3.324474029398061E-011
                     8                     4                     3
                     7  1.565752735799286E-012
                     8                     4                     4
                     8  1.884903344517852E-011
                     8                     4                     7
                     3  1.238719890550577E-011
                     8                     4                     8
                     1  1.069964429556425E-012
                     8                     4                     9
                     3  1.222619228080646E-012
                     8                     5                     5
                     8  7.857403616640113E-011
                     8                     5                    10
                     3 -2.468903900765262E-011
                     8                     6                     8
                     7 -1.508772273783876E-012
                     8                     6                     8
                     9 -1.088270099036670E-012
                     8                     7                     6
                     8 -2.262797588192811E-012
                     8                     7                     7
                     8  1.837530128057097E-012
                     8                     7                     8
                     6  1.508772273783876E-012
                     8                     7                     8
                     9 -2.351924210941547E-012
                     8                     7                     9
                     8 -1.861174409034660E-012
                     8                     8                     7
                     9 -3.202254609521497E-012
                     8                     8                     9
                     7  3.202253257842202E-012
                     8                     9                     7
                     8 -2.085740044219242E-011
                     8                     9                     8
                     6  1.088270099036670E-012
                     8                     9                     8
                     7  2.351924210941547E-012
                     8                     9                     9
                     8  2.007194410680313E-011
                     8                    10                    10
                     8  5.388378632176227E-011
                     9                     1                     3
                     8  1.490616657884303E-012
                     9                     1                     4
                     9  1.092863646801057E-012
                     9                     1                     7
                     2 -1.042509828463878E-012
                     9                     1                     8
                     3 -1.618310953993563E-012
                     9                     2                     1
                     9 -2.453639721955447E-012
                     9                     2                     2
                     7 -7.436792501258616E-012
                     9                     2                     2
                     9 -7.620015729514762E-012
                     9                     2                     3
                     8  1.256221689172055E-011
                     9                     2                     4
                     9 -7.139691615698496E-012
                     9                     2                     5
                    10  3.698007178254414E-012
                     9                     2                     7
                     2  1.461985393858001E-011
                     9                     2                     7
                     4  6.175948641384821E-012
                     9                     2                     8
                     3 -1.576446612139293E-011
                     9                     2                     9
                     4  4.202665992991683E-012
                     9                     2                    10
                     5 -4.087109123362964E-012
                     9                     3                     2
                     8 -1.112233569133814E-011
                     9                     3                     3
                     7  4.691696683933877E-012
                     9                     3                     3
                     9 -1.884903344517852E-011
                     9                     3                     7
                     3  2.776673682647335E-011
                     9                     3                     8
                     2 -2.830617684690395E-012
                     9                     3                     8
                     4 -1.222619228080646E-012
                     9                     4                     1
                     7 -1.027750801130267E-012
                     9                     4                     2
                     7 -9.945169687775035E-012
                     9                     4                     2
                     9 -4.496071570603277E-011
                     9                     4                     4
                     6 -1.092905280164480E-012
                     9                     4                     4
                     7  7.139608348971649E-012
                     9                     4                     5
                    10  3.825462516204858E-011
                     9                     4                     7
                     1  1.366778218381270E-012
                     9                     4                     7
                     2  9.945169687775035E-012
                     9                     4                     7
                     4  4.202352354987227E-011
                     9                     4                     9
                     2 -4.202665992991683E-012
                     9                     4                    10
                     5 -3.825463557038944E-011
                     9                     5                     2
                    10 -1.969070739793466E-012
                     9                     5                     5
                     7  1.510414016081540E-011
                     9                     5                     5
                     9  6.039324595974449E-011
                     9                     5                     7
                     5  1.884554318154485E-011
                     9                     5                    10
                     2 -4.203627029797374E-012
                     9                     5                    10
                     4 -1.902009105769764E-011
                     9                     7                     6
                     9 -1.619142320219424E-012
                     9                     7                     7
                     7  7.183059716475525E-012
                     9                     7                     7
                     9 -1.444067088129941E-012
                     9                     7                     8
                     8 -3.202253257842202E-012
                     9                     7                     9
                     9 -2.936572422447863E-012
                     9                     8                     7
                     8  1.664429748540752E-011
                     9                     8                     8
                     7  1.861174409034660E-012
                     9                     8                     8
                     9 -2.007194410680313E-011
                     9                     9                     7
                     9 -2.936570634096614E-012
                     9                     9                     9
                     7  2.936572422447863E-012
                     9                    10                     7
                    10  1.687629636731858E-011
                     9                    10                    10
                     7  1.090070828740908E-011
                     9                    10                    10
                     9  4.137401532489093E-011
                    10                     1                     7
                     5  1.267614485600532E-012
                    10                     2                     1
                    10 -2.924866945863691E-012
                    10                     2                     2
                    10 -5.162947847026089E-011
                    10                     2                     4
                    10 -1.510416097749712E-011
                    10                     2                     5
                     9  3.296141137809627E-012
                    10                     2                     6
                     5  2.005562382834114E-012
                    10                     2                     7
                     5  3.587419250550283E-011
                    10                     2                     9
                     5  4.203627029797374E-012
                    10                     3                     3
                    10 -7.857403616640113E-011
                    10                     3                     8
                     5  2.468903900765262E-011
                    10                     4                     2
                    10 -3.328723408024814E-011
                    10                     4                     4
                    10 -6.039324595974449E-011
                    10                     4                     5
                     7 -3.296127260021819E-012
                    10                     4                     7
                     5  9.468825029612660E-012
                    10                     4                     9
                     5  1.902009105769764E-011
                    10                     5                     1
                     6 -2.074430904830393E-012
                    10                     5                     1
                     7 -2.937924209467369E-012
                    10                     5                     2
                     6 -2.091833650741393E-012
                    10                     5                     2
                     7 -4.366680628198338E-011
                    10                     5                     2
                     9 -8.573232401776210E-012
                    10                     5                     3
                     8 -3.264053957674484E-011
                    10                     5                     4
                     7 -3.698045342170886E-012
                    10                     5                     4
                     9 -3.825441699523147E-011
                    10                     5                     6
                     1  2.074430904830393E-012
                    10                     5                     6
                     2  2.417593902848125E-012
                    10                     5                     7
                     1  2.612163957360636E-012
                    10                     5                     7
                     2  4.366680628198338E-011
                    10                     5                     7
                     4  8.184165151137179E-012
                    10                     5                     8
                     3  3.264058121010827E-011
                    10                     5                     9
[...]
    6    7    8    1        0.0014067319
    6    7    8    2       -0.0060510013
    6    7    8    4       -0.0256082044
    6    7    8    6        0.0004034668
    6    8    8    1        0.0003578299
    6    8    8    2       -0.0115025982
    6    8    8    4       -0.0054312273
    6    8    8    6        0.0178949439
    7    1    1    1        0.0000000004
    7    1    1    3       -0.0102651983
    7    1    1    7        0.0044006624
    7    1    1    8        0.0037867479
    7    2    1    1       -0.0000000003
    7    2    1    3       -0.0082095039
    7    2    1    7        0.0036433720
    7    2    1    8        0.0031210555
    7    3    1    1       -0.1641699101
    7    3    1    2        0.0005772560
    7    3    1    4       -0.0003221503
    7    3    1    6        0.0004959373
    7    4    1    1       -0.0000000001
    7    4    1    3        0.0027293508
    7    4    1    7       -0.0013311173
    7    4    1    8       -0.0013777142
    7    6    1    1       -0.0000000001
    7    6    1    3       -0.0039236081
    7    6    1    7        0.0017096353
    7    6    1    8        0.0014067319
    7    7    1    1        0.3338720559
    7    7    1    2       -0.0014123868
    7    7    1    4        0.0013729758
    7    7    1    6       -0.0001406187
    7    8    1    1        0.1090808859
    7    8    1    2       -0.0014596216
    7    8    1    4       -0.0002056482
    7    8    1    6       -0.0004747937
    7    1    2    3       -0.0110431473
    7    1    2    7        0.0036433720
    7    1    2    8        0.0026591770
    7    2    2    2       -0.0000000001
    7    2    2    3       -0.0327528126
    7    2    2    7        0.0126016443
    7    2    2    8        0.0098938861
    7    3    2    1        0.0014335153
    7    3    2    2       -0.0947665144
    7    3    2    4        0.0132671770
    7    3    2    6       -0.0204155607
    7    4    2    3        0.0147099754
    7    4    2    7       -0.0022754829
    7    4    2    8       -0.0025175618
    7    6    2    3       -0.0420188203
    7    6    2    7       -0.0006460019
    7    6    2    8       -0.0060510013
    7    7    2    1       -0.0014123868
    7    7    2    2        0.2979652344
    7    7    2    4        0.0098719516
    7    7    2    6        0.0076847888
    7    8    2    1       -0.0014320807
    7    8    2    2        0.0736830407
    7    8    2    4       -0.0004450120
    7    8    2    6        0.0066848369
    7    1    3    1       -0.0093741417
    7    1    3    2       -0.0108194568
    7    1    3    4        0.0015290008
    7    1    3    6       -0.0017703734
    7    2    3    1       -0.0081340717
    7    2    3    2       -0.0331557379
    7    2    3    4        0.0050362402
    7    2    3    6       -0.0076292639
    7    3    3    3       -0.0832472194
    7    3    3    7        0.0307656970
    7    3    3    8        0.0242790399
    7    4    3    1        0.0028468562
    7    4    3    2        0.0157188981
    7    4    3    4       -0.0058709455
    7    4    3    6       -0.0058754379
    7    5    3    5       -0.0087947261
    7    6    3    1       -0.0039101684
    7    6    3    2       -0.0420902792
    7    6    3    4       -0.0141095193
    7    6    3    6        0.0184210340
    7    7    3    3        0.3016284599
    7    7    3    7       -0.0061176297
    7    7    3    8        0.0086000305
    7    8    3    3        0.0727321572
    7    8    3    7       -0.0103841368
    7    8    3    8        0.0041599157
    7    1    4    3        0.0015633708
    7    1    4    7       -0.0013311173
    7    1    4    8       -0.0029836067
    7    2    4    3        0.0048899607
    7    2    4    7       -0.0022754829
    7    2    4    8       -0.0079978016
    7    3    4    1       -0.0003445388
    7    3    4    2        0.0141662969
    7    3    4    4       -0.0840229111
    7    3    4    6       -0.0135377404
    7    4    4    3       -0.0067161911
    7    4    4    7        0.0081035824
    7    4    4    8        0.0143683407
    7    6    4    3       -0.0139302801
    7    6    4    7       -0.0122762920
    7    6    4    8       -0.0256082044
    7    7    4    1        0.0013729758
    7    7    4    2        0.0098719516
    7    7    4    4        0.2836313295
    7    7    4    6       -0.0036524598
    7    8    4    1       -0.0000991322
    7    8    4    2       -0.0001216313
    7    8    4    4        0.0705913402
    7    8    4    6       -0.0000187787
    7    2    5    5       -0.0000000001
    7    3    5    5       -0.0888965304
    7    5    5    3       -0.0090370496
    7    5    5    7        0.0044047235
    7    5    5    8        0.0038063262
    7    7    5    5        0.2851038783
    7    8    5    5        0.0658780721
    7    1    6    3       -0.0021304956
    7    1    6    7        0.0017096353
    7    1    6    8        0.0004869208
    7    2    6    3       -0.0109112723
    7    2    6    7       -0.0006460019
    7    2    6    8       -0.0009623938
    7    3    6    1        0.0000620283
    7    3    6    2       -0.0232502895
    7    3    6    4       -0.0137997787
    7    3    6    6       -0.0082188626
    7    4    6    3       -0.0065683916
    7    4    6    7       -0.0122762920
    7    4    6    8       -0.0025009053
    7    6    6    3        0.0188552906
    7    6    6    6        0.0000000001
    7    6    6    7        0.0660194788
    7    6    6    8        0.0004034668
    7    7    6    1       -0.0001406187
    7    7    6    2        0.0076847888
    7    7    6    4       -0.0036524598
    7    7    6    6        0.2538912169
    7    7    6    7       -0.0000000001
    7    8    6    1       -0.0004612208
    7    8    6    2        0.0065888949
    7    8    6    4       -0.0006950435
    7    8    6    6        0.0254535373
    7    1    7    1        0.0046863047
    7    1    7    2        0.0040080624
    7    1    7    4       -0.0014184874
    7    1    7    6        0.0017029192
    7    2    7    1        0.0040080624
    7    2    7    2        0.0152286144
    7    2    7    4       -0.0026626110
    7    2    7    6       -0.0007718982
    7    3    7    3        0.0331058629
    7    3    7    7       -0.0061176297
    7    3    7    8       -0.0102123204
    7    4    7    1       -0.0014184874
    7    4    7    2       -0.0026626110
    7    4    7    4        0.0098563002
    7    4    7    6       -0.0123558501
    7    5    7    5        0.0061334193
    7    6    7    1        0.0017029192
    7    6    7    2       -0.0007718982
    7    6    7    4       -0.0123558501
    7    6    7    6        0.0660199587
    7    6    7    7       -0.0000000001
    7    7    7    3       -0.0061176297
    7    7    7    6       -0.0000000001
    7    7    7    7        0.2586396225
    7    7    7    8        0.0206386457
    7    8    7    3       -0.0102123204
    7    8    7    7        0.0206386457
    7    8    7    8        0.0195617075
    7    1    8    1        0.0040034078
    7    1    8    2        0.0029555832
    7    1    8    4       -0.0031063171
    7    1    8    6        0.0004698354
    7    2    8    1        0.0034023041
    7    2    8    2        0.0114561845
    7    2    8    4       -0.0084149237
    7    2    8    6       -0.0009181820
    7    3    8    3        0.0247692939
    7    3    8    7       -0.0103841368
    7    3    8    8       -0.0234934228
    7    4    8    1       -0.0014317238
    7    4    8    2       -0.0032558211
    7    4    8    4        0.0148664750
    7    4    8    6       -0.0021392840
    7    5    8    5        0.0044928501
    7    6    8    1        0.0014015340
    7    6    8    2       -0.0061884298
    7    6    8    4       -0.0260106039
    7    6    8    6        0.0004134299
    7    7    8    3        0.0086000305
    7    7    8    7        0.0206386457
    7    7    8    8        0.2674407823
    7    8    8    3        0.0053180745
    7    8    8    7        0.0196138831
    7    8    8    8        0.0460575724
    8    1    1    3       -0.0090645673
    8    1    1    7        0.0037867479
    8    1    1    8        0.0033072826
    8    2    1    3       -0.0061444967
    8    2    1    7        0.0026591770
    8    2    1    8        0.0024362267
    8    3    1    1       -0.1040404927
    8    3    1    2        0.0013526409
    8    3    1    4        0.0038386494
    8    3    1    6        0.0016450361
    8    4    1    3        0.0062117508
    8    4    1    7       -0.0029836067
    8    4    1    8       -0.0027851810
    8    6    1    3       -0.0011579092
    8    6    1    7        0.0004869208
    8    6    1    8        0.0003578299
    8    7    1    1        0.1090808859
    8    7    1    2       -0.0014320807
    8    7    1    4       -0.0000991322
    8    7    1    6       -0.0004612208
    8    8    1    1        0.4602910813
    8    8    1    2       -0.0012938240
    8    8    1    4        0.0001191452
    8    8    1    6       -0.0003404472
    8    1    2    3       -0.0094308673
    8    1    2    7        0.0031210555
    8    1    2    8        0.0024362267
    8    2    2    3       -0.0074546419
    8    2    2    7        0.0098938861
    8    2    2    8        0.0238910276
    8    3    2    1        0.0021629479
    8    3    2    2       -0.0258401120
    8    3    2    4        0.0482391228
    8    3    2    6       -0.0094856972
    8    4    2    3        0.0531951867
    8    4    2    7       -0.0079978016
    8    4    2    8        0.0023995972
    8    6    2    3       -0.0081000034
    8    6    2    7       -0.0009623938
    8    6    2    8       -0.0115025982
    8    7    2    1       -0.0014596216
    8    7    2    2        0.0736830407
    8    7    2    4       -0.0001216313
    8    7    2    6        0.0065888949
    8    8    2    1       -0.0012938240
    8    8    2    2        0.4290562857
    8    8    2    4        0.0083003587
    8    8    2    6        0.0136454842
    8    1    3    1       -0.0080759088
    8    1    3    2       -0.0091408591
    8    1    3    4        0.0019041485
    8    1    3    6       -0.0013729104
    8    2    3    1       -0.0058102425
    8    2    3    2       -0.0066170711
    8    2    3    4        0.0239817148
    8    2    3    6       -0.0069185026
    8    3    3    3       -0.0122310631
    8    3    3    7        0.0242790399
    8    3    3    8        0.0548987393
    8    4    3    1        0.0067374198
    8    4    3    2        0.0563798131
    8    4    3    4        0.0028216179
    8    4    3    6       -0.0114076050
    8    5    3    5       -0.0093665387
    8    6    3    1       -0.0010455421
    8    6    3    2       -0.0077071873
    8    6    3    4       -0.0112558195
    8    6    3    6        0.0011268675
    8    7    3    3        0.0727321572
    8    7    3    7       -0.0102123204
    8    7    3    8        0.0053180745
    8    8    3    3        0.4338907272
    8    8    3    7       -0.0234934228
    8    8    3    8        0.0179447900
    8    1    4    3        0.0019228770
    8    1    4    7       -0.0013777142
    8    1    4    8       -0.0027851810
    8    2    4    3        0.0235911133
    8    2    4    7       -0.0025175618
    8    2    4    8        0.0023995972
    8    3    4    1        0.0043304222
    8    3    4    2        0.0510761325
    8    3    4    4       -0.0410134697
    8    3    4    6       -0.0146279542
    8    4    4    3        0.0013598258
    8    4    4    7        0.0143683407
    8    4    4    8        0.0416429033
    8    6    4    3       -0.0112487306
    8    6    4    7       -0.0025009053
    8    6    4    8       -0.0054312273
    8    7    4    1       -0.0002056482
    8    7    4    2       -0.0004450120
    8    7    4    4        0.0705913402
    8    7    4    6       -0.0006950435
    8    8    4    1        0.0001191452
    8    8    4    2        0.0083003587
    8    8    4    4        0.4175636643
    8    8    4    6        0.0053071070
    8    3    5    5       -0.0436413614
    8    5    5    3       -0.0093447823
    8    5    5    7        0.0038063262
    8    5    5    8        0.0075694085
    8    7    5    5        0.0658780721
    8    8    5    5        0.4009267906
    8    1    6    3       -0.0017667629
    8    1    6    7        0.0014067319
    8    1    6    8        0.0003578299
    8    2    6    3       -0.0101347522
    8    2    6    7       -0.0060510013
    8    2    6    8       -0.0115025982
    8    3    6    1        0.0013569339
    8    3    6    2       -0.0116224541
    8    3    6    4       -0.0148979790
    8    3    6    6        0.0129901688
    8    4    6    3       -0.0125213414
    8    4    6    7       -0.0256082044
    8    4    6    8       -0.0054312273
    8    6    6    3        0.0006853921
    8    6    6    7        0.0004034668
    8    6    6    8        0.0178949439
    8    7    6    1       -0.0004747937
    8    7    6    2        0.0066848369
    8    7    6    4       -0.0000187787
    8    7    6    6        0.0254535373
    8    8    6    1       -0.0003404472
    8    8    6    2        0.0136454842
    8    8    6    4        0.0053071070
    8    8    6    6        0.2854422977
    8    1    7    1        0.0040034078
    8    1    7    2        0.0034023041
    8    1    7    4       -0.0014317238
    8    1    7    6        0.0014015340
    8    2    7    1        0.0029555832
    8    2    7    2        0.0114561845
    8    2    7    4       -0.0032558211
    8    2    7    6       -0.0061884298
    8    3    7    3        0.0247692939
    8    3    7    7        0.0086000305
    8    3    7    8        0.0053180745
    8    4    7    1       -0.0031063171
    8    4    7    2       -0.0084149237
    8    4    7    4        0.0148664750
    8    4    7    6       -0.0260106039
    8    5    7    5        0.0044928501
    8    6    7    1        0.0004698354
    8    6    7    2       -0.0009181820
    8    6    7    4       -0.0021392840
    8    6    7    6        0.0004134299
    8    7    7    3       -0.0103841368
    8    7    7    7        0.0206386457
    8    7    7    8        0.0196138831
    8    8    7    3       -0.0234934228
    8    8    7    7        0.2674407823
    8    8    7    8        0.0460575724
    8    1    8    1        0.0033927249
    8    1    8    2        0.0027325226
    8    1    8    4       -0.0027557267
    8    1    8    6        0.0003617921
    8    2    8    1        0.0027325226
    8    2    8    2        0.0261621842
    8    2    8    4        0.0030816479
    8    2    8    6       -0.0106474046
    8    3    8    3        0.0557150906
    8    3    8    7        0.0041599157
    8    3    8    8        0.0179447900
    8    4    8    1       -0.0027557267
    8    4    8    2        0.0030816479
    8    4    8    4        0.0410505726
    8    4    8    6       -0.0046929146
    8    5    8    5        0.0070741540
    8    6    8    1        0.0003617921
    8    6    8    2       -0.0106474046
    8    6    8    4       -0.0046929146
    8    6    8    6        0.0178769580
    8    7    8    3        0.0041599157
    8    7    8    7        0.0195617075
    8    7    8    8        0.0460575724
    8    8    8    3        0.0179447900
    8    8    8    7        0.0460575724
    8    8    8    8        0.3731876421
 end_two_electron_integrals

 Task  times  cpu:      644.3s     wall:      644.3s
 
 
                                NWChem Input Module
                                -------------------
 
 
 Summary of allocated global arrays
-----------------------------------
  No active global arrays


MA_summarize_allocated_blocks: starting scan ...
MA_summarize_allocated_blocks: scan completed: 0 heap blocks, 0 stack blocks
MA usage statistics:

	allocation statistics:
					      heap	     stack
					      ----	     -----
	current number of blocks	         0	         0
	maximum number of blocks	        16	        42
	current total bytes		         0	         0
	maximum total bytes		     80104	4725685704
	maximum total K-bytes		        81	   4725686
	maximum total M-bytes		         1	      4726
 
 
                                     CITATION
                                     --------
                Please cite the following reference when publishing
                           results obtained with NWChem:
 
          E. Apra, E. J. Bylaska, W. A. de Jong, N. Govind, K. Kowalski,
       T. P. Straatsma, M. Valiev, H. J. J. van Dam, Y. Alexeev, J. Anchell,
       V. Anisimov, F. W. Aquino, R. Atta-Fynn, J. Autschbach, N. P. Bauman,
     J. C. Becca, D. E. Bernholdt, K. Bhaskaran-Nair, S. Bogatko, P. Borowski,
         J. Boschen, J. Brabec, A. Bruner, E. Cauet, Y. Chen, G. N. Chuev,
      C. J. Cramer, J. Daily, M. J. O. Deegan, T. H. Dunning Jr., M. Dupuis,
   K. G. Dyall, G. I. Fann, S. A. Fischer, A. Fonari, H. Fruchtl, L. Gagliardi,
      J. Garza, N. Gawande, S. Ghosh, K. Glaesemann, A. W. Gotz, J. Hammond,
       V. Helms, E. D. Hermes, K. Hirao, S. Hirata, M. Jacquelin, L. Jensen,
   B. G. Johnson, H. Jonsson, R. A. Kendall, M. Klemm, R. Kobayashi, V. Konkov,
      S. Krishnamoorthy, M. Krishnan, Z. Lin, R. D. Lins, R. J. Littlefield,
      A. J. Logsdail, K. Lopata, W. Ma, A. V. Marenich, J. Martin del Campo,
   D. Mejia-Rodriguez, J. E. Moore, J. M. Mullin, T. Nakajima, D. R. Nascimento,
    J. A. Nichols, P. J. Nichols, J. Nieplocha, A. Otero-de-la-Roza, B. Palmer,
    A. Panyala, T. Pirojsirikul, B. Peng, R. Peverati, J. Pittner, L. Pollack,
   R. M. Richard, P. Sadayappan, G. C. Schatz, W. A. Shelton, D. W. Silverstein,
   D. M. A. Smith, T. A. Soares, D. Song, M. Swart, H. L. Taylor, G. S. Thomas,
            V. Tipparaju, D. G. Truhlar, K. Tsemekhman, T. Van Voorhis,
      A. Vazquez-Mayagoitia, P. Verma, O. Villa, A. Vishnu, K. D. Vogiatzis,
        D. Wang, J. H. Weare, M. J. Williamson, T. L. Windus, K. Wolinski,
        A. T. Wong, Q. Wu, C. Yang, Q. Yu, M. Zacharias, Z. Zhang, Y. Zhao,
                                and R. J. Harrison
                        "NWChem: Past, present, and future
                         J. Chem. Phys. 152, 184102 (2020)
                               doi:10.1063/5.0004997
 
                                      AUTHORS
                                      -------
  E. Apra, E. J. Bylaska, N. Govind, K. Kowalski, M. Valiev, D. Mejia-Rodriguez,
       A. Kunitsa, N. P. Bauman, A. Panyala, W. A. de Jong, T. P. Straatsma,
   H. J. J. van Dam, D. Wang, T. L. Windus, J. Hammond, J. Autschbach, A. Woods,
    K. Bhaskaran-Nair, J. Brabec, K. Lopata, S. A. Fischer, S. Krishnamoorthy,
     M. Jacquelin, W. Ma, M. Klemm, O. Villa, Y. Chen, V. Anisimov, F. Aquino,
     S. Hirata, M. T. Hackler, E. Hermes, L. Jensen, J. E. Moore, J. C. Becca,
      V. Konjkov, T. Risthaus, M. Malagoli, A. Marenich, A. Otero-de-la-Roza,
        J. Mullin, P. Nichols, R. Peverati, J. Pittner, Y. Zhao, P.-D. Fan,
        A. Fonari, M. J. Williamson, R. J. Harrison, J. R. Rehr, M. Dupuis,
     D. Silverstein, D. M. A. Smith, J. Nieplocha, V. Tipparaju, M. Krishnan,
     B. E. Van Kuiken, A. Vazquez-Mayagoitia, M. Swart, Q. Wu, T. Van Voorhis,
     A. A. Auer, M. Nooijen, L. D. Crosby, E. Brown, G. Cisneros, G. I. Fann,
   H. Fruchtl, J. Garza, K. Hirao, R. A. Kendall, J. A. Nichols, K. Tsemekhman,
    K. Wolinski, J. Anchell, D. E. Bernholdt, P. Borowski, T. Clark, D. Clerc,
   H. Dachsel, M. J. O. Deegan, K. Dyall, D. Elwood, E. Glendening, M. Gutowski,
   A. C. Hess, J. Jaffe, B. G. Johnson, J. Ju, R. Kobayashi, R. Kutteh, Z. Lin,
   R. Littlefield, X. Long, B. Meng, T. Nakajima, S. Niu, L. Pollack, M. Rosing,
   K. Glaesemann, G. Sandrone, M. Stave, H. Taylor, G. Thomas, J. H. van Lenthe,
                               A. T. Wong, Z. Zhang.

 Total times  cpu:      644.7s     wall:      644.7s
