 argument  1 = input.nw
  NWChem w/ OpenMP: maximum threads =    1
 


============================== echo of input deck ==============================
 echo
 start H2O
 title "H2O"

 memory total 24 gb

 geometry units angstrom
 symmetry c1
   zmatrix
     O
     H1 O 0.97551
     H2 O 0.97551 H1 107.60
   end
 end

 basis spherical
   * library cc-pVTZ
 end

 tce
   2eorb
   2emet 13
   ccsd
   maxiter 300
 end

# set tce:print_integrals T
# set tce:qorb 8
# set tce:qela 5
# set tce:qelb 5

 set tce:qducc T
 set tce:nactv 3
 set tce:nonhf T
 set tce:ducc_model 6

 set tce:printtol 0.02

 task tce
================================================================================


                                         
                                         
 
 
             Northwest Computational Chemistry Package (NWChem) 7.2.3
             --------------------------------------------------------
 
 
                    Environmental Molecular Sciences Laboratory
                       Pacific Northwest National Laboratory
                                Richland, WA 99352
 
                              Copyright (c) 1994-2022
                       Pacific Northwest National Laboratory
                            Battelle Memorial Institute
 
             NWChem is an open-source computational chemistry package
                        distributed under the terms of the
                      Educational Community License (ECL) 2.0
             A copy of the license is included with this distribution
                              in the LICENSE.TXT file
 
                                  ACKNOWLEDGMENT
                                  --------------

            This software and its documentation were developed at the
            EMSL at Pacific Northwest National Laboratory, a multiprogram
            national laboratory, operated for the U.S. Department of Energy
            by Battelle under Contract Number DE-AC05-76RL01830. Support
            for this work was provided by the Department of Energy Office
            of Biological and Environmental Research, Office of Basic
            Energy Sciences, and the Office of Advanced Scientific Computing.


           Job information
           ---------------

    hostname        = koothan
    program         = /hpc/home/baum612/code/nwchem/bin/LINUX64/nwchem
    date            = Thu Nov 21 23:51:39 2024

    compiled        = Thu_Nov_21_17:16:59_2024
    source          = /hpc/home/baum612/code/nwchem
    nwchem branch   = 7.2.3
    nwchem revision = v7.2.0-beta1-1291-g6d839a76f0
    ga revision     = 5.8.0
    use scalapack   = T
    input           = input.nw
    prefix          = H2O.
    data base       = ./H2O.db
    status          = startup
    nproc           =        1
    time left       =     -1s



           Memory information
           ------------------

    heap     =    805306368 doubles =     6144.0 Mbytes
    stack    =    805306365 doubles =     6144.0 Mbytes
    global   =   1610612736 doubles =    12288.0 Mbytes (distinct from heap & stack)
    total    =   3221225469 doubles =    24576.0 Mbytes
    verify   = yes
    hardfail = no 


           Directory information
           ---------------------
 
  0 permanent = .
  0 scratch   = .
 
 
 
 
                                NWChem Input Module
                                -------------------
 
 
                                        H2O
                                        ---

 Scaling coordinates for geometry "geometry" by  1.889725989
 (inverse scale =  0.529177249)

 Turning off AUTOSYM since
 SYMMETRY directive was detected!
 
 
 
                             Geometry "geometry" -> ""
                             -------------------------
 
 Output coordinates in angstroms (scale by  1.889725989 to convert to a.u.)
 
  No.       Tag          Charge          X              Y              Z
 ---- ---------------- ---------- -------------- -------------- --------------
    1 O                    8.0000    -0.09298470     0.00000000    -0.06805451
    2 H1                   1.0000    -0.09298470     0.00000000     0.90745549
    3 H2                   1.0000     0.83686233     0.00000000    -0.36301937
 
      Atomic Mass 
      ----------- 
 
      O                 15.994910
      H1                 1.007825
      H2                 1.007825
 

 Effective nuclear repulsion energy (a.u.)       9.0155088661

            Nuclear Dipole moment (a.u.) 
            ----------------------------
        X                 Y               Z
 ---------------- ---------------- ----------------
     0.0000000000     0.0000000000     0.0000000000
 


                                Z-matrix (user)
                                -------- 

 Units are Angstrom for bonds and degrees for angles
 
      Type          Name      I     J     K     L     M      Value
      ----------- --------  ----- ----- ----- ----- ----- ----------
    1 Stretch                  2     1                       0.97551
    2 Stretch                  3     1                       0.97551
    3 Bend                     3     1     2               107.60000
 
 
            XYZ format geometry
            -------------------
     3
 geometry
 O                    -0.09298470     0.00000000    -0.06805451
 H1                   -0.09298470     0.00000000     0.90745549
 H2                    0.83686233     0.00000000    -0.36301937
 
 ==============================================================================
                                internuclear distances
 ------------------------------------------------------------------------------
       center one      |      center two      | atomic units |  angstroms
 ------------------------------------------------------------------------------
    2 H1               |   1 O                |     1.84345  |     0.97551
    3 H2               |   1 O                |     1.84345  |     0.97551
 ------------------------------------------------------------------------------
                         number of included internuclear distances:          2
 ==============================================================================



 ==============================================================================
                                 internuclear angles
 ------------------------------------------------------------------------------
        center 1       |       center 2       |       center 3       |  degrees
 ------------------------------------------------------------------------------
    2 H1               |   1 O                |   3 H2               |   107.60
 ------------------------------------------------------------------------------
                            number of included internuclear angles:          1
 ==============================================================================





 Summary of "ao basis" -> "" (spherical)
 ------------------------------------------------------------------------------
       Tag                 Description            Shells   Functions and Types
 ---------------- ------------------------------  ------  ---------------------
 *                          cc-pVTZ                   on all atoms 


                      Basis "ao basis" -> "ao basis" (spherical)
                      -----
  O (Oxygen)
  ----------
            Exponent  Coefficients 
       -------------- ---------------------------------------------------------
  1 S  1.53300000E+04  0.000508
  1 S  2.29900000E+03  0.003929
  1 S  5.22400000E+02  0.020243
  1 S  1.47300000E+02  0.079181
  1 S  4.75500000E+01  0.230687
  1 S  1.67600000E+01  0.433118
  1 S  6.20700000E+00  0.350260
  1 S  6.88200000E-01 -0.008154
 
  2 S  1.53300000E+04 -0.000115
  2 S  2.29900000E+03 -0.000895
  2 S  5.22400000E+02 -0.004636
  2 S  1.47300000E+02 -0.018724
  2 S  4.75500000E+01 -0.058463
  2 S  1.67600000E+01 -0.136463
  2 S  6.20700000E+00 -0.175740
  2 S  6.88200000E-01  0.603418
 
  3 S  1.75200000E+00  1.000000
 
  4 S  2.38400000E-01  1.000000
 
  5 P  3.44600000E+01  0.015928
  5 P  7.74900000E+00  0.099740
  5 P  2.28000000E+00  0.310492
 
  6 P  7.15600000E-01  1.000000
 
  7 P  2.14000000E-01  1.000000
 
  8 D  2.31400000E+00  1.000000
 
  9 D  6.45000000E-01  1.000000
 
 10 F  1.42800000E+00  1.000000
 
  H1 (Hydrogen)
  -------------
            Exponent  Coefficients 
       -------------- ---------------------------------------------------------
  1 S  3.38700000E+01  0.006068
  1 S  5.09500000E+00  0.045308
  1 S  1.15900000E+00  0.202822
 
  2 S  3.25800000E-01  1.000000
 
  3 S  1.02700000E-01  1.000000
 
  4 P  1.40700000E+00  1.000000
 
  5 P  3.88000000E-01  1.000000
 
  6 D  1.05700000E+00  1.000000
 
  H2 (Hydrogen)
  -------------
            Exponent  Coefficients 
       -------------- ---------------------------------------------------------
  1 S  3.38700000E+01  0.006068
  1 S  5.09500000E+00  0.045308
  1 S  1.15900000E+00  0.202822
 
  2 S  3.25800000E-01  1.000000
 
  3 S  1.02700000E-01  1.000000
 
  4 P  1.40700000E+00  1.000000
 
  5 P  3.88000000E-01  1.000000
 
  6 D  1.05700000E+00  1.000000
 


 Summary of "ao basis" -> "ao basis" (spherical)
 ------------------------------------------------------------------------------
       Tag                 Description            Shells   Functions and Types
 ---------------- ------------------------------  ------  ---------------------
 O                          cc-pVTZ                 10       30   4s3p2d1f
 H1                         cc-pVTZ                  6       14   3s2p1d
 H2                         cc-pVTZ                  6       14   3s2p1d


                                 NWChem SCF Module
                                 -----------------
 
 
                                        H2O
 
 

  ao basis        = "ao basis"
  functions       =    58
  atoms           =     3
  closed shells   =     5
  open shells     =     0
  charge          =   0.00
  wavefunction    = RHF 
  input vectors   = atomic
  output vectors  = ./H2O.movecs
  use symmetry    = F
  symmetry adapt  = F


 Summary of "ao basis" -> "ao basis" (spherical)
 ------------------------------------------------------------------------------
       Tag                 Description            Shells   Functions and Types
 ---------------- ------------------------------  ------  ---------------------
 O                          cc-pVTZ                 10       30   4s3p2d1f
 H1                         cc-pVTZ                  6       14   3s2p1d
 H2                         cc-pVTZ                  6       14   3s2p1d



 Forming initial guess at       0.5s

 
      Superposition of Atomic Density Guess
      -------------------------------------
 
 Sum of atomic energies:         -75.78028790
 
      Non-variational initial energy
      ------------------------------

 Total energy =     -75.906901
 1-e energy   =    -121.469579
 2-e energy   =      36.547169
 HOMO         =      -0.472119
 LUMO         =       0.061866
 

 Starting SCF solution at       0.6s



 ----------------------------------------------
         Quadratically convergent ROHF

 Convergence threshold     :          1.000E-04
 Maximum no. of iterations :           30
 Final Fock-matrix accuracy:          1.000E-07
 ----------------------------------------------


              iter       energy          gnorm     gmax       time
             ----- ------------------- --------- --------- --------
                 1      -76.0203541927  8.44D-01  2.94D-01      0.8
                 2      -76.0528482154  1.96D-01  6.18D-02      1.1
                 3      -76.0550677079  1.61D-02  6.33D-03      1.5
                 4      -76.0550912456  6.67D-05  3.44D-05      2.2


       Final RHF  results 
       ------------------ 

         Total SCF energy =    -76.055091245602
      One-electron energy =   -122.809029282916
      Two-electron energy =     37.738429171205
 Nuclear repulsion energy =      9.015508866109

        Time for solution =      1.5s


             Final eigenvalues
             -----------------

              1      
    1  -20.5563
    2   -1.3342
    3   -0.7054
    4   -0.5682
    5   -0.5019
    6    0.1408
    7    0.2018
    8    0.5422
    9    0.5801
   10    0.6746
   11    0.7878
   12    0.8031
   13    0.8145
   14    0.8509
   15    0.9662
 
                       ROHF Final Molecular Orbital Analysis
                       -------------------------------------
 
 Vector    2  Occ=2.000000D+00  E=-1.334171D+00
              MO Center=  3.5D-02,  3.6D-17,  2.6D-02, r^2= 5.1D-01
   Bfn.  Coefficient  Atom+Function         Bfn.  Coefficient  Atom+Function  
  ----- ------------  ---------------      ----- ------------  ---------------
     2      0.507291  1 O  s                  4      0.290474  1 O  s          
 
 Vector    3  Occ=2.000000D+00  E=-7.054438D-01
              MO Center=  7.8D-02,  3.9D-16,  5.7D-02, r^2= 7.8D-01
   Bfn.  Coefficient  Atom+Function         Bfn.  Coefficient  Atom+Function  
  ----- ------------  ---------------      ----- ------------  ---------------
    10      0.274313  1 O  pz                 7      0.225870  1 O  pz         
    32      0.217461  2 H  s                 46     -0.217461  3 H  s          
     8     -0.200767  1 O  px                 5     -0.165312  1 O  px         
 
 Vector    4  Occ=2.000000D+00  E=-5.681924D-01
              MO Center= -1.2D-01, -2.7D-16, -8.8D-02, r^2= 7.1D-01
   Bfn.  Coefficient  Atom+Function         Bfn.  Coefficient  Atom+Function  
  ----- ------------  ---------------      ----- ------------  ---------------
     8      0.310992  1 O  px                 4     -0.265109  1 O  s          
     5      0.253332  1 O  px                11      0.230550  1 O  px         
    10      0.227612  1 O  pz                 7      0.185411  1 O  pz         
     2     -0.171451  1 O  s                 13      0.168737  1 O  pz         
 
 Vector    5  Occ=2.000000D+00  E=-5.019484D-01
              MO Center= -6.7D-02, -9.9D-17, -4.9D-02, r^2= 6.4D-01
   Bfn.  Coefficient  Atom+Function         Bfn.  Coefficient  Atom+Function  
  ----- ------------  ---------------      ----- ------------  ---------------
     9      0.444440  1 O  py                12      0.377617  1 O  py         
     6      0.357274  1 O  py         
 
 Vector    6  Occ=0.000000D+00  E= 1.407539D-01
              MO Center=  4.9D-01, -3.3D-18,  3.6D-01, r^2= 3.7D+00
   Bfn.  Coefficient  Atom+Function         Bfn.  Coefficient  Atom+Function  
  ----- ------------  ---------------      ----- ------------  ---------------
     4      1.511460  1 O  s                 33     -0.914240  2 H  s          
    47     -0.914240  3 H  s                 11      0.363830  1 O  px         
    32     -0.272510  2 H  s                 46     -0.272510  3 H  s          
    13      0.266283  1 O  pz                39      0.175016  2 H  pz         
    51      0.165942  3 H  px                 8      0.153288  1 O  px         
 
 Vector    7  Occ=0.000000D+00  E= 2.017500D-01
              MO Center=  5.5D-01, -3.7D-16,  4.0D-01, r^2= 4.7D+00
   Bfn.  Coefficient  Atom+Function         Bfn.  Coefficient  Atom+Function  
  ----- ------------  ---------------      ----- ------------  ---------------
    33      1.708186  2 H  s                 47     -1.708186  3 H  s          
    13     -0.682173  1 O  pz                11      0.499275  1 O  px         
    39     -0.165508  2 H  pz                10     -0.163834  1 O  pz         
    51      0.160030  3 H  px         
 
 Vector    8  Occ=0.000000D+00  E= 5.421875D-01
              MO Center=  4.3D-02,  3.7D-17,  3.1D-02, r^2= 2.3D+00
   Bfn.  Coefficient  Atom+Function         Bfn.  Coefficient  Atom+Function  
  ----- ------------  ---------------      ----- ------------  ---------------
    32      1.503350  2 H  s                 46     -1.503350  3 H  s          
    13     -0.958252  1 O  pz                11      0.701334  1 O  px         
    33     -0.621548  2 H  s                 47      0.621548  3 H  s          
    10     -0.215889  1 O  pz                 8      0.158007  1 O  px         
 
 Vector    9  Occ=0.000000D+00  E= 5.800780D-01
              MO Center=  4.3D-01,  1.2D-16,  3.1D-01, r^2= 2.1D+00
   Bfn.  Coefficient  Atom+Function         Bfn.  Coefficient  Atom+Function  
  ----- ------------  ---------------      ----- ------------  ---------------
    32      1.264311  2 H  s                 46      1.264311  3 H  s          
    33     -0.607970  2 H  s                 47     -0.607970  3 H  s          
     4     -0.446961  1 O  s                 11     -0.393599  1 O  px         
    13     -0.288071  1 O  pz                53     -0.228882  3 H  pz         
     2     -0.189873  1 O  s                 37     -0.188547  2 H  px         
 
 Vector   10  Occ=0.000000D+00  E= 6.745644D-01
              MO Center= -2.6D-01, -5.3D-17, -1.9D-01, r^2= 2.3D+00
   Bfn.  Coefficient  Atom+Function         Bfn.  Coefficient  Atom+Function  
  ----- ------------  ---------------      ----- ------------  ---------------
     4      4.450610  1 O  s                 32     -2.220428  2 H  s          
    46     -2.220428  3 H  s                 11      2.074037  1 O  px         
    13      1.517965  1 O  pz                39      1.126664  2 H  pz         
    51      1.049015  3 H  px                33     -0.445976  2 H  s          
    47     -0.445976  3 H  s                 53     -0.419198  3 H  pz         
 
 Vector   11  Occ=0.000000D+00  E= 7.877780D-01
              MO Center= -5.7D-02,  1.1D-16, -4.2D-02, r^2= 1.7D+00
   Bfn.  Coefficient  Atom+Function         Bfn.  Coefficient  Atom+Function  
  ----- ------------  ---------------      ----- ------------  ---------------
    12      1.136529  1 O  py                 9     -0.775224  1 O  py         
     6     -0.259286  1 O  py         
 
 Vector   12  Occ=0.000000D+00  E= 8.030792D-01
              MO Center= -6.8D-02, -1.7D-15, -5.0D-02, r^2= 3.0D+00
   Bfn.  Coefficient  Atom+Function         Bfn.  Coefficient  Atom+Function  
  ----- ------------  ---------------      ----- ------------  ---------------
    13      2.401415  1 O  pz                11     -1.757570  1 O  px         
    32     -1.580060  2 H  s                 46      1.580060  3 H  s          
    33     -1.418699  2 H  s                 47      1.418699  3 H  s          
    39      1.149638  2 H  pz                51     -1.102250  3 H  px         
    21      0.366584  1 O  d  0              53      0.327361  3 H  pz         
 
 Vector   13  Occ=0.000000D+00  E= 8.145035D-01
              MO Center=  1.2D-01, -5.6D-16,  9.1D-02, r^2= 2.1D+00
   Bfn.  Coefficient  Atom+Function         Bfn.  Coefficient  Atom+Function  
  ----- ------------  ---------------      ----- ------------  ---------------
    11      1.136295  1 O  px                32     -1.022252  2 H  s          
    46     -1.022252  3 H  s                 37     -0.889452  2 H  px         
    53     -0.862605  3 H  pz                13      0.831642  1 O  pz         
     4      0.745786  1 O  s                 33      0.256524  2 H  s          
    47      0.256524  3 H  s                 51     -0.222328  3 H  px         
 
 Vector   14  Occ=0.000000D+00  E= 8.508585D-01
              MO Center=  3.6D-01,  6.5D-16,  2.7D-01, r^2= 1.7D+00
   Bfn.  Coefficient  Atom+Function         Bfn.  Coefficient  Atom+Function  
  ----- ------------  ---------------      ----- ------------  ---------------
    38      0.833049  2 H  py                52     -0.833049  3 H  py         
 
 Vector   15  Occ=0.000000D+00  E= 9.662413D-01
              MO Center=  1.6D-01, -3.6D-16,  1.2D-01, r^2= 2.0D+00
   Bfn.  Coefficient  Atom+Function         Bfn.  Coefficient  Atom+Function  
  ----- ------------  ---------------      ----- ------------  ---------------
    12      1.160738  1 O  py                38     -1.002009  2 H  py         
    52     -1.002009  3 H  py         
 

 center of mass
 --------------
 x =  -0.07738964 y =   0.00000000 z =  -0.05664065

 moments of inertia (a.u.)
 ------------------
           3.644743348006           0.000000000000           1.114548776782
           0.000000000000           6.582375300027           0.000000000000
           1.114548776782           0.000000000000           2.937631952021
 
  Mulliken analysis of the total density
  --------------------------------------

    Atom       Charge   Shell Charges
 -----------   ------   -------------------------------------------------------
    1 O    8     8.50   1.95  1.00  0.23  0.60  1.26  2.14  1.30  0.00  0.02  0.00
    2 H    1     0.75   0.25  0.37  0.04  0.02  0.06  0.01
    3 H    1     0.75   0.25  0.37  0.04  0.02  0.06  0.01
 
       Multipole analysis of the density wrt the origin
       ------------------------------------------------
 
     L   x y z        total         open         nuclear
     -   - - -        -----         ----         -------
     0   0 0 0     -0.000000      0.000000     10.000000
 
     1   1 0 0      0.631471      0.000000      0.000000
     1   0 1 0     -0.000000      0.000000      0.000000
     1   0 0 1      0.462167      0.000000      0.000000
 
     2   2 0 0     -4.009740      0.000000      2.778838
     2   1 1 0     -0.000000      0.000000      0.000000
     2   1 0 1     -0.771616      0.000000     -1.205422
     2   0 2 0     -5.456213      0.000000      0.000000
     2   0 1 1      0.000000      0.000000      0.000000
     2   0 0 2     -3.520198      0.000000      3.543602
 
                   NWChem Extensible Many-Electron Theory Module
                   ---------------------------------------------
 
              ======================================================
                   This portion of the program was automatically
                  generated by a Tensor Contraction Engine (TCE).
                  The development of this portion of the program
                 and TCE was supported by US Department of Energy,
                Office of Science, Office of Basic Energy Science.
                      TCE is a product of Battelle and PNNL.
              Please cite: S.Hirata, J.Phys.Chem.A 107, 9887 (2003).
              ======================================================
 
                                        H2O
 
 
            General Information
            -------------------
      Number of processors :     1
         Wavefunction type : Restricted Hartree-Fock
          No. of electrons :    10
           Alpha electrons :     5
            Beta electrons :     5
           No. of orbitals :   116
            Alpha orbitals :    58
             Beta orbitals :    58
        Alpha frozen cores :     0
         Beta frozen cores :     0
     Alpha frozen virtuals :     0
      Beta frozen virtuals :     0
         Spin multiplicity : singlet 
    Number of AO functions :    58
       Number of AO shells :    22
        Use of symmetry is : off
      Symmetry adaption is : off
         Schwarz screening : 0.10D-09
 
          Correlation Information
          -----------------------
          Calculation type : Coupled-cluster singles & doubles                           
   Perturbative correction : none                                                        
            Max iterations :      300
        Residual threshold : 0.10D-06
     T(0) DIIS level shift : 0.00D+00
     L(0) DIIS level shift : 0.00D+00
     T(1) DIIS level shift : 0.00D+00
     L(1) DIIS level shift : 0.00D+00
     T(R) DIIS level shift : 0.00D+00
     T(I) DIIS level shift : 0.00D+00
   CC-T/L Amplitude update :  5-th order DIIS
                I/O scheme : Global Array Library
        L-threshold :  0.10D-06
        EOM-threshold :  0.10D-06
 no EOMCCSD initial starts read in
 TCE RESTART OPTIONS
 READ_INT:   F
 WRITE_INT:  F
 READ_TA:    F
 WRITE_TA:   F
 READ_XA:    F
 WRITE_XA:   F
 READ_IN3:   F
 WRITE_IN3:  F
 SLICE:      F
 D4D5:       F
 quantumc:   F
 qrotation:  F
 pwtce:      F
 qducc:      T
 nacto:                          0
 nrotv:                          0
 nrot:                           0
 
            Memory Information
            ------------------
          Available GA space size is    1610609372 doubles
          Available MA space size is    1610609756 doubles
 
 Maximum block size        32 doubles

 tile_dim =     27

 Block   Spin    Irrep     Size     Offset   Alpha
 -------------------------------------------------
   1    alpha     a      5 doubles       0       1
   2    beta      a      5 doubles       5       1
   3    alpha     a     26 doubles      10       3
   4    alpha     a     27 doubles      36       4
   5    beta      a     26 doubles      63       3
   6    beta      a     27 doubles      89       4

 Global array virtual files algorithm will be used

 Parallel file system coherency ......... OK
 
 Fock matrix recomputed
 1-e file size   =             3364
 1-e file name   = ./H2O.f1
 Cpu & wall time / sec            0.1            0.1
 4-electron integrals stored in orbital form
 
 v2    file size   =          3631290
 4-index algorithm nr.  13 is used
 imaxsize =       30
 imaxsize ichop =        0
 Cpu & wall time / sec            1.4            1.4
 T1-number-of-tasks                     2
 
 t1 file size   =              265
 t1 file name   = ./H2O.t1
 t1 file handle =       -998
 T2-number-of-boxes                     7
 
 t2 file size   =           122900
 t2 file name   = ./H2O.t2
 t2 file handle =       -996
CCSD iterations
 ---------------------------------------------------------
 Iter          Residuum       Correlation     Cpu    Wall 
 ---------------------------------------------------------
NEW TASK SCHEDULING
CCSD_T1_NTS --- OK
CCSD_T2_NTS --- OK
    1   0.1389266604046  -0.2760063371843     0.2     0.2
    2   0.0305982667860  -0.2771155901043     0.2     0.2
    3   0.0104094409577  -0.2808703191797     0.2     0.2
    4   0.0041306357764  -0.2813008023295     0.2     0.2
    5   0.0017201657043  -0.2815681263184     0.2     0.2
 MICROCYCLE DIIS UPDATE:                     5                     5
    6   0.0003438550647  -0.2816921750448     0.2     0.2
    7   0.0001401618053  -0.2817047675191     0.2     0.2
    8   0.0000557901137  -0.2817041223805     0.2     0.2
    9   0.0000316869746  -0.2817043312727     0.2     0.2
   10   0.0000161305745  -0.2817046054738     0.2     0.2
 MICROCYCLE DIIS UPDATE:                    10                     5
   11   0.0000030840474  -0.2817051318671     0.2     0.2
   12   0.0000013648950  -0.2817049221889     0.2     0.2
   13   0.0000006387284  -0.2817049454189     0.2     0.2
   14   0.0000003732104  -0.2817049334813     0.2     0.2
   15   0.0000002020665  -0.2817049320117     0.2     0.2
 MICROCYCLE DIIS UPDATE:                    15                     5
   16   0.0000000345848  -0.2817049271560     0.2     0.2
 -----------------------------------------------------------------
 Iterations converged
 CCSD correlation energy / hartree =        -0.281704927155971
 CCSD total energy / hartree       =       -76.336796172757914

 Singles contributions

 Doubles contributions
     7a   (alpha)     7a   (beta ) ---     3a   (alpha)     3a   (beta )       -0.0202206841
     8a   (alpha)     8a   (beta ) ---     3a   (alpha)     3a   (beta )       -0.0274770090
     8a   (alpha)     8a   (beta ) ---     4a   (alpha)     4a   (beta )       -0.0222331083
     9a   (alpha)     9a   (beta ) ---     3a   (alpha)     3a   (beta )       -0.0270097945
    10a   (alpha)    10a   (beta ) ---     4a   (alpha)     4a   (beta )       -0.0304362140
    10a   (alpha)    11a   (beta ) ---     4a   (alpha)     5a   (beta )       -0.0263564621
    11a   (alpha)    10a   (beta ) ---     5a   (alpha)     4a   (beta )       -0.0263564621
    11a   (alpha)    11a   (beta ) ---     5a   (alpha)     5a   (beta )       -0.0478320805
    11a   (alpha)    12a   (beta ) ---     5a   (alpha)     3a   (beta )       -0.0221701497
    12a   (alpha)    11a   (beta ) ---     3a   (alpha)     5a   (beta )       -0.0221701497
    12a   (alpha)    12a   (beta ) ---     3a   (alpha)     3a   (beta )       -0.0224408574
 Ground state specification:
 exp(T)|Ref>~(1+T)|Ref>
 ------- a(p)+/a(q) strings ----------

 singles norm

 doubles norm

 Reference string
   1.00000000000000      :(1a)+ (2a)+ (3a)+ (4a)+ (5a)+ (1b)+ (2b)+ (3b)+ (4b)+ 
 (5b)+ |0>

 Singles strings

 Doubles strings
 -------------------------------------
 enrep_tce =    9.01550886610881     
  EHF(total)         =       -76.05509125
  Shift (HFtot-HFA)  =         0.00000000
 ALL OCCUPIED ORBITALS ARE ACTIVE IN DUCC --> NO SHIFT
 Number of active orbitals                     8
 Number of active alpha electrons                     5
 Number of active beta electrons                     5
  nos                     10
  nvs                    106
 noas                      5
 nobs                      5
 nvas                     53
 nvbs                     53
 nactv                      3
 DUCC MODEL =                      6
 NONHF =  T
 F-T1 correlation    =   1.152994181555771E-007
 V-T1-T1 correlation =   3.397704923067131E-005
 V-T2 correlation    =  -0.281739019504607     
 Total correlation   =  -0.281704927155958     
 F-T1(Ext) correlation         =   1.193186979840833E-007
 V-T1(Ext)-T1(Ext) correlation =   3.142896850511684E-005
 V-T2(Ext) correlation         =  -0.273886927638156     
 Total Ext correlation         =  -0.273855379350953     
1-BODY TIME =  276.914 SECONDS.
  HHHH TIME =  274.548 SECONDS.
  PPPP TIME =    3.051 SECONDS.
  HHHP TIME =   26.218 SECONDS.
  PPPH TIME =    6.348 SECONDS.
  HPHP TIME =   21.472 SECONDS.
  HHPP TIME =   13.015 SECONDS.
 ONE-BODY UNITARY CHECK
 TWO-BODY UNITARY CHECK
                     1                     3                     2
                     3 -1.341555339040568E-012
                     1                     3                     3
                     2  2.249544300836348E-012
                     1                     4                     2
                     4 -1.279400196896319E-012
                     1                     4                     4
                     2  1.616672073989633E-012
                     1                     5                     2
                     5 -1.145444850081390E-012
                     1                     6                     2
                     9  1.241791391937141E-012
                     1                     6                     3
                     8  1.432791385536092E-012
                     1                     6                     5
                    10 -2.112886254845847E-012
                     1                     6                     7
                     4 -1.285582751364700E-012
                     1                     6                     8
                     3 -1.432791385536092E-012
                     1                     6                    10
                     5  2.112886254845847E-012
                     1                     7                     2
                     7 -1.523279766213470E-012
                     1                     7                     5
                    10 -2.450289970923336E-012
                     1                     7                     7
                     2  1.740170507691374E-012
                     1                     7                     9
                     4  1.042693709152331E-012
                     1                     7                    10
                     5  2.966481227328899E-012
                     1                     8                     2
                     8 -2.630616210974601E-012
                     1                     8                     3
                     7 -1.135397331708532E-012
                     1                     8                     7
                     3  1.289010564953230E-012
                     1                     8                     8
                     2  3.385011021483919E-012
                     1                     9                     2
                     9 -2.523651426722395E-012
                     1                     9                     3
                     8 -1.663144882230183E-012
                     1                     9                     7
                     2  1.221149049934755E-012
                     1                     9                     7
                     4  1.244251229826077E-012
                     1                     9                     8
                     3  1.789730256357425E-012
                     1                     9                     9
                     2  2.468705795344306E-012
                     1                    10                     2
                    10 -2.090858736147894E-012
                     1                    10                     5
                     7 -2.030629137061979E-012
                     1                    10                    10
                     2  2.937297974292541E-012
                     2                     2                     2
                     4  6.956857352917626E-012
                     2                     2                     4
                     2 -6.956887724739787E-012
                     2                     3                     1
                     3  1.341555339040568E-012
                     2                     3                     3
                     2 -1.957212170111688E-012
                     2                     3                     3
                     4  2.006828730971577E-011
                     2                     3                     4
                     3 -1.583776252506164E-011
                     2                     4                     1
                     4  1.279400196896319E-012
                     2                     4                     2
                     2 -6.956857352917626E-012
                     2                     4                     3
                     3  3.166439770702601E-012
                     2                     4                     4
                     2  1.454392162258955E-012
                     2                     4                     4
                     4  2.948902262018583E-012
                     2                     5                     1
                     5  1.145444850081390E-012
                     2                     5                     4
                     5 -1.598392078416833E-011
                     2                     5                     5
                     2  1.564981477741867E-011
                     2                     5                     5
                     4  2.290874781540886E-011
                     2                     6                     4
                     9 -1.359322376881522E-012
                     2                     6                     5
                    10 -2.623429251613629E-012
                     2                     6                    10
                     5  2.107237995208067E-012
                     2                     7                     1
                     7  1.523279766213470E-012
                     2                     7                     2
                     9  3.480020091539693E-012
                     2                     7                     3
                     8 -8.671396933834785E-012
                     2                     7                     4
                     6  1.051763710846476E-012
                     2                     7                     4
                     7 -1.348402813017291E-011
                     2                     7                     4
                     9 -9.758915897606357E-012
                     2                     7                     5
                    10 -4.391469132780657E-011
                     2                     7                     6
                     2 -1.740173977138326E-012
                     2                     7                     6
                     4 -1.221144713126066E-012
                     2                     7                     7
                     4  3.476845547578655E-012
                     2                     7                     8
                     3  8.671396933834785E-012
                     2                     7                     9
                     2  6.527157286884133E-012
                     2                     7                     9
                     4  9.758915897606357E-012
                     2                     7                    10
                     5  4.391469132780657E-011
                     2                     8                     1
                     8  2.630616210974601E-012
                     2                     8                     3
                     7 -6.759370840825341E-012
                     2                     8                     3
                     9 -1.130262723691988E-011
                     2                     8                     4
                     8 -2.588767047950746E-011
                     2                     8                     6
                     3 -1.289007095506278E-012
                     2                     8                     8
                     2  4.801714581503802E-012
                     2                     8                     8
                     4  3.137071852288287E-011
                     2                     8                     9
                     3  1.005005974274997E-011
                     2                     9                     1
                     6 -1.241791391937141E-012
                     2                     9                     1
                     9  2.523651426722395E-012
                     2                     9                     2
                     7 -3.480020091539693E-012
                     2                     9                     3
                     8 -1.748970065995614E-011
                     2                     9                     4
                     7 -5.954126081064715E-012
                     2                     9                     4
                     9 -3.918997071306052E-011
                     2                     9                     5
                    10 -7.216369862783623E-012
                     2                     9                     6
                     1  1.285516831872613E-012
                     2                     9                     6
                     4 -1.244272046507788E-012
                     2                     9                     7
                     2 -3.476842078131703E-012
                     2                     9                     8
                     3  2.065613305402003E-011
                     2                     9                     9
                     2  7.408740287928595E-012
                     2                     9                     9
                     4  4.213898674443328E-011
                     2                     9                    10
                     5  7.595528372927873E-012
                     2                    10                     1
                    10  2.090858736147894E-012
                     2                    10                     4
                    10 -1.739241389797641E-011
                     2                    10                     5
                     6 -1.275451966264995E-012
                     2                    10                     5
                     7 -3.610309273760492E-011
                     2                    10                     5
                     9 -8.892747649369426E-012
                     2                    10                     9
                     5  1.408238109457116E-012
                     2                    10                    10
                     2  5.175304629290167E-011
                     2                    10                    10
                     4  3.180174179551187E-011
                     3                     1                     3
                     2 -1.495345514079816E-012
                     3                     1                     3
                     4 -1.063172119786238E-012
                     3                     2                     1
                     3 -2.249544300836348E-012
                     3                     2                     2
                     3  1.957212170111688E-012
                     3                     2                     3
                     1  1.495345514079816E-012
                     3                     2                     3
                     4 -2.375646120794661E-012
                     3                     2                     4
                     3 -1.854887337476852E-012
                     3                     3                     2
                     4 -3.166439770702601E-012
                     3                     3                     4
                     2  3.166440358516996E-012
                     3                     4                     2
                     3 -2.006828730971577E-011
                     3                     4                     3
                     1  1.063172119786238E-012
                     3                     4                     3
                     2  2.375646120794661E-012
                     3                     4                     4
                     3  2.030609014269658E-011
                     3                     5                     5
                     3  5.414224624189501E-011
                     3                     6                     3
                     9 -1.044165622021698E-012
                     3                     7                     1
                     8  1.135397331708532E-012
                     3                     7                     2
                     8  6.759370840825341E-012
                     3                     7                     4
                     8  2.752903807690110E-012
                     3                     7                     6
                     3 -3.385016225654347E-012
                     3                     7                     7
                     3 -4.801714581503802E-012
                     3                     7                     8
                     4 -1.500339782967153E-012
                     3                     7                     9
                     3 -4.607873110851202E-012
                     3                     8                     1
                     6 -1.432791385536092E-012
                     3                     8                     1
                     9  1.663144882230183E-012
                     3                     8                     2
                     7  8.671396933834785E-012
                     3                     8                     2
                     9  1.748970065995614E-011
                     3                     8                     4
                     6  1.617650891710953E-012
                     3                     8                     4
                     7  1.566622005733098E-011
                     3                     8                     4
                     9 -1.068499455580962E-012
                     3                     8                     5
                    10 -3.344425431039966E-011
                     3                     8                     6
                     1  1.432794854983044E-012
                     3                     8                     6
                     4 -1.789716812250486E-012
                     3                     8                     7
                     2 -8.671396933834785E-012
                     3                     8                     7
                     4 -2.065603937895233E-011
                     3                     8                     9
                     1 -1.491078961690651E-012
                     3                     8                     9
                     2 -1.249987439944089E-011
                     3                     8                     9
                     4  1.068450883323635E-012
                     3                     8                    10
                     5  3.344426471874051E-011
                     3                     9                     2
                     8  1.130262723691988E-011
                     3                     9                     3
                     6  1.044165622021698E-012
                     3                     9                     7
                     3 -3.137074454373501E-011
                     3                     9                     8
                     2  1.500305088497633E-012
                     3                     9                     9
                     3  1.947098038357353E-011
                     3                    10                     5
                     8 -2.487765202174863E-011
                     3                    10                    10
                     3  7.902012377769552E-011
                     4                     2                     1
                     4 -1.616672073989633E-012
                     4                     2                     2
                     2  6.956887724739787E-012
                     4                     2                     2
                     4 -1.454392162258955E-012
                     4                     2                     3
                     3 -3.166440358516996E-012
                     4                     2                     4
                     4 -2.948911480992833E-012
                     4                     3                     2
                     3  1.583776252506164E-011
                     4                     3                     3
                     2  1.854887337476852E-012
                     4                     3                     3
                     4 -2.030609014269658E-011
                     4                     4                     2
                     4 -2.948902262018583E-012
                     4                     4                     4
                     2  2.948911480992833E-012
                     4                     5                     2
                     5  1.598392078416833E-011
                     4                     5                     5
                     2  1.087163605667518E-011
                     4                     5                     5
                     4  4.161071487374102E-011
                     4                     6                     2
                     7 -1.051763710846476E-012
                     4                     6                     3
                     8 -1.617650891710953E-012
                     4                     6                     8
                     3  1.491064650221974E-012
                     4                     6                     9
                     4  1.101565019756556E-012
                     4                     7                     2
                     7  1.348402813017291E-011
                     4                     7                     2
                     9  5.954126081064715E-012
                     4                     7                     3
                     8 -1.566622005733098E-011
                     4                     7                     4
                     9  4.127115316165941E-012
                     4                     7                     5
                    10 -4.217036442266675E-012
                     4                     7                     6
                     4 -2.468684978662594E-012
                     4                     7                     7
                     2 -6.527160756331085E-012
                     4                     7                     7
                     4 -7.408740287928595E-012
                     4                     7                     8
                     3  1.249978072437319E-011
                     4                     7                     9
                     4 -7.076256247628976E-012
                     4                     7                    10
                     5  3.837877932122424E-012
                     4                     8                     2
                     8  2.588767047950746E-011
                     4                     8                     3
                     7 -2.752903807690110E-012
                     4                     8                     7
                     3 -1.005002504828045E-011
                     4                     8                     8
                     2  4.607937295619813E-012
                     4                     8                     8
                     4 -1.947098038357353E-011
                     4                     9                     2
                     6  1.359322376881522E-012
                     4                     9                     2
                     7  9.758915897606357E-012
                     4                     9                     2
                     9  3.918997071306052E-011
                     4                     9                     3
                     8  1.068499455580962E-012
                     4                     9                     4
                     7 -4.127115316165941E-012
                     4                     9                     5
                    10 -3.850259694404556E-011
                     4                     9                     6
                     2 -1.042662484129764E-012
                     4                     9                     7
                     2 -9.758915897606357E-012
                     4                     9                     7
                     4 -4.213827897725508E-011
                     4                     9                     8
                     3 -1.068357208255932E-012
                     4                     9                     9
                     1 -1.101480018306233E-012
                     4                     9                     9
                     2  7.076270125416784E-012
                     4                     9                    10
                     5  3.850247898284920E-011
                     4                    10                     2
                    10  1.739241389797641E-011
                     4                    10                     5
                     7 -4.256144048309096E-012
                     4                    10                     5
                     9 -1.924330833569243E-011
                     4                    10                     7
                     5 -1.408234640010164E-012
                     4                    10                    10
                     2  1.512751729437767E-011
                     4                    10                    10
                     4  6.085398851496393E-011
                     5                     2                     2
                     5 -1.564981477741867E-011
                     5                     2                     4
                     5 -1.087163605667518E-011
                     5                     2                     5
                     4  3.946805555987698E-012
                     5                     3                     3
                     5 -5.414224624189501E-011
                     5                     4                     2
                     5 -2.290874781540886E-011
                     5                     4                     4
                     5 -4.161071487374102E-011
                     5                     4                     5
                     2 -3.946805555987698E-012
                     5                     6                     2
                    10  1.275451966264995E-012
                     5                     7                     1
                    10  2.030629137061979E-012
                     5                     7                     2
                    10  3.610309273760492E-011
                     5                     7                     4
                    10  4.256144048309096E-012
                     5                     7                     6
                     5 -2.937296239569065E-012
                     5                     7                     7
                     5 -5.175304629290167E-011
                     5                     7                     9
                     5 -1.512753117216548E-011
                     5                     7                    10
                     4  3.228365491603213E-012
                     5                     8                     3
                    10  2.487765202174863E-011
                     5                     8                     8
                     5 -7.902012377769552E-011
                     5                     9                     2
                    10  8.892747649369426E-012
                     5                     9                     4
                    10  1.924330833569243E-011
                     5                     9                     7
                     5 -3.180172097883016E-011
                     5                     9                     9
                     5 -6.085398851496393E-011
                     5                     9                    10
                     2 -3.228368961050165E-012
                     5                    10                     1
                     6  2.112886254845847E-012
                     5                    10                     1
                     7  2.450289970923336E-012
                     5                    10                     2
                     6  2.623429251613629E-012
                     5                    10                     2
                     7  4.391469132780657E-011
                     5                    10                     2
                     9  7.216369862783623E-012
                     5                    10                     3
                     8  3.344425431039966E-011
                     5                    10                     4
                     7  4.217036442266675E-012
                     5                    10                     4
                     9  3.850259694404556E-011
                     5                    10                     6
                     1 -2.112886254845847E-012
                     5                    10                     6
                     2 -2.966515921798418E-012
                     5                    10                     7
                     1 -2.107203300738547E-012
                     5                    10                     7
                     2 -4.391469132780657E-011
                     5                    10                     7
                     4 -7.595452045094930E-012
                     5                    10                     8
                     3 -3.344426818818746E-011
                     5                    10                     9
                     2 -3.837954259955367E-012
                     5                    10                     9
                     4 -3.850250673842481E-011
                     6                     1                     2
                     9 -1.285516831872613E-012
                     6                     1                     3
                     8 -1.432794854983044E-012
                     6                     1                     5
                    10  2.112886254845847E-012
                     6                     1                     7
                     4  1.241853841982277E-012
                     6                     1                     8
                     3  1.432794854983044E-012
                     6                     1                    10
                     5 -2.112886254845847E-012
                     6                     2                     2
                     7  1.740173977138326E-012
                     6                     2                     4
                     9  1.042662484129764E-012
                     6                     2                     5
                    10  2.966515921798418E-012
                     6                     2                     7
                     2 -1.523283235660422E-012
                     6                     2                    10
                     5 -2.450324665392856E-012
                     6                     3                     2
                     8  1.289007095506278E-012
                     6                     3                     3
                     7  3.385016225654347E-012
                     6                     3                     7
                     3 -2.630621415145029E-012
                     6                     3                     8
                     2 -1.135393862261580E-012
                     6                     4                     2
                     7  1.221144713126066E-012
                     6                     4                     2
                     9  1.244272046507788E-012
                     6                     4                     3
                     8  1.789716812250486E-012
                     6                     4                     4
                     7  2.468684978662594E-012
                     6                     4                     7
                     4 -2.523630610040684E-012
                     6                     4                     8
                     3 -1.663130570761506E-012
                     6                     5                     5
                     7  2.937296239569065E-012
                     6                     5                     7
                     5 -2.090857001424418E-012
                     6                     5                    10
                     2 -2.030615259274171E-012
                     6                     8                     7
                     8 -1.341555339040568E-012
                     6                     8                     8
                     7  2.249544300836348E-012
                     6                     9                     7
                     9 -1.279400196896319E-012
                     6                     9                     9
                     7  1.616672073989633E-012
                     6                    10                     7
                    10 -1.145444850081390E-012
                     7                     1                     5
                    10  2.107203300738547E-012
                     7                     1                     9
                     4 -1.359350132457138E-012
                     7                     1                    10
                     5 -2.623394557144110E-012
                     7                     2                     1
                     7 -1.740170507691374E-012
                     7                     2                     1
                     9 -1.221149049934755E-012
                     7                     2                     2
                     9  3.476842078131703E-012
                     7                     2                     3
                     8  8.671396933834785E-012
                     7                     2                     4
                     7  6.527160756331085E-012
                     7                     2                     4
                     9  9.758915897606357E-012
                     7                     2                     5
                    10  4.391469132780657E-011
                     7                     2                     6
                     2  1.523283235660422E-012
                     7                     2                     7
                     4  3.480018356816217E-012
                     7                     2                     8
                     3 -8.671396933834785E-012
                     7                     2                     9
                     1  1.051768047655166E-012
                     7                     2                     9
                     2 -1.348402292600248E-011
                     7                     2                     9
                     4 -9.758915897606357E-012
                     7                     2                    10
                     5 -4.391469132780657E-011
                     7                     3                     1
                     8 -1.289010564953230E-012
                     7                     3                     3
                     7  4.801714581503802E-012
                     7                     3                     3
                     9  3.137074454373501E-011
                     7                     3                     4
                     8  1.005002504828045E-011
                     7                     3                     6
                     3  2.630621415145029E-012
                     7                     3                     8
                     2 -6.759592885430266E-012
                     7                     3                     8
                     4 -1.130258907300341E-011
                     7                     3                     9
                     3 -2.588767047950746E-011
                     7                     4                     1
                     6  1.285582751364700E-012
                     7                     4                     1
                     9 -1.244251229826077E-012
                     7                     4                     2
                     7 -3.476845547578655E-012
                     7                     4                     3
                     8  2.065603937895233E-011
                     7                     4                     4
                     7  7.408740287928595E-012
                     7                     4                     4
                     9  4.213827897725508E-011
                     7                     4                     5
                    10  7.595452045094930E-012
                     7                     4                     6
                     1 -1.241853841982277E-012
                     7                     4                     6
                     4  2.523630610040684E-012
                     7                     4                     7
                     2 -3.480018356816217E-012
                     7                     4                     8
                     3 -1.748960004599454E-011
                     7                     4                     9
                     2 -5.954126081064715E-012
                     7                     4                     9
                     4 -3.918902702348959E-011
                     7                     4                    10
                     5 -7.216293534950680E-012
                     7                     5                     4
                    10  1.408234640010164E-012
                     7                     5                     5
                     7  5.175304629290167E-011
                     7                     5                     5
                     9  3.180172097883016E-011
                     7                     5                     6
                     5  2.090857001424418E-012
                     7                     5                     9
                     5 -1.739239308129470E-011
                     7                     5                    10
                     1 -1.275438088477188E-012
                     7                     5                    10
                     2 -3.610309273760492E-011
                     7                     5                    10
                     4 -8.892744179922474E-012
                     7                     7                     7
                     9  6.956861252523311E-012
                     7                     7                     9
                     7 -6.956888198917765E-012
                     7                     8                     6
                     8  1.341555339040568E-012
                     7                     8                     8
                     7 -1.958988526951089E-012
                     7                     8                     8
                     9  2.006828904443925E-011
                     7                     8                     9
                     8 -1.583775688721034E-011
                     7                     9                     6
                     9  1.279400196896319E-012
                     7                     9                     7
                     7 -6.956861252523311E-012
                     7                     9                     8
                     8  3.166438938881918E-012
                     7                     9                     9
                     7  1.454392162258955E-012
                     7                     9                     9
                     9  2.948885717804765E-012
                     7                    10                     6
                    10  1.145444850081390E-012
                     7                    10                     9
                    10 -1.598391904944485E-011
                     7                    10                    10
                     7  1.564981477741867E-011
                     7                    10                    10
                     9  2.290873046817410E-011
                     8                     1                     8
                     4 -1.044164754659960E-012
                     8                     2                     1
                     8 -3.385011021483919E-012
                     8                     2                     2
                     8 -4.801714581503802E-012
                     8                     2                     3
                     9 -1.500305088497633E-012
                     8                     2                     4
                     8 -4.607937295619813E-012
                     8                     2                     6
                     3  1.135393862261580E-012
                     8                     2                     7
                     3  6.759592885430266E-012
                     8                     2                     9
                     3  2.752872582667543E-012
                     8                     3                     1
                     6  1.432791385536092E-012
                     8                     3                     1
                     9 -1.789730256357425E-012
                     8                     3                     2
                     7 -8.671396933834785E-012
                     8                     3                     2
                     9 -2.065613305402003E-011
                     8                     3                     4
                     6 -1.491064650221974E-012
                     8                     3                     4
                     7 -1.249978072437319E-011
                     8                     3                     4
                     9  1.068357208255932E-012
                     8                     3                     5
                    10  3.344426818818746E-011
                     8                     3                     6
                     1 -1.432794854983044E-012
                     8                     3                     6
                     4  1.663130570761506E-012
                     8                     3                     7
                     2  8.671396933834785E-012
                     8                     3                     7
                     4  1.748960004599454E-011
                     8                     3                     9
                     1  1.617664335817892E-012
                     8                     3                     9
                     2  1.566631546712216E-011
                     8                     3                     9
                     4 -1.068319044339461E-012
                     8                     3                    10
                     5 -3.344427859652832E-011
                     8                     4                     2
                     8 -3.137071852288287E-011
                     8                     4                     3
                     7  1.500339782967153E-012
                     8                     4                     4
                     8  1.947098038357353E-011
                     8                     4                     7
                     3  1.130258907300341E-011
                     8                     4                     8
                     1  1.044164754659960E-012
                     8                     5                     5
                     8  7.902012377769552E-011
                     8                     5                    10
                     3 -2.487764855230168E-011
                     8                     6                     8
                     7 -1.495345514079816E-012
                     8                     6                     8
                     9 -1.063170385062762E-012
                     8                     7                     6
                     8 -2.249544300836348E-012
                     8                     7                     7
                     8  1.958988526951089E-012
                     8                     7                     8
                     6  1.495345514079816E-012
                     8                     7                     8
                     9 -2.375676912136360E-012
                     8                     7                     9
                     8 -1.854888204838590E-012
                     8                     8                     7
                     9 -3.166438938881918E-012
                     8                     8                     9
                     7  3.166439640251669E-012
                     8                     9                     7
                     8 -2.006828904443925E-011
                     8                     9                     8
                     6  1.063170385062762E-012
                     8                     9                     8
                     7  2.375676912136360E-012
                     8                     9                     9
                     8  2.030609014269658E-011
                     8                    10                    10
                     8  5.414224624189501E-011
                     9                     1                     3
                     8  1.491078961690651E-012
                     9                     1                     4
                     9  1.101480018306233E-012
                     9                     1                     7
                     2 -1.051768047655166E-012
                     9                     1                     8
                     3 -1.617664335817892E-012
                     9                     2                     1
                     9 -2.468705795344306E-012
                     9                     2                     2
                     7 -6.527157286884133E-012
                     9                     2                     2
                     9 -7.408740287928595E-012
                     9                     2                     3
                     8  1.249987439944089E-011
                     9                     2                     4
                     9 -7.076270125416784E-012
                     9                     2                     5
                    10  3.837954259955367E-012
                     9                     2                     7
                     2  1.348402292600248E-011
                     9                     2                     7
                     4  5.954126081064715E-012
                     9                     2                     8
                     3 -1.566631546712216E-011
                     9                     2                     9
                     4  4.126962660500055E-012
                     9                     2                    10
                     5 -4.217112770099618E-012
                     9                     3                     2
                     8 -1.005005974274997E-011
                     9                     3                     3
                     7  4.607873110851202E-012
                     9                     3                     3
                     9 -1.947098038357353E-011
                     9                     3                     7
                     3  2.588767047950746E-011
                     9                     3                     8
                     2 -2.752872582667543E-012
                     9                     4                     1
                     7 -1.042693709152331E-012
                     9                     4                     2
                     7 -9.758915897606357E-012
                     9                     4                     2
                     9 -4.213898674443328E-011
                     9                     4                     3
                     8 -1.068450883323635E-012
                     9                     4                     4
                     6 -1.101565019756556E-012
                     9                     4                     4
                     7  7.076256247628976E-012
                     9                     4                     5
                    10  3.850250673842481E-011
                     9                     4                     7
                     1  1.359350132457138E-012
                     9                     4                     7
                     2  9.758915897606357E-012
                     9                     4                     7
                     4  3.918902702348959E-011
                     9                     4                     8
                     3  1.068319044339461E-012
                     9                     4                     9
                     2 -4.126962660500055E-012
                     9                     4                    10
                     5 -3.850252408565957E-011
                     9                     5                     2
                    10 -1.408238109457116E-012
                     9                     5                     5
                     7  1.512753117216548E-011
                     9                     5                     5
                     9  6.085398851496393E-011
                     9                     5                     7
                     5  1.739239308129470E-011
                     9                     5                    10
                     2 -4.256140578862144E-012
                     9                     5                    10
                     4 -1.924328751901072E-011
                     9                     7                     6
                     9 -1.616672073989633E-012
                     9                     7                     7
                     7  6.956888198917765E-012
                     9                     7                     7
                     9 -1.454392162258955E-012
                     9                     7                     8
                     8 -3.166439640251669E-012
                     9                     7                     9
                     9 -2.948911594502485E-012
                     9                     8                     7
                     8  1.583775688721034E-011
                     9                     8                     8
                     7  1.854888204838590E-012
                     9                     8                     8
                     9 -2.030609014269658E-011
                     9                     9                     7
                     9 -2.948885717804765E-012
                     9                     9                     9
                     7  2.948911594502485E-012
                     9                    10                     7
                    10  1.598391904944485E-011
                     9                    10                    10
                     7  1.087163258722823E-011
                     9                    10                    10
                     9  4.161071487374102E-011
                    10                     1                     7
                     5  1.275438088477188E-012
                    10                     2                     1
                    10 -2.937297974292541E-012
                    10                     2                     2
                    10 -5.175304629290167E-011
                    10                     2                     4
                    10 -1.512751729437767E-011
                    10                     2                     5
                     9  3.228368961050165E-012
                    10                     2                     6
                     5  2.030615259274171E-012
                    10                     2                     7
                     5  3.610309273760492E-011
                    10                     2                     9
                     5  4.256140578862144E-012
                    10                     3                     3
                    10 -7.902012377769552E-011
                    10                     3                     8
                     5  2.487764855230168E-011
                    10                     4                     2
                    10 -3.180174179551187E-011
                    10                     4                     4
                    10 -6.085398851496393E-011
                    10                     4                     5
                     7 -3.228365491603213E-012
                    10                     4                     7
                     5  8.892744179922474E-012
                    10                     4                     9
                     5  1.924328751901072E-011
                    10                     5                     1
                     6 -2.112886254845847E-012
                    10                     5                     1
                     7 -2.966481227328899E-012
                    10                     5                     2
                     6 -2.107237995208067E-012
                    10                     5                     2
                     7 -4.391469132780657E-011
                    10                     5                     2
                     9 -7.595528372927873E-012
                    10                     5                     3
                     8 -3.344426471874051E-011
                    10                     5                     4
                     7 -3.837877932122424E-012
                    10                     5                     4
                     9 -3.850247898284920E-011
                    10                     5                     6
                     1  2.112886254845847E-012
                    10                     5                     6
                     2  2.450324665392856E-012
                    10                     5                     7
[...]
    6    7    8    4       -0.0256270720
    6    7    8    6        0.0004292192
    6    8    8    1        0.0003613829
    6    8    8    2       -0.0115091524
    6    8    8    4       -0.0054396007
    6    8    8    6        0.0179364779
    7    1    1    1        0.0000000004
    7    1    1    3       -0.0102522438
    7    1    1    7        0.0043932408
    7    1    1    8        0.0037861213
    7    2    1    1       -0.0000000003
    7    2    1    3       -0.0082036491
    7    2    1    7        0.0036392660
    7    2    1    8        0.0031224074
    7    3    1    1       -0.1640363454
    7    3    1    2        0.0005757016
    7    3    1    4       -0.0003233637
    7    3    1    6        0.0004954652
    7    4    1    1       -0.0000000001
    7    4    1    3        0.0027140648
    7    4    1    7       -0.0013230846
    7    4    1    8       -0.0013724921
    7    6    1    1       -0.0000000001
    7    6    1    3       -0.0039267150
    7    6    1    7        0.0017103121
    7    6    1    8        0.0014098065
    7    7    1    1        0.3336940133
    7    7    1    2       -0.0014108683
    7    7    1    4        0.0013689535
    7    7    1    6       -0.0001419029
    7    8    1    1        0.1089456006
    7    8    1    2       -0.0014587653
    7    8    1    4       -0.0002059041
    7    8    1    6       -0.0004745830
    7    1    2    3       -0.0110370548
    7    1    2    7        0.0036392660
    7    1    2    8        0.0026608597
    7    2    2    2       -0.0000000001
    7    2    2    3       -0.0327645682
    7    2    2    7        0.0125915353
    7    2    2    8        0.0098878363
    7    3    2    1        0.0014310753
    7    3    2    2       -0.0947446324
    7    3    2    4        0.0131840565
    7    3    2    6       -0.0204101225
    7    4    2    3        0.0146383889
    7    4    2    7       -0.0022564928
    7    4    2    8       -0.0025197593
    7    6    2    3       -0.0420764314
    7    6    2    7       -0.0006399827
    7    6    2    8       -0.0060256835
    7    7    2    1       -0.0014108683
    7    7    2    2        0.2978241590
    7    7    2    4        0.0098470778
    7    7    2    6        0.0076716704
    7    8    2    1       -0.0014313178
    7    8    2    2        0.0735569605
    7    8    2    4       -0.0004337559
    7    8    2    6        0.0066840117
    7    1    3    1       -0.0093633498
    7    1    3    2       -0.0108138155
    7    1    3    4        0.0015155228
    7    1    3    6       -0.0017689144
    7    2    3    1       -0.0081289184
    7    2    3    2       -0.0331699829
    7    2    3    3       -0.0000000001
    7    2    3    4        0.0049832445
    7    2    3    6       -0.0076229795
    7    3    3    3       -0.0832166547
    7    3    3    7        0.0307099778
    7    3    3    8        0.0242332257
    7    4    3    1        0.0028310704
    7    4    3    2        0.0156427315
    7    4    3    4       -0.0058670147
    7    4    3    6       -0.0058739434
    7    5    3    5       -0.0087863111
    7    6    3    1       -0.0039137574
    7    6    3    2       -0.0421490367
    7    6    3    4       -0.0141163164
    7    6    3    6        0.0184692210
    7    7    3    3        0.3014984008
    7    7    3    7       -0.0061172884
    7    7    3    8        0.0085602624
    7    8    3    3        0.0726078365
    7    8    3    7       -0.0103602950
    7    8    3    8        0.0041486751
    7    1    4    3        0.0015489366
    7    1    4    7       -0.0013230846
    7    1    4    8       -0.0029781425
    7    2    4    3        0.0048365073
    7    2    4    4       -0.0000000001
    7    2    4    7       -0.0022564928
    7    2    4    8       -0.0079967980
    7    3    4    1       -0.0003464260
    7    3    4    2        0.0140760147
    7    3    4    4       -0.0839919487
    7    3    4    6       -0.0134947224
    7    4    4    3       -0.0067085999
    7    4    4    7        0.0080724468
    7    4    4    8        0.0143177362
    7    6    4    3       -0.0139378940
    7    6    4    7       -0.0122584589
    7    6    4    8       -0.0256270720
    7    7    4    1        0.0013689535
    7    7    4    2        0.0098470778
    7    7    4    4        0.2835187600
    7    7    4    6       -0.0036381434
    7    8    4    1       -0.0000995420
    7    8    4    2       -0.0001117053
    7    8    4    4        0.0704500633
    7    8    4    6       -0.0000398190
    7    2    5    5       -0.0000000001
    7    3    5    5       -0.0888336877
    7    5    5    3       -0.0090264400
    7    5    5    7        0.0043976736
    7    5    5    8        0.0038012437
    7    7    5    5        0.2849923345
    7    8    5    5        0.0657608370
    7    1    6    3       -0.0021287883
    7    1    6    7        0.0017103121
    7    1    6    8        0.0004903201
    7    2    6    3       -0.0109033640
    7    2    6    7       -0.0006399827
    7    2    6    8       -0.0009446817
    7    3    6    1        0.0000615832
    7    3    6    2       -0.0232441595
    7    3    6    4       -0.0137570230
    7    3    6    6       -0.0082440525
    7    4    6    3       -0.0065661923
    7    4    6    7       -0.0122584589
    7    4    6    8       -0.0025090966
    7    6    6    3        0.0189056863
    7    6    6    6        0.0000000001
    7    6    6    7        0.0661052157
    7    6    6    8        0.0004292192
    7    7    6    1       -0.0001419029
    7    7    6    2        0.0076716704
    7    7    6    4       -0.0036381434
    7    7    6    6        0.2537863183
    7    7    6    7       -0.0000000001
    7    8    6    1       -0.0004610559
    7    8    6    2        0.0065882129
    7    8    6    4       -0.0007146264
    7    8    6    6        0.0254012958
    7    1    7    1        0.0046787420
    7    1    7    2        0.0040034954
    7    1    7    4       -0.0014099916
    7    1    7    6        0.0017037036
    7    2    7    1        0.0040034954
    7    2    7    2        0.0152190798
    7    2    7    4       -0.0026402921
    7    2    7    6       -0.0007652891
    7    3    7    3        0.0330488022
    7    3    7    7       -0.0061172884
    7    3    7    8       -0.0101895423
    7    4    7    1       -0.0014099916
    7    4    7    2       -0.0026402921
    7    4    7    4        0.0098241436
    7    4    7    6       -0.0123390583
    7    5    7    5        0.0061263802
    7    6    7    1        0.0017037036
    7    6    7    2       -0.0007652891
    7    6    7    4       -0.0123390583
    7    6    7    6        0.0661056897
    7    6    7    7       -0.0000000001
    7    7    7    3       -0.0061172884
    7    7    7    6       -0.0000000001
    7    7    7    7        0.2585026022
    7    7    7    8        0.0206112548
    7    8    7    3       -0.0101895423
    7    8    7    7        0.0206112548
    7    8    7    8        0.0195218976
    7    1    8    1        0.0040031434
    7    1    8    2        0.0029573784
    7    1    8    4       -0.0031008990
    7    1    8    6        0.0004733248
    7    2    8    1        0.0034036358
    7    2    8    2        0.0114513951
    7    2    8    4       -0.0084162581
    7    2    8    6       -0.0009015725
    7    3    8    3        0.0247213504
    7    3    8    7       -0.0103602950
    7    3    8    8       -0.0235125595
    7    4    8    1       -0.0014266672
    7    4    8    2       -0.0032604318
    7    4    8    4        0.0148140451
    7    4    8    6       -0.0021506067
    7    5    8    5        0.0044878996
    7    6    8    1        0.0014046624
    7    6    8    2       -0.0061641667
    7    6    8    4       -0.0260323579
    7    6    8    6        0.0004392534
    7    7    8    3        0.0085602624
    7    7    8    7        0.0206112548
    7    7    8    8        0.2673510797
    7    8    8    3        0.0053047616
    7    8    8    7        0.0195738567
    7    8    8    8        0.0459624349
    8    1    1    3       -0.0090666142
    8    1    1    7        0.0037861213
    8    1    1    8        0.0033116943
    8    2    1    3       -0.0061499170
    8    2    1    7        0.0026608597
    8    2    1    8        0.0024412898
    8    3    1    1       -0.1041680881
    8    3    1    2        0.0013511284
    8    3    1    4        0.0038366346
    8    3    1    6        0.0016417297
    8    4    1    3        0.0062032250
    8    4    1    7       -0.0029781425
    8    4    1    8       -0.0027846378
    8    6    1    3       -0.0011658213
    8    6    1    7        0.0004903201
    8    6    1    8        0.0003613829
    8    7    1    1        0.1089456006
    8    7    1    2       -0.0014313178
    8    7    1    4       -0.0000995420
    8    7    1    6       -0.0004610559
    8    8    1    1        0.4603468868
    8    8    1    2       -0.0012972469
    8    8    1    4        0.0001059071
    8    8    1    6       -0.0003444657
    8    1    2    3       -0.0094401984
    8    1    2    7        0.0031224074
    8    1    2    8        0.0024412898
    8    2    2    3       -0.0075310357
    8    2    2    7        0.0098878363
    8    2    2    8        0.0238699960
    8    3    2    1        0.0021607721
    8    3    2    2       -0.0260375426
    8    3    2    4        0.0481487907
    8    3    2    6       -0.0095292164
    8    4    2    3        0.0531652562
    8    4    2    7       -0.0079967980
    8    4    2    8        0.0023378878
    8    6    2    3       -0.0081651909
    8    6    2    7       -0.0009446817
    8    6    2    8       -0.0115091524
    8    7    2    1       -0.0014587653
    8    7    2    2        0.0735569605
    8    7    2    4       -0.0001117053
    8    7    2    6        0.0065882129
    8    8    2    1       -0.0012972469
    8    8    2    2        0.4290038967
    8    8    2    4        0.0081565821
    8    8    2    6        0.0136264930
    8    1    3    1       -0.0080791172
    8    1    3    2       -0.0091505321
    8    1    3    4        0.0018952173
    8    1    3    6       -0.0013743212
    8    2    3    1       -0.0058171827
    8    2    3    2       -0.0066985876
    8    2    3    4        0.0239267280
    8    2    3    6       -0.0069358034
    8    3    3    3       -0.0123215049
    8    3    3    7        0.0242332257
    8    3    3    8        0.0548337886
    8    4    3    1        0.0067291903
    8    4    3    2        0.0563438608
    8    4    3    4        0.0028115884
    8    4    3    6       -0.0114371235
    8    5    3    5       -0.0093737458
    8    6    3    1       -0.0010539671
    8    6    3    2       -0.0077735007
    8    6    3    4       -0.0112677810
    8    6    3    6        0.0011404249
    8    7    3    3        0.0726078365
    8    7    3    7       -0.0101895423
    8    7    3    8        0.0053047616
    8    8    3    3        0.4338673816
    8    8    3    7       -0.0235125595
    8    8    3    8        0.0178157301
    8    1    4    3        0.0019119052
    8    1    4    7       -0.0013724921
    8    1    4    8       -0.0027846378
    8    2    4    3        0.0235352103
    8    2    4    7       -0.0025197593
    8    2    4    8        0.0023378878
    8    3    4    1        0.0043280057
    8    3    4    2        0.0509750781
    8    3    4    4       -0.0411377594
    8    3    4    6       -0.0145956195
    8    4    4    3        0.0013549643
    8    4    4    7        0.0143177362
    8    4    4    8        0.0415870633
    8    6    4    3       -0.0112639773
    8    6    4    7       -0.0025090966
    8    6    4    8       -0.0054396007
    8    7    4    1       -0.0002059041
    8    7    4    2       -0.0004337559
    8    7    4    4        0.0704500633
    8    7    4    6       -0.0007146264
    8    8    4    1        0.0001059071
    8    8    4    2        0.0081565821
    8    8    4    4        0.4175560311
    8    8    4    6        0.0053080098
    8    3    5    5       -0.0437277715
    8    5    5    3       -0.0093499558
    8    5    5    7        0.0038012437
    8    5    5    8        0.0075725387
    8    7    5    5        0.0657608370
    8    8    5    5        0.4009382188
    8    1    6    3       -0.0017685592
    8    1    6    7        0.0014098065
    8    1    6    8        0.0003613829
    8    2    6    3       -0.0101575730
    8    2    6    7       -0.0060256835
    8    2    6    8       -0.0115091524
    8    3    6    1        0.0013532411
    8    3    6    2       -0.0116731539
    8    3    6    4       -0.0148644849
    8    3    6    6        0.0128994254
    8    4    6    3       -0.0125526967
    8    4    6    7       -0.0256270720
    8    4    6    8       -0.0054396007
    8    6    6    3        0.0007011390
    8    6    6    7        0.0004292192
    8    6    6    8        0.0179364779
    8    7    6    1       -0.0004745830
    8    7    6    2        0.0066840117
    8    7    6    4       -0.0000398190
    8    7    6    6        0.0254012958
    8    8    6    1       -0.0003444657
    8    8    6    2        0.0136264930
    8    8    6    4        0.0053080098
    8    8    6    6        0.2854317596
    8    1    7    1        0.0040031434
    8    1    7    2        0.0034036358
    8    1    7    4       -0.0014266672
    8    1    7    6        0.0014046624
    8    2    7    1        0.0029573784
    8    2    7    2        0.0114513951
    8    2    7    4       -0.0032604318
    8    2    7    6       -0.0061641667
    8    3    7    3        0.0247213504
    8    3    7    7        0.0085602624
    8    3    7    8        0.0053047616
    8    4    7    1       -0.0031008990
    8    4    7    2       -0.0084162581
    8    4    7    4        0.0148140451
    8    4    7    6       -0.0260323579
    8    5    7    5        0.0044878996
    8    6    7    1        0.0004733248
    8    6    7    2       -0.0009015725
    8    6    7    4       -0.0021506067
    8    6    7    6        0.0004392534
    8    7    7    3       -0.0103602950
    8    7    7    7        0.0206112548
    8    7    7    8        0.0195738567
    8    8    7    3       -0.0235125595
    8    8    7    7        0.2673510797
    8    8    7    8        0.0459624349
    8    1    8    1        0.0033977979
    8    1    8    2        0.0027378934
    8    1    8    4       -0.0027559668
    8    1    8    6        0.0003653832
    8    2    8    1        0.0027378934
    8    2    8    2        0.0261427527
    8    2    8    4        0.0030120526
    8    2    8    6       -0.0106563363
    8    3    8    3        0.0556492993
    8    3    8    7        0.0041486751
    8    3    8    8        0.0178157301
    8    4    8    1       -0.0027559668
    8    4    8    2        0.0030120526
    8    4    8    4        0.0409897543
    8    4    8    6       -0.0047056405
    8    5    8    5        0.0070757146
    8    6    8    1        0.0003653832
    8    6    8    2       -0.0106563363
    8    6    8    4       -0.0047056405
    8    6    8    6        0.0179184968
    8    7    8    3        0.0041486751
    8    7    8    7        0.0195218976
    8    7    8    8        0.0459624349
    8    8    8    3        0.0178157301
    8    8    8    7        0.0459624349
    8    8    8    8        0.3731693789
 end_two_electron_integrals

 Task  times  cpu:      657.7s     wall:      657.7s
 
 
                                NWChem Input Module
                                -------------------
 
 
 Summary of allocated global arrays
-----------------------------------
  No active global arrays


MA_summarize_allocated_blocks: starting scan ...
MA_summarize_allocated_blocks: scan completed: 0 heap blocks, 0 stack blocks
MA usage statistics:

	allocation statistics:
					      heap	     stack
					      ----	     -----
	current number of blocks	         0	         0
	maximum number of blocks	        16	        42
	current total bytes		         0	         0
	maximum total bytes		     80104	4725685704
	maximum total K-bytes		        81	   4725686
	maximum total M-bytes		         1	      4726
 
 
                                     CITATION
                                     --------
                Please cite the following reference when publishing
                           results obtained with NWChem:
 
          E. Apra, E. J. Bylaska, W. A. de Jong, N. Govind, K. Kowalski,
       T. P. Straatsma, M. Valiev, H. J. J. van Dam, Y. Alexeev, J. Anchell,
       V. Anisimov, F. W. Aquino, R. Atta-Fynn, J. Autschbach, N. P. Bauman,
     J. C. Becca, D. E. Bernholdt, K. Bhaskaran-Nair, S. Bogatko, P. Borowski,
         J. Boschen, J. Brabec, A. Bruner, E. Cauet, Y. Chen, G. N. Chuev,
      C. J. Cramer, J. Daily, M. J. O. Deegan, T. H. Dunning Jr., M. Dupuis,
   K. G. Dyall, G. I. Fann, S. A. Fischer, A. Fonari, H. Fruchtl, L. Gagliardi,
      J. Garza, N. Gawande, S. Ghosh, K. Glaesemann, A. W. Gotz, J. Hammond,
       V. Helms, E. D. Hermes, K. Hirao, S. Hirata, M. Jacquelin, L. Jensen,
   B. G. Johnson, H. Jonsson, R. A. Kendall, M. Klemm, R. Kobayashi, V. Konkov,
      S. Krishnamoorthy, M. Krishnan, Z. Lin, R. D. Lins, R. J. Littlefield,
      A. J. Logsdail, K. Lopata, W. Ma, A. V. Marenich, J. Martin del Campo,
   D. Mejia-Rodriguez, J. E. Moore, J. M. Mullin, T. Nakajima, D. R. Nascimento,
    J. A. Nichols, P. J. Nichols, J. Nieplocha, A. Otero-de-la-Roza, B. Palmer,
    A. Panyala, T. Pirojsirikul, B. Peng, R. Peverati, J. Pittner, L. Pollack,
   R. M. Richard, P. Sadayappan, G. C. Schatz, W. A. Shelton, D. W. Silverstein,
   D. M. A. Smith, T. A. Soares, D. Song, M. Swart, H. L. Taylor, G. S. Thomas,
            V. Tipparaju, D. G. Truhlar, K. Tsemekhman, T. Van Voorhis,
      A. Vazquez-Mayagoitia, P. Verma, O. Villa, A. Vishnu, K. D. Vogiatzis,
        D. Wang, J. H. Weare, M. J. Williamson, T. L. Windus, K. Wolinski,
        A. T. Wong, Q. Wu, C. Yang, Q. Yu, M. Zacharias, Z. Zhang, Y. Zhao,
                                and R. J. Harrison
                        "NWChem: Past, present, and future
                         J. Chem. Phys. 152, 184102 (2020)
                               doi:10.1063/5.0004997
 
                                      AUTHORS
                                      -------
  E. Apra, E. J. Bylaska, N. Govind, K. Kowalski, M. Valiev, D. Mejia-Rodriguez,
       A. Kunitsa, N. P. Bauman, A. Panyala, W. A. de Jong, T. P. Straatsma,
   H. J. J. van Dam, D. Wang, T. L. Windus, J. Hammond, J. Autschbach, A. Woods,
    K. Bhaskaran-Nair, J. Brabec, K. Lopata, S. A. Fischer, S. Krishnamoorthy,
     M. Jacquelin, W. Ma, M. Klemm, O. Villa, Y. Chen, V. Anisimov, F. Aquino,
     S. Hirata, M. T. Hackler, E. Hermes, L. Jensen, J. E. Moore, J. C. Becca,
      V. Konjkov, T. Risthaus, M. Malagoli, A. Marenich, A. Otero-de-la-Roza,
        J. Mullin, P. Nichols, R. Peverati, J. Pittner, Y. Zhao, P.-D. Fan,
        A. Fonari, M. J. Williamson, R. J. Harrison, J. R. Rehr, M. Dupuis,
     D. Silverstein, D. M. A. Smith, J. Nieplocha, V. Tipparaju, M. Krishnan,
     B. E. Van Kuiken, A. Vazquez-Mayagoitia, M. Swart, Q. Wu, T. Van Voorhis,
     A. A. Auer, M. Nooijen, L. D. Crosby, E. Brown, G. Cisneros, G. I. Fann,
   H. Fruchtl, J. Garza, K. Hirao, R. A. Kendall, J. A. Nichols, K. Tsemekhman,
    K. Wolinski, J. Anchell, D. E. Bernholdt, P. Borowski, T. Clark, D. Clerc,
   H. Dachsel, M. J. O. Deegan, K. Dyall, D. Elwood, E. Glendening, M. Gutowski,
   A. C. Hess, J. Jaffe, B. G. Johnson, J. Ju, R. Kobayashi, R. Kutteh, Z. Lin,
   R. Littlefield, X. Long, B. Meng, T. Nakajima, S. Niu, L. Pollack, M. Rosing,
   K. Glaesemann, G. Sandrone, M. Stave, H. Taylor, G. Thomas, J. H. van Lenthe,
                               A. T. Wong, Z. Zhang.

 Total times  cpu:      658.1s     wall:      658.1s
