 argument  1 = input.nw
  NWChem w/ OpenMP: maximum threads =    1
 


============================== echo of input deck ==============================
 echo
 start H2O
 title "H2O"

 memory total 24 gb

 geometry units angstrom
 symmetry c1
   zmatrix
     O
     H1 O 0.97551
     H2 O 0.97551 H1 107.80
   end
 end

 basis spherical
   * library cc-pVTZ
 end

 tce
   2eorb
   2emet 13
   ccsd
   maxiter 300
 end

# set tce:print_integrals T
# set tce:qorb 8
# set tce:qela 5
# set tce:qelb 5

 set tce:qducc T
 set tce:nactv 3
 set tce:nonhf T
 set tce:ducc_model 6

 set tce:printtol 0.02

 task tce
================================================================================


                                         
                                         
 
 
             Northwest Computational Chemistry Package (NWChem) 7.2.3
             --------------------------------------------------------
 
 
                    Environmental Molecular Sciences Laboratory
                       Pacific Northwest National Laboratory
                                Richland, WA 99352
 
                              Copyright (c) 1994-2022
                       Pacific Northwest National Laboratory
                            Battelle Memorial Institute
 
             NWChem is an open-source computational chemistry package
                        distributed under the terms of the
                      Educational Community License (ECL) 2.0
             A copy of the license is included with this distribution
                              in the LICENSE.TXT file
 
                                  ACKNOWLEDGMENT
                                  --------------

            This software and its documentation were developed at the
            EMSL at Pacific Northwest National Laboratory, a multiprogram
            national laboratory, operated for the U.S. Department of Energy
            by Battelle under Contract Number DE-AC05-76RL01830. Support
            for this work was provided by the Department of Energy Office
            of Biological and Environmental Research, Office of Basic
            Energy Sciences, and the Office of Advanced Scientific Computing.


           Job information
           ---------------

    hostname        = koothan
    program         = /hpc/home/baum612/code/nwchem/bin/LINUX64/nwchem
    date            = Fri Nov 22 00:36:10 2024

    compiled        = Thu_Nov_21_17:16:59_2024
    source          = /hpc/home/baum612/code/nwchem
    nwchem branch   = 7.2.3
    nwchem revision = v7.2.0-beta1-1291-g6d839a76f0
    ga revision     = 5.8.0
    use scalapack   = T
    input           = input.nw
    prefix          = H2O.
    data base       = ./H2O.db
    status          = startup
    nproc           =        1
    time left       =     -1s



           Memory information
           ------------------

    heap     =    805306368 doubles =     6144.0 Mbytes
    stack    =    805306365 doubles =     6144.0 Mbytes
    global   =   1610612736 doubles =    12288.0 Mbytes (distinct from heap & stack)
    total    =   3221225469 doubles =    24576.0 Mbytes
    verify   = yes
    hardfail = no 


           Directory information
           ---------------------
 
  0 permanent = .
  0 scratch   = .
 
 
 
 
                                NWChem Input Module
                                -------------------
 
 
                                        H2O
                                        ---

 Scaling coordinates for geometry "geometry" by  1.889725989
 (inverse scale =  0.529177249)

 Turning off AUTOSYM since
 SYMMETRY directive was detected!
 
 
 
                             Geometry "geometry" -> ""
                             -------------------------
 
 Output coordinates in angstroms (scale by  1.889725989 to convert to a.u.)
 
  No.       Tag          Charge          X              Y              Z
 ---- ---------------- ---------- -------------- -------------- --------------
    1 O                    8.0000    -0.09288117     0.00000000    -0.06773012
    2 H1                   1.0000    -0.09288117     0.00000000     0.90777988
    3 H2                   1.0000     0.83593057     0.00000000    -0.36593894
 
      Atomic Mass 
      ----------- 
 
      O                 15.994910
      H1                 1.007825
      H2                 1.007825
 

 Effective nuclear repulsion energy (a.u.)       9.0150805761

            Nuclear Dipole moment (a.u.) 
            ----------------------------
        X                 Y               Z
 ---------------- ---------------- ----------------
     0.0000000000     0.0000000000     0.0000000000
 


                                Z-matrix (user)
                                -------- 

 Units are Angstrom for bonds and degrees for angles
 
      Type          Name      I     J     K     L     M      Value
      ----------- --------  ----- ----- ----- ----- ----- ----------
    1 Stretch                  2     1                       0.97551
    2 Stretch                  3     1                       0.97551
    3 Bend                     3     1     2               107.80000
 
 
            XYZ format geometry
            -------------------
     3
 geometry
 O                    -0.09288117     0.00000000    -0.06773012
 H1                   -0.09288117     0.00000000     0.90777988
 H2                    0.83593057     0.00000000    -0.36593894
 
 ==============================================================================
                                internuclear distances
 ------------------------------------------------------------------------------
       center one      |      center two      | atomic units |  angstroms
 ------------------------------------------------------------------------------
    2 H1               |   1 O                |     1.84345  |     0.97551
    3 H2               |   1 O                |     1.84345  |     0.97551
 ------------------------------------------------------------------------------
                         number of included internuclear distances:          2
 ==============================================================================



 ==============================================================================
                                 internuclear angles
 ------------------------------------------------------------------------------
        center 1       |       center 2       |       center 3       |  degrees
 ------------------------------------------------------------------------------
    2 H1               |   1 O                |   3 H2               |   107.80
 ------------------------------------------------------------------------------
                            number of included internuclear angles:          1
 ==============================================================================





 Summary of "ao basis" -> "" (spherical)
 ------------------------------------------------------------------------------
       Tag                 Description            Shells   Functions and Types
 ---------------- ------------------------------  ------  ---------------------
 *                          cc-pVTZ                   on all atoms 


                      Basis "ao basis" -> "ao basis" (spherical)
                      -----
  O (Oxygen)
  ----------
            Exponent  Coefficients 
       -------------- ---------------------------------------------------------
  1 S  1.53300000E+04  0.000508
  1 S  2.29900000E+03  0.003929
  1 S  5.22400000E+02  0.020243
  1 S  1.47300000E+02  0.079181
  1 S  4.75500000E+01  0.230687
  1 S  1.67600000E+01  0.433118
  1 S  6.20700000E+00  0.350260
  1 S  6.88200000E-01 -0.008154
 
  2 S  1.53300000E+04 -0.000115
  2 S  2.29900000E+03 -0.000895
  2 S  5.22400000E+02 -0.004636
  2 S  1.47300000E+02 -0.018724
  2 S  4.75500000E+01 -0.058463
  2 S  1.67600000E+01 -0.136463
  2 S  6.20700000E+00 -0.175740
  2 S  6.88200000E-01  0.603418
 
  3 S  1.75200000E+00  1.000000
 
  4 S  2.38400000E-01  1.000000
 
  5 P  3.44600000E+01  0.015928
  5 P  7.74900000E+00  0.099740
  5 P  2.28000000E+00  0.310492
 
  6 P  7.15600000E-01  1.000000
 
  7 P  2.14000000E-01  1.000000
 
  8 D  2.31400000E+00  1.000000
 
  9 D  6.45000000E-01  1.000000
 
 10 F  1.42800000E+00  1.000000
 
  H1 (Hydrogen)
  -------------
            Exponent  Coefficients 
       -------------- ---------------------------------------------------------
  1 S  3.38700000E+01  0.006068
  1 S  5.09500000E+00  0.045308
  1 S  1.15900000E+00  0.202822
 
  2 S  3.25800000E-01  1.000000
 
  3 S  1.02700000E-01  1.000000
 
  4 P  1.40700000E+00  1.000000
 
  5 P  3.88000000E-01  1.000000
 
  6 D  1.05700000E+00  1.000000
 
  H2 (Hydrogen)
  -------------
            Exponent  Coefficients 
       -------------- ---------------------------------------------------------
  1 S  3.38700000E+01  0.006068
  1 S  5.09500000E+00  0.045308
  1 S  1.15900000E+00  0.202822
 
  2 S  3.25800000E-01  1.000000
 
  3 S  1.02700000E-01  1.000000
 
  4 P  1.40700000E+00  1.000000
 
  5 P  3.88000000E-01  1.000000
 
  6 D  1.05700000E+00  1.000000
 


 Summary of "ao basis" -> "ao basis" (spherical)
 ------------------------------------------------------------------------------
       Tag                 Description            Shells   Functions and Types
 ---------------- ------------------------------  ------  ---------------------
 O                          cc-pVTZ                 10       30   4s3p2d1f
 H1                         cc-pVTZ                  6       14   3s2p1d
 H2                         cc-pVTZ                  6       14   3s2p1d


                                 NWChem SCF Module
                                 -----------------
 
 
                                        H2O
 
 

  ao basis        = "ao basis"
  functions       =    58
  atoms           =     3
  closed shells   =     5
  open shells     =     0
  charge          =   0.00
  wavefunction    = RHF 
  input vectors   = atomic
  output vectors  = ./H2O.movecs
  use symmetry    = F
  symmetry adapt  = F


 Summary of "ao basis" -> "ao basis" (spherical)
 ------------------------------------------------------------------------------
       Tag                 Description            Shells   Functions and Types
 ---------------- ------------------------------  ------  ---------------------
 O                          cc-pVTZ                 10       30   4s3p2d1f
 H1                         cc-pVTZ                  6       14   3s2p1d
 H2                         cc-pVTZ                  6       14   3s2p1d



 Forming initial guess at       0.4s

 
      Superposition of Atomic Density Guess
      -------------------------------------
 
 Sum of atomic energies:         -75.78028790
 
      Non-variational initial energy
      ------------------------------

 Total energy =     -75.906723
 1-e energy   =    -121.468777
 2-e energy   =      36.546973
 HOMO         =      -0.472113
 LUMO         =       0.061838
 

 Starting SCF solution at       0.5s



 ----------------------------------------------
         Quadratically convergent ROHF

 Convergence threshold     :          1.000E-04
 Maximum no. of iterations :           30
 Final Fock-matrix accuracy:          1.000E-07
 ----------------------------------------------


              iter       energy          gnorm     gmax       time
             ----- ------------------- --------- --------- --------
                 1      -76.0203455454  8.44D-01  2.94D-01      0.6
                 2      -76.0528187560  1.96D-01  6.18D-02      0.9
                 3      -76.0550373119  1.61D-02  6.32D-03      1.3
                 4      -76.0550607980  6.66D-05  3.46D-05      1.9


       Final RHF  results 
       ------------------ 

         Total SCF energy =    -76.055060797956
      One-electron energy =   -122.808839554082
      Two-electron energy =     37.738698180045
 Nuclear repulsion energy =      9.015080576080

        Time for solution =      1.4s


             Final eigenvalues
             -----------------

              1      
    1  -20.5562
    2   -1.3340
    3   -0.7058
    4   -0.5678
    5   -0.5019
    6    0.1408
    7    0.2017
    8    0.5426
    9    0.5793
   10    0.6748
   11    0.7878
   12    0.8029
   13    0.8157
   14    0.8505
   15    0.9671
 
                       ROHF Final Molecular Orbital Analysis
                       -------------------------------------
 
 Vector    2  Occ=2.000000D+00  E=-1.334027D+00
              MO Center=  3.5D-02, -1.2D-16,  2.6D-02, r^2= 5.1D-01
   Bfn.  Coefficient  Atom+Function         Bfn.  Coefficient  Atom+Function  
  ----- ------------  ---------------      ----- ------------  ---------------
     2      0.507333  1 O  s                  4      0.290581  1 O  s          
 
 Vector    3  Occ=2.000000D+00  E=-7.057939D-01
              MO Center=  7.8D-02,  2.7D-16,  5.7D-02, r^2= 7.8D-01
   Bfn.  Coefficient  Atom+Function         Bfn.  Coefficient  Atom+Function  
  ----- ------------  ---------------      ----- ------------  ---------------
    10      0.274593  1 O  pz                 7      0.226113  1 O  pz         
    32      0.217451  2 H  s                 46     -0.217451  3 H  s          
     8     -0.200237  1 O  px                 5     -0.164884  1 O  px         
 
 Vector    4  Occ=2.000000D+00  E=-5.678017D-01
              MO Center= -1.2D-01, -3.0D-16, -8.8D-02, r^2= 7.1D-01
   Bfn.  Coefficient  Atom+Function         Bfn.  Coefficient  Atom+Function  
  ----- ------------  ---------------      ----- ------------  ---------------
     8      0.311555  1 O  px                 4     -0.264589  1 O  s          
     5      0.253763  1 O  px                11      0.231213  1 O  px         
    10      0.227190  1 O  pz                 7      0.185047  1 O  pz         
     2     -0.171130  1 O  s                 13      0.168603  1 O  pz         
 
 Vector    5  Occ=2.000000D+00  E=-5.018769D-01
              MO Center= -6.7D-02, -2.7D-17, -4.9D-02, r^2= 6.4D-01
   Bfn.  Coefficient  Atom+Function         Bfn.  Coefficient  Atom+Function  
  ----- ------------  ---------------      ----- ------------  ---------------
     9      0.444423  1 O  py                12      0.377675  1 O  py         
     6      0.357261  1 O  py         
 
 Vector    6  Occ=0.000000D+00  E= 1.407784D-01
              MO Center=  4.9D-01,  6.8D-18,  3.5D-01, r^2= 3.7D+00
   Bfn.  Coefficient  Atom+Function         Bfn.  Coefficient  Atom+Function  
  ----- ------------  ---------------      ----- ------------  ---------------
     4      1.513053  1 O  s                 33     -0.914433  2 H  s          
    47     -0.914433  3 H  s                 11      0.364109  1 O  px         
    32     -0.273345  2 H  s                 46     -0.273345  3 H  s          
    13      0.265513  1 O  pz                39      0.175321  2 H  pz         
    51      0.165989  3 H  px                 8      0.153356  1 O  px         
 
 Vector    7  Occ=0.000000D+00  E= 2.017123D-01
              MO Center=  5.5D-01,  6.4D-17,  4.0D-01, r^2= 4.7D+00
   Bfn.  Coefficient  Atom+Function         Bfn.  Coefficient  Atom+Function  
  ----- ------------  ---------------      ----- ------------  ---------------
    33      1.707046  2 H  s                 47     -1.707046  3 H  s          
    13     -0.683843  1 O  pz                11      0.498667  1 O  px         
    39     -0.165580  2 H  pz                10     -0.164069  1 O  pz         
    51      0.160031  3 H  px         
 
 Vector    8  Occ=0.000000D+00  E= 5.425616D-01
              MO Center=  4.2D-02, -4.6D-17,  3.1D-02, r^2= 2.3D+00
   Bfn.  Coefficient  Atom+Function         Bfn.  Coefficient  Atom+Function  
  ----- ------------  ---------------      ----- ------------  ---------------
    32      1.504556  2 H  s                 46     -1.504556  3 H  s          
    13     -0.961316  1 O  pz                11      0.701003  1 O  px         
    33     -0.620179  2 H  s                 47      0.620179  3 H  s          
    10     -0.216430  1 O  pz                 8      0.157824  1 O  px         
 
 Vector    9  Occ=0.000000D+00  E= 5.793363D-01
              MO Center=  4.3D-01,  6.9D-16,  3.1D-01, r^2= 2.1D+00
   Bfn.  Coefficient  Atom+Function         Bfn.  Coefficient  Atom+Function  
  ----- ------------  ---------------      ----- ------------  ---------------
    32      1.262031  2 H  s                 46      1.262031  3 H  s          
    33     -0.607575  2 H  s                 47     -0.607575  3 H  s          
     4     -0.445898  1 O  s                 11     -0.391609  1 O  px         
    13     -0.285566  1 O  pz                53     -0.229871  3 H  pz         
     2     -0.189495  1 O  s                 37     -0.189278  2 H  px         
 
 Vector   10  Occ=0.000000D+00  E= 6.747669D-01
              MO Center= -2.6D-01,  5.3D-16, -1.9D-01, r^2= 2.3D+00
   Bfn.  Coefficient  Atom+Function         Bfn.  Coefficient  Atom+Function  
  ----- ------------  ---------------      ----- ------------  ---------------
     4      4.451339  1 O  s                 32     -2.219117  2 H  s          
    46     -2.219118  3 H  s                 11      2.073624  1 O  px         
    13      1.512112  1 O  pz                39      1.127591  2 H  pz         
    51      1.048231  3 H  px                33     -0.446569  2 H  s          
    47     -0.446569  3 H  s                 53     -0.423753  3 H  pz         
 
 Vector   11  Occ=0.000000D+00  E= 7.878216D-01
              MO Center= -5.7D-02,  2.8D-16, -4.2D-02, r^2= 1.7D+00
   Bfn.  Coefficient  Atom+Function         Bfn.  Coefficient  Atom+Function  
  ----- ------------  ---------------      ----- ------------  ---------------
    12      1.136942  1 O  py                 9     -0.775256  1 O  py         
     6     -0.259281  1 O  py         
 
 Vector   12  Occ=0.000000D+00  E= 8.029442D-01
              MO Center= -6.8D-02,  3.0D-15, -4.9D-02, r^2= 3.0D+00
   Bfn.  Coefficient  Atom+Function         Bfn.  Coefficient  Atom+Function  
  ----- ------------  ---------------      ----- ------------  ---------------
    13      2.406226  1 O  pz                11     -1.754650  1 O  px         
    32     -1.579928  2 H  s                 46      1.579928  3 H  s          
    33     -1.418168  2 H  s                 47      1.418168  3 H  s          
    39      1.149048  2 H  pz                51     -1.100479  3 H  px         
    21      0.365556  1 O  d  0              53      0.331210  3 H  pz         
 
 Vector   13  Occ=0.000000D+00  E= 8.156624D-01
              MO Center=  1.2D-01, -1.2D-15,  9.0D-02, r^2= 2.1D+00
   Bfn.  Coefficient  Atom+Function         Bfn.  Coefficient  Atom+Function  
  ----- ------------  ---------------      ----- ------------  ---------------
    11      1.139269  1 O  px                32     -1.022214  2 H  s          
    46     -1.022214  3 H  s                 37     -0.890891  2 H  px         
    53     -0.863058  3 H  pz                13      0.830769  1 O  pz         
     4      0.741864  1 O  s                 33      0.257351  2 H  s          
    47      0.257351  3 H  s                 51     -0.226200  3 H  px         
 
 Vector   14  Occ=0.000000D+00  E= 8.504505D-01
              MO Center=  3.6D-01, -2.5D-15,  2.6D-01, r^2= 1.7D+00
   Bfn.  Coefficient  Atom+Function         Bfn.  Coefficient  Atom+Function  
  ----- ------------  ---------------      ----- ------------  ---------------
    38      0.832787  2 H  py                52     -0.832787  3 H  py         
 
 Vector   15  Occ=0.000000D+00  E= 9.670783D-01
              MO Center=  1.6D-01,  1.5D-15,  1.2D-01, r^2= 2.0D+00
   Bfn.  Coefficient  Atom+Function         Bfn.  Coefficient  Atom+Function  
  ----- ------------  ---------------      ----- ------------  ---------------
    12      1.160832  1 O  py                38     -1.002559  2 H  py         
    52     -1.002559  3 H  py         
 

 center of mass
 --------------
 x =  -0.07730347 y =   0.00000000 z =  -0.05637066

 moments of inertia (a.u.)
 ------------------
           3.652555796957           0.000000000000           1.123545008041
           0.000000000000           6.583649917610           0.000000000000
           1.123545008041           0.000000000000           2.931094120653
 
  Mulliken analysis of the total density
  --------------------------------------

    Atom       Charge   Shell Charges
 -----------   ------   -------------------------------------------------------
    1 O    8     8.50   1.95  1.00  0.23  0.60  1.26  2.14  1.30  0.00  0.02  0.00
    2 H    1     0.75   0.25  0.37  0.04  0.02  0.06  0.01
    3 H    1     0.75   0.25  0.37  0.04  0.02  0.06  0.01
 
       Multipole analysis of the density wrt the origin
       ------------------------------------------------
 
     L   x y z        total         open         nuclear
     -   - - -        -----         ----         -------
     0   0 0 0     -0.000000      0.000000     10.000000
 
     1   1 0 0      0.631217      0.000000      0.000000
     1   0 1 0      0.000000      0.000000      0.000000
     1   0 0 1      0.460292      0.000000      0.000000
 
     2   2 0 0     -4.012903      0.000000      2.772653
     2   1 1 0      0.000000      0.000000      0.000000
     2   1 0 1     -0.776056      0.000000     -1.213763
     2   0 2 0     -5.456397      0.000000      0.000000
     2   0 1 1      0.000000      0.000000      0.000000
     2   0 0 2     -3.514574      0.000000      3.552047
 
                   NWChem Extensible Many-Electron Theory Module
                   ---------------------------------------------
 
              ======================================================
                   This portion of the program was automatically
                  generated by a Tensor Contraction Engine (TCE).
                  The development of this portion of the program
                 and TCE was supported by US Department of Energy,
                Office of Science, Office of Basic Energy Science.
                      TCE is a product of Battelle and PNNL.
              Please cite: S.Hirata, J.Phys.Chem.A 107, 9887 (2003).
              ======================================================
 
                                        H2O
 
 
            General Information
            -------------------
      Number of processors :     1
         Wavefunction type : Restricted Hartree-Fock
          No. of electrons :    10
           Alpha electrons :     5
            Beta electrons :     5
           No. of orbitals :   116
            Alpha orbitals :    58
             Beta orbitals :    58
        Alpha frozen cores :     0
         Beta frozen cores :     0
     Alpha frozen virtuals :     0
      Beta frozen virtuals :     0
         Spin multiplicity : singlet 
    Number of AO functions :    58
       Number of AO shells :    22
        Use of symmetry is : off
      Symmetry adaption is : off
         Schwarz screening : 0.10D-09
 
          Correlation Information
          -----------------------
          Calculation type : Coupled-cluster singles & doubles                           
   Perturbative correction : none                                                        
            Max iterations :      300
        Residual threshold : 0.10D-06
     T(0) DIIS level shift : 0.00D+00
     L(0) DIIS level shift : 0.00D+00
     T(1) DIIS level shift : 0.00D+00
     L(1) DIIS level shift : 0.00D+00
     T(R) DIIS level shift : 0.00D+00
     T(I) DIIS level shift : 0.00D+00
   CC-T/L Amplitude update :  5-th order DIIS
                I/O scheme : Global Array Library
        L-threshold :  0.10D-06
        EOM-threshold :  0.10D-06
 no EOMCCSD initial starts read in
 TCE RESTART OPTIONS
 READ_INT:   F
 WRITE_INT:  F
 READ_TA:    F
 WRITE_TA:   F
 READ_XA:    F
 WRITE_XA:   F
 READ_IN3:   F
 WRITE_IN3:  F
 SLICE:      F
 D4D5:       F
 quantumc:   F
 qrotation:  F
 pwtce:      F
 qducc:      T
 nacto:                          0
 nrotv:                          0
 nrot:                           0
 
            Memory Information
            ------------------
          Available GA space size is    1610609372 doubles
          Available MA space size is    1610609756 doubles
 
 Maximum block size        32 doubles

 tile_dim =     27

 Block   Spin    Irrep     Size     Offset   Alpha
 -------------------------------------------------
   1    alpha     a      5 doubles       0       1
   2    beta      a      5 doubles       5       1
   3    alpha     a     26 doubles      10       3
   4    alpha     a     27 doubles      36       4
   5    beta      a     26 doubles      63       3
   6    beta      a     27 doubles      89       4

 Global array virtual files algorithm will be used

 Parallel file system coherency ......... OK
 
 Fock matrix recomputed
 1-e file size   =             3364
 1-e file name   = ./H2O.f1
 Cpu & wall time / sec            0.1            0.1
 4-electron integrals stored in orbital form
 
 v2    file size   =          3631290
 4-index algorithm nr.  13 is used
 imaxsize =       30
 imaxsize ichop =        0
 Cpu & wall time / sec            1.4            1.4
 T1-number-of-tasks                     2
 
 t1 file size   =              265
 t1 file name   = ./H2O.t1
 t1 file handle =       -998
 T2-number-of-boxes                     7
 
 t2 file size   =           122900
 t2 file name   = ./H2O.t2
 t2 file handle =       -996
CCSD iterations
 ---------------------------------------------------------
 Iter          Residuum       Correlation     Cpu    Wall 
 ---------------------------------------------------------
NEW TASK SCHEDULING
CCSD_T1_NTS --- OK
CCSD_T2_NTS --- OK
    1   0.1389133008808  -0.2759910756303     0.2     0.2
    2   0.0305948153796  -0.2771034735149     0.2     0.2
    3   0.0104079292111  -0.2808570266810     0.2     0.2
    4   0.0041298509079  -0.2812876415232     0.2     0.2
    5   0.0017198507907  -0.2815548556838     0.2     0.2
 MICROCYCLE DIIS UPDATE:                     5                     5
    6   0.0003438151133  -0.2816788718729     0.2     0.2
    7   0.0001403237272  -0.2816914663461     0.2     0.2
    8   0.0000559305361  -0.2816908210269     0.2     0.2
    9   0.0000317957393  -0.2816910302606     0.2     0.2
   10   0.0000162061933  -0.2816913043983     0.2     0.2
 MICROCYCLE DIIS UPDATE:                    10                     5
   11   0.0000030904141  -0.2816918321944     0.2     0.2
   12   0.0000013667439  -0.2816916218111     0.2     0.2
   13   0.0000006392437  -0.2816916450014     0.2     0.2
   14   0.0000003734775  -0.2816916330200     0.2     0.2
   15   0.0000002021985  -0.2816916315342     0.2     0.2
 MICROCYCLE DIIS UPDATE:                    15                     5
   16   0.0000000347192  -0.2816916266614     0.2     0.2
 -----------------------------------------------------------------
 Iterations converged
 CCSD correlation energy / hartree =        -0.281691626661350
 CCSD total energy / hartree       =       -76.336752424617401

 Singles contributions

 Doubles contributions
     7a   (alpha)     7a   (beta ) ---     3a   (alpha)     3a   (beta )       -0.0201924184
     8a   (alpha)     8a   (beta ) ---     3a   (alpha)     3a   (beta )       -0.0274408645
     8a   (alpha)     8a   (beta ) ---     4a   (alpha)     4a   (beta )       -0.0222144114
     9a   (alpha)     9a   (beta ) ---     3a   (alpha)     3a   (beta )       -0.0270544486
    10a   (alpha)    10a   (beta ) ---     4a   (alpha)     4a   (beta )       -0.0304790491
    10a   (alpha)    11a   (beta ) ---     4a   (alpha)     5a   (beta )       -0.0263743705
    11a   (alpha)    10a   (beta ) ---     5a   (alpha)     4a   (beta )       -0.0263743705
    11a   (alpha)    11a   (beta ) ---     5a   (alpha)     5a   (beta )       -0.0478343294
    11a   (alpha)    12a   (beta ) ---     5a   (alpha)     3a   (beta )       -0.0221673023
    12a   (alpha)    11a   (beta ) ---     3a   (alpha)     5a   (beta )       -0.0221673023
    12a   (alpha)    12a   (beta ) ---     3a   (alpha)     3a   (beta )       -0.0224411532
 Ground state specification:
 exp(T)|Ref>~(1+T)|Ref>
 ------- a(p)+/a(q) strings ----------

 singles norm

 doubles norm

 Reference string
   1.00000000000000      :(1a)+ (2a)+ (3a)+ (4a)+ (5a)+ (1b)+ (2b)+ (3b)+ (4b)+ 
 (5b)+ |0>

 Singles strings

 Doubles strings
 -------------------------------------
 enrep_tce =    9.01508057608049     
  EHF(total)         =       -76.05506080
  Shift (HFtot-HFA)  =         0.00000000
 ALL OCCUPIED ORBITALS ARE ACTIVE IN DUCC --> NO SHIFT
 Number of active orbitals                     8
 Number of active alpha electrons                     5
 Number of active beta electrons                     5
  nos                     10
  nvs                    106
 noas                      5
 nobs                      5
 nvas                     53
 nvbs                     53
 nactv                      3
 DUCC MODEL =                      6
 NONHF =  T
 F-T1 correlation    =   1.143503000359846E-007
 V-T1-T1 correlation =   3.395042256751389E-005
 V-T2 correlation    =  -0.281725691434305     
 Total correlation   =  -0.281691626661438     
 F-T1(Ext) correlation         =   1.198353734747316E-007
 V-T1(Ext)-T1(Ext) correlation =   3.142828564762378E-005
 V-T2(Ext) correlation         =  -0.273885123337136     
 Total Ext correlation         =  -0.273853575216115     
1-BODY TIME =  276.972 SECONDS.
  HHHH TIME =  274.672 SECONDS.
  PPPP TIME =    2.853 SECONDS.
  HHHP TIME =   25.609 SECONDS.
  PPPH TIME =    5.946 SECONDS.
  HPHP TIME =   20.968 SECONDS.
  HHPP TIME =   12.543 SECONDS.
 ONE-BODY UNITARY CHECK
 TWO-BODY UNITARY CHECK
                     1                     3                     2
                     3 -1.337291388736617E-012
                     1                     3                     3
                     2  2.243323582451495E-012
                     1                     4                     2
                     4 -1.282238204503017E-012
                     1                     4                     4
                     2  1.615513278707681E-012
                     1                     5                     2
                     5 -1.138360239405500E-012
                     1                     6                     2
                     9  1.208998179347276E-012
                     1                     6                     3
                     8  1.438175967205524E-012
                     1                     6                     5
                    10 -2.131437387697943E-012
                     1                     6                     7
                     4 -1.252151160535675E-012
                     1                     6                     8
                     3 -1.438175967205524E-012
                     1                     6                    10
                     5  2.131437387697943E-012
                     1                     7                     2
                     7 -1.528150869734013E-012
                     1                     7                     5
                    10 -2.466572085468854E-012
                     1                     7                     7
                     2  1.743319030800272E-012
                     1                     7                     9
                     4  1.050558945392410E-012
                     1                     7                    10
                     5  2.980785757111803E-012
                     1                     8                     2
                     8 -2.623619203834249E-012
                     1                     8                     3
                     7 -1.130543575422749E-012
                     1                     8                     7
                     3  1.286224599050811E-012
                     1                     8                     8
                     2  3.373930475281117E-012
                     1                     9                     2
                     9 -2.522529060633438E-012
                     1                     9                     3
                     8 -1.638547804383439E-012
                     1                     9                     7
                     2  1.204820097855386E-012
                     1                     9                     7
                     4  1.240143404634964E-012
                     1                     9                     8
                     3  1.764536867315813E-012
                     1                     9                     9
                     2  2.476739299761554E-012
                     1                    10                     2
                    10 -2.089897699342202E-012
                     1                    10                     5
                     7 -2.043108737748156E-012
                     1                    10                    10
                     2  2.943834412350022E-012
                     2                     2                     2
                     4  6.844412425757965E-012
                     2                     2                     4
                     2 -6.844401854416206E-012
                     2                     3                     1
                     3  1.337291388736617E-012
                     2                     3                     3
                     2 -2.021716127842410E-012
                     2                     3                     3
                     4  1.967542665251565E-011
                     2                     3                     4
                     3 -1.543637006412579E-011
                     2                     4                     1
                     4  1.282238204503017E-012
                     2                     4                     2
                     2 -6.844412425757965E-012
                     2                     4                     3
                     3  3.148676256623345E-012
                     2                     4                     4
                     2  1.458944076659918E-012
                     2                     4                     4
                     4  2.955441579502323E-012
                     2                     5                     1
                     5  1.138360239405500E-012
                     2                     5                     4
                     5 -1.554067551728933E-011
                     2                     5                     5
                     2  1.559552487151450E-011
                     2                     5                     5
                     4  2.245676214429615E-011
                     2                     6                     4
                     9 -1.355915379974704E-012
                     2                     6                     5
                    10 -2.628910977797716E-012
                     2                     6                    10
                     5  2.114697306154767E-012
                     2                     7                     1
                     7  1.528150869734013E-012
                     2                     7                     2
                     9  3.326261141523013E-012
                     2                     7                     3
                     8 -8.122141847977105E-012
                     2                     7                     4
                     6  1.056632212281805E-012
                     2                     7                     4
                     7 -1.291725580665481E-011
                     2                     7                     4
                     9 -9.668252309857905E-012
                     2                     7                     5
                    10 -4.403416520304404E-011
                     2                     7                     6
                     2 -1.743317296076796E-012
                     2                     7                     6
                     4 -1.204812291599744E-012
                     2                     7                     7
                     4  3.518123292689523E-012
                     2                     7                     8
                     3  8.122141847977105E-012
                     2                     7                     9
                     2  6.072873107165755E-012
                     2                     7                     9
                     4  9.668252309857905E-012
                     2                     7                    10
                     5  4.403416520304404E-011
                     2                     8                     1
                     8  2.623619203834249E-012
                     2                     8                     3
                     7 -6.296768662039653E-012
                     2                     8                     3
                     9 -1.075804896555344E-011
                     2                     8                     4
                     8 -2.495280544689837E-011
                     2                     8                     6
                     3 -1.286214190709956E-012
                     2                     8                     8
                     2  4.274913756319165E-012
                     2                     8                     8
                     4  3.043345957187693E-011
                     2                     8                     9
                     3  9.516462270986459E-012
                     2                     9                     1
                     6 -1.208998179347276E-012
                     2                     9                     1
                     9  2.522529060633438E-012
                     2                     9                     2
                     7 -3.326261141523013E-012
                     2                     9                     3
                     8 -1.676047495235977E-011
                     2                     9                     4
                     7 -5.844269512778055E-012
                     2                     9                     4
                     9 -3.777822499273498E-011
                     2                     9                     5
                    10 -6.734904300920164E-012
                     2                     9                     6
                     1  1.252151160535675E-012
                     2                     9                     6
                     4 -1.240153812975819E-012
                     2                     9                     7
                     2 -3.518135435753855E-012
                     2                     9                     8
                     3  1.990915418637051E-011
                     2                     9                     9
                     2  7.303713189799055E-012
                     2                     9                     9
                     4  4.073405501792138E-011
                     2                     9                    10
                     5  7.109278443717670E-012
                     2                    10                     1
                    10  2.089897699342202E-012
                     2                    10                     4
                    10 -1.666814603007438E-011
                     2                    10                     5
                     6 -1.279421013578030E-012
                     2                    10                     5
                     7 -3.621304645040624E-011
                     2                    10                     5
                     9 -8.606861751081496E-012
                     2                    10                     9
                     5  1.128021287488679E-012
                     2                    10                    10
                     2  5.180900153334278E-011
                     2                    10                    10
                     4  3.106311041722876E-011
                     3                     1                     3
                     2 -1.488951323347365E-012
                     3                     1                     3
                     4 -1.050720274675676E-012
                     3                     2                     1
                     3 -2.243323582451495E-012
                     3                     2                     2
                     3  2.021716127842410E-012
                     3                     2                     3
                     1  1.488951323347365E-012
                     3                     2                     3
                     4 -2.387970897410607E-012
                     3                     2                     4
                     3 -1.851093063554021E-012
                     3                     3                     2
                     4 -3.148676256623345E-012
                     3                     3                     4
                     2  3.148675288623505E-012
                     3                     4                     2
                     3 -1.967542665251565E-011
                     3                     4                     3
                     1  1.050720274675676E-012
                     3                     4                     3
                     2  2.387970897410607E-012
                     3                     4                     4
                     3  2.043631930348511E-011
                     3                     5                     5
                     3  5.427891469622637E-011
                     3                     6                     3
                     9 -1.031345148172491E-012
                     3                     7                     1
                     8  1.130543575422749E-012
                     3                     7                     2
                     8  6.296768662039653E-012
                     3                     7                     4
                     8  2.709150612179023E-012
                     3                     7                     6
                     3 -3.373933077366331E-012
                     3                     7                     7
                     3 -4.274913756319165E-012
                     3                     7                     8
                     4 -1.467563917612047E-012
                     3                     7                     9
                     3 -4.560223726413071E-012
                     3                     8                     1
                     6 -1.438175967205524E-012
                     3                     8                     1
                     9  1.638547804383439E-012
                     3                     8                     2
                     7  8.122141847977105E-012
                     3                     8                     2
                     9  1.676047495235977E-011
                     3                     8                     4
                     6  1.617715510160433E-012
                     3                     8                     4
                     7  1.561326935795027E-011
                     3                     8                     4
                     9 -1.316717568311532E-012
                     3                     8                     5
                    10 -3.385258393051593E-011
                     3                     8                     6
                     1  1.438193314440284E-012
                     3                     8                     6
                     4 -1.764547709337538E-012
                     3                     8                     7
                     2 -8.122141847977105E-012
                     3                     8                     7
                     4 -1.990912643079490E-011
                     3                     8                     9
                     1 -1.491715605206334E-012
                     3                     8                     9
                     2 -1.246462134896209E-011
                     3                     8                     9
                     4  1.316703690523724E-012
                     3                     8                    10
                     5  3.385256311383422E-011
                     3                     9                     2
                     8  1.075804896555344E-011
                     3                     9                     3
                     6  1.031345148172491E-012
                     3                     9                     7
                     3 -3.043341620379003E-011
                     3                     9                     8
                     2  1.467536162036431E-012
                     3                     9                     9
                     3  1.980537955859063E-011
                     3                    10                     5
                     8 -2.497530307565832E-011
                     3                    10                    10
                     3  7.925471390279881E-011
                     4                     2                     1
                     4 -1.615513278707681E-012
                     4                     2                     2
                     2  6.844401854416206E-012
                     4                     2                     2
                     4 -1.458944076659918E-012
                     4                     2                     3
                     3 -3.148675288623505E-012
                     4                     2                     4
                     4 -2.955442428705792E-012
                     4                     3                     2
                     3  1.543637006412579E-011
                     4                     3                     3
                     2  1.851093063554021E-012
                     4                     3                     3
                     4 -2.043631930348511E-011
                     4                     4                     2
                     4 -2.955441579502323E-012
                     4                     4                     4
                     2  2.955442428705792E-012
                     4                     5                     2
                     5  1.554067551728933E-011
                     4                     5                     5
                     2  1.085774612580304E-011
                     4                     5                     5
                     4  4.172617806830203E-011
                     4                     6                     2
                     7 -1.056632212281805E-012
                     4                     6                     3
                     8 -1.617715510160433E-012
                     4                     6                     8
                     3  1.491726447228059E-012
                     4                     6                     9
                     4  1.106014585472437E-012
                     4                     7                     2
                     7  1.291725580665481E-011
                     4                     7                     2
                     9  5.844269512778055E-012
                     4                     7                     3
                     8 -1.561326935795027E-011
                     4                     7                     4
                     9  4.089784066962920E-012
                     4                     7                     5
                    10 -4.283309817942893E-012
                     4                     7                     6
                     4 -2.476746238655458E-012
                     4                     7                     7
                     2 -6.072860964101423E-012
                     4                     7                     7
                     4 -7.303713189799055E-012
                     4                     7                     8
                     3  1.246459185866300E-011
                     4                     7                     9
                     4 -7.044920202758931E-012
                     4                     7                    10
                     5  3.908935675145386E-012
                     4                     8                     2
                     8  2.495280544689837E-011
                     4                     8                     3
                     7 -2.709150612179023E-012
                     4                     8                     7
                     3 -9.516427576516939E-012
                     4                     8                     8
                     2  4.560225461136547E-012
                     4                     8                     8
                     4 -1.980537955859063E-011
                     4                     9                     2
                     6  1.355915379974704E-012
                     4                     9                     2
                     7  9.668252309857905E-012
                     4                     9                     2
                     9  3.777822499273498E-011
                     4                     9                     3
                     8  1.316717568311532E-012
                     4                     9                     4
                     7 -4.089784066962920E-012
                     4                     9                     5
                    10 -3.862051303760161E-011
                     4                     9                     6
                     2 -1.050600578755834E-012
                     4                     9                     7
                     2 -9.668252309857905E-012
                     4                     9                     7
                     4 -4.073466564058492E-011
                     4                     9                     8
                     3 -1.316852876742658E-012
                     4                     9                     9
                     1 -1.106021524366341E-012
                     4                     9                     9
                     2  7.046085936934787E-012
                     4                     9                    10
                     5  3.862049569036685E-011
                     4                    10                     2
                    10  1.666814603007438E-011
                     4                    10                     5
                     7 -4.283830234985686E-012
                     4                    10                     5
                     9 -1.935161059174462E-011
                     4                    10                     7
                     5 -1.128017818041727E-012
                     4                    10                    10
                     2  1.514211672715149E-011
                     4                    10                    10
                     4  6.107769845442590E-011
                     5                     2                     2
                     5 -1.559552487151450E-011
                     5                     2                     4
                     5 -1.085774612580304E-011
                     5                     2                     5
                     4  3.941645621008405E-012
                     5                     3                     3
                     5 -5.427891469622637E-011
                     5                     4                     2
                     5 -2.245676214429615E-011
                     5                     4                     4
                     5 -4.172617806830203E-011
                     5                     4                     5
                     2 -3.941645621008405E-012
                     5                     6                     2
                    10  1.279421013578030E-012
                     5                     7                     1
                    10  2.043108737748156E-012
                     5                     7                     2
                    10  3.621304645040624E-011
                     5                     7                     4
                    10  4.283830234985686E-012
                     5                     7                     6
                     5 -2.943834412350022E-012
                     5                     7                     7
                     5 -5.180900153334278E-011
                     5                     7                     9
                     5 -1.514213060493930E-011
                     5                     7                    10
                     4  3.194999820266275E-012
                     5                     8                     3
                    10  2.497530307565832E-011
                     5                     8                     8
                     5 -7.925482492510127E-011
                     5                     9                     2
                    10  8.606861751081496E-012
                     5                     9                     4
                    10  1.935161059174462E-011
                     5                     9                     7
                     5 -3.106309653944095E-011
                     5                     9                     9
                     5 -6.107758743212344E-011
                     5                     9                    10
                     2 -3.194996350819324E-012
                     5                    10                     1
                     6  2.131437387697943E-012
                     5                    10                     1
                     7  2.466572085468854E-012
                     5                    10                     2
                     6  2.628910977797716E-012
                     5                    10                     2
                     7  4.403416520304404E-011
                     5                    10                     2
                     9  6.734904300920164E-012
                     5                    10                     3
                     8  3.385258393051593E-011
                     5                    10                     4
                     7  4.283309817942893E-012
                     5                    10                     4
                     9  3.862051303760161E-011
                     5                    10                     6
                     1 -2.131437387697943E-012
                     5                    10                     6
                     2 -2.980844737709987E-012
                     5                    10                     7
                     1 -2.114638325556584E-012
                     5                    10                     7
                     2 -4.403417908083185E-011
                     5                    10                     7
                     4 -7.109257627035959E-012
                     5                    10                     8
                     3 -3.385253535825861E-011
                     5                    10                     9
                     2 -3.908949552933194E-012
                     5                    10                     9
                     4 -3.862041242364000E-011
                     6                     1                     2
                     9 -1.252151160535675E-012
                     6                     1                     3
                     8 -1.438193314440284E-012
                     6                     1                     5
                    10  2.131437387697943E-012
                     6                     1                     7
                     4  1.208994709900324E-012
                     6                     1                     8
                     3  1.438193314440284E-012
                     6                     1                    10
                     5 -2.131437387697943E-012
                     6                     2                     2
                     7  1.743317296076796E-012
                     6                     2                     4
                     9  1.050600578755834E-012
                     6                     2                     5
                    10  2.980844737709987E-012
                     6                     2                     7
                     2 -1.528149135010537E-012
                     6                     2                    10
                     5 -2.466631066067038E-012
                     6                     3                     2
                     8  1.286214190709956E-012
                     6                     3                     3
                     7  3.373933077366331E-012
                     6                     3                     7
                     3 -2.623621805919463E-012
                     6                     3                     8
                     2 -1.130533167081893E-012
                     6                     4                     2
                     7  1.204812291599744E-012
                     6                     4                     2
                     9  1.240153812975819E-012
                     6                     4                     3
                     8  1.764547709337538E-012
                     6                     4                     4
                     7  2.476746238655458E-012
                     6                     4                     7
                     4 -2.522535999527342E-012
                     6                     4                     8
                     3 -1.638558646405164E-012
                     6                     5                     5
                     7  2.943834412350022E-012
                     6                     5                     7
                     5 -2.089897699342202E-012
                     6                     5                    10
                     2 -2.043119146089012E-012
                     6                     8                     7
                     8 -1.337291388736617E-012
                     6                     8                     8
                     7  2.243323582451495E-012
                     6                     9                     7
                     9 -1.282238204503017E-012
                     6                     9                     9
                     7  1.615513278707681E-012
                     6                    10                     7
                    10 -1.138360239405500E-012
                     7                     1                     5
                    10  2.114638325556584E-012
                     7                     1                     9
                     4 -1.355873746611280E-012
                     7                     1                    10
                     5 -2.628851997199533E-012
                     7                     2                     1
                     7 -1.743319030800272E-012
                     7                     2                     1
                     9 -1.204820097855386E-012
                     7                     2                     2
                     9  3.518135435753855E-012
                     7                     2                     3
                     8  8.122141847977105E-012
                     7                     2                     4
                     7  6.072860964101423E-012
                     7                     2                     4
                     9  9.668252309857905E-012
                     7                     2                     5
                    10  4.403417908083185E-011
                     7                     2                     6
                     2  1.528149135010537E-012
                     7                     2                     7
                     4  3.326271549863868E-012
                     7                     2                     8
                     3 -8.122141847977105E-012
                     7                     2                     9
                     1  1.056640018537447E-012
                     7                     2                     9
                     2 -1.291727315388957E-011
                     7                     2                     9
                     4 -9.668252309857905E-012
                     7                     2                    10
                     5 -4.403417908083185E-011
                     7                     3                     1
                     8 -1.286224599050811E-012
                     7                     3                     3
                     7  4.274913756319165E-012
                     7                     3                     3
                     9  3.043341620379003E-011
                     7                     3                     4
                     8  9.516427576516939E-012
                     7                     3                     6
                     3  2.623621805919463E-012
                     7                     3                     8
                     2 -6.296990706644578E-012
                     7                     3                     8
                     4 -1.075802120997782E-011
                     7                     3                     9
                     3 -2.495281932468618E-011
                     7                     4                     1
                     6  1.252151160535675E-012
                     7                     4                     1
                     9 -1.240143404634964E-012
                     7                     4                     2
                     7 -3.518123292689523E-012
                     7                     4                     3
                     8  1.990912643079490E-011
                     7                     4                     4
                     7  7.303713189799055E-012
                     7                     4                     4
                     9  4.073466564058492E-011
                     7                     4                     5
                    10  7.109257627035959E-012
                     7                     4                     6
                     1 -1.208994709900324E-012
                     7                     4                     6
                     4  2.522535999527342E-012
                     7                     4                     7
                     2 -3.326271549863868E-012
                     7                     4                     8
                     3 -1.676044893150763E-011
                     7                     4                     9
                     2 -5.844463801807365E-012
                     7                     4                     9
                     4 -3.777941848248645E-011
                     7                     4                    10
                     5 -6.734883484238452E-012
                     7                     5                     4
                    10  1.128017818041727E-012
                     7                     5                     5
                     7  5.180900153334278E-011
                     7                     5                     5
                     9  3.106309653944095E-011
                     7                     5                     6
                     5  2.089897699342202E-012
                     7                     5                     9
                     5 -1.666813215228657E-011
                     7                     5                    10
                     1 -1.279434891365838E-012
                     7                     5                    10
                     2 -3.621324073943555E-011
                     7                     5                    10
                     4 -8.606847873293688E-012
                     7                     7                     7
                     9  6.844413838588241E-012
                     7                     7                     9
                     7 -6.844408881380857E-012
                     7                     8                     6
                     8  1.337291388736617E-012
                     7                     8                     8
                     7 -2.020716927120247E-012
                     7                     8                     8
                     9  1.967541711153653E-011
                     7                     8                     9
                     8 -1.543636659467884E-011
                     7                     9                     6
                     9  1.282238204503017E-012
                     7                     9                     7
                     7 -6.844413838588241E-012
                     7                     9                     8
                     8  3.148674928488092E-012
                     7                     9                     9
                     7  1.458944076659918E-012
                     7                     9                     9
                     9  2.955435128428466E-012
                     7                    10                     6
                    10  1.138360239405500E-012
                     7                    10                     9
                    10 -1.554067291520411E-011
                     7                    10                    10
                     7  1.559552487151450E-011
                     7                    10                    10
                     9  2.245676301165789E-011
                     8                     1                     8
                     4 -1.031346015534229E-012
                     8                     2                     1
                     8 -3.373930475281117E-012
                     8                     2                     2
                     8 -4.274913756319165E-012
                     8                     2                     3
                     9 -1.467536162036431E-012
                     8                     2                     4
                     8 -4.560225461136547E-012
                     8                     2                     6
                     3  1.130533167081893E-012
                     8                     2                     7
                     3  6.296990706644578E-012
                     8                     2                     9
                     3  2.709122856603408E-012
                     8                     3                     1
                     6  1.438175967205524E-012
                     8                     3                     1
                     9 -1.764536867315813E-012
                     8                     3                     2
                     7 -8.122141847977105E-012
                     8                     3                     2
                     9 -1.990915418637051E-011
                     8                     3                     4
                     6 -1.491726447228059E-012
                     8                     3                     4
                     7 -1.246459185866300E-011
                     8                     3                     4
                     9  1.316852876742658E-012
                     8                     3                     5
                    10  3.385253535825861E-011
                     8                     3                     6
                     1 -1.438193314440284E-012
                     8                     3                     6
                     4  1.638558646405164E-012
                     8                     3                     7
                     2  8.122141847977105E-012
                     8                     3                     7
                     4  1.676044893150763E-011
                     8                     3                     9
                     1  1.617704668138709E-012
                     8                     3                     9
                     2  1.561329711352588E-011
                     8                     3                     9
                     4 -1.316838998954850E-012
                     8                     3                    10
                     5 -3.385252841936470E-011
                     8                     4                     2
                     8 -3.043345957187693E-011
                     8                     4                     3
                     7  1.467563917612047E-012
                     8                     4                     4
                     8  1.980537955859063E-011
                     8                     4                     7
                     3  1.075802120997782E-011
                     8                     4                     8
                     1  1.031346015534229E-012
                     8                     5                     5
                     8  7.925482492510127E-011
                     8                     5                    10
                     3 -2.497529613676441E-011
                     8                     6                     8
                     7 -1.488951323347365E-012
                     8                     6                     8
                     9 -1.050720274675676E-012
                     8                     7                     6
                     8 -2.243323582451495E-012
                     8                     7                     7
                     8  2.020716927120247E-012
                     8                     7                     8
                     6  1.488951323347365E-012
                     8                     7                     8
                     9 -2.387953550175848E-012
                     8                     7                     9
                     8 -1.851080053127951E-012
                     8                     8                     7
                     9 -3.148674928488092E-012
                     8                     8                     9
                     7  3.148675618978762E-012
                     8                     9                     7
                     8 -1.967541711153653E-011
                     8                     9                     8
                     6  1.050720274675676E-012
                     8                     9                     8
                     7  2.387953550175848E-012
                     8                     9                     9
                     8  2.043631930348511E-011
                     8                    10                    10
                     8  5.427891469622637E-011
                     9                     1                     3
                     8  1.491715605206334E-012
                     9                     1                     4
                     9  1.106021524366341E-012
                     9                     1                     7
                     2 -1.056640018537447E-012
                     9                     1                     8
                     3 -1.617704668138709E-012
                     9                     2                     1
                     9 -2.476739299761554E-012
                     9                     2                     2
                     7 -6.072873107165755E-012
                     9                     2                     2
                     9 -7.303713189799055E-012
                     9                     2                     3
                     8  1.246462134896209E-011
                     9                     2                     4
                     9 -7.046085936934787E-012
                     9                     2                     5
                    10  3.908949552933194E-012
                     9                     2                     7
                     2  1.291727315388957E-011
                     9                     2                     7
                     4  5.844463801807365E-012
                     9                     2                     8
                     3 -1.561329711352588E-011
                     9                     2                     9
                     4  4.090394689626464E-012
                     9                     2                    10
                     5 -4.283323695730701E-012
                     9                     3                     2
                     8 -9.516462270986459E-012
                     9                     3                     3
                     7  4.560223726413071E-012
                     9                     3                     3
                     9 -1.980537955859063E-011
                     9                     3                     7
                     3  2.495281932468618E-011
                     9                     3                     8
                     2 -2.709122856603408E-012
                     9                     4                     1
                     7 -1.050558945392410E-012
                     9                     4                     2
                     7 -9.668252309857905E-012
                     9                     4                     2
                     9 -4.073405501792138E-011
                     9                     4                     3
                     8 -1.316703690523724E-012
                     9                     4                     4
                     6 -1.106014585472437E-012
                     9                     4                     4
                     7  7.044920202758931E-012
                     9                     4                     5
                    10  3.862041242364000E-011
                     9                     4                     7
                     1  1.355873746611280E-012
                     9                     4                     7
                     2  9.668252309857905E-012
                     9                     4                     7
                     4  3.777941848248645E-011
                     9                     4                     8
                     3  1.316838998954850E-012
                     9                     4                     9
                     2 -4.090394689626464E-012
                     9                     4                    10
                     5 -3.862037079027658E-011
                     9                     5                     2
                    10 -1.128021287488679E-012
                     9                     5                     5
                     7  1.514213060493930E-011
                     9                     5                     5
                     9  6.107758743212344E-011
                     9                     5                     7
                     5  1.666813215228657E-011
                     9                     5                    10
                     2 -4.283823296091782E-012
                     9                     5                    10
                     4 -1.935165222510804E-011
                     9                     7                     6
                     9 -1.615513278707681E-012
                     9                     7                     7
                     7  6.844408881380857E-012
                     9                     7                     7
                     9 -1.458944076659918E-012
                     9                     7                     8
                     8 -3.148675618978762E-012
                     9                     7                     9
                     9 -2.955436314803988E-012
                     9                     8                     7
                     8  1.543636659467884E-011
                     9                     8                     8
                     7  1.851080053127951E-012
                     9                     8                     8
                     9 -2.043631930348511E-011
                     9                     9                     7
                     9 -2.955435128428466E-012
                     9                     9                     9
                     7  2.955436314803988E-012
                     9                    10                     7
                    10  1.554067291520411E-011
                     9                    10                    10
                     7  1.085774178899435E-011
                     9                    10                    10
                     9  4.172617806830203E-011
                    10                     1                     7
                     5  1.279434891365838E-012
                    10                     2                     1
                    10 -2.943834412350022E-012
                    10                     2                     2
                    10 -5.180900153334278E-011
                    10                     2                     4
                    10 -1.514211672715149E-011
                    10                     2                     5
                     9  3.194996350819324E-012
                    10                     2                     6
                     5  2.043119146089012E-012
                    10                     2                     7
                     5  3.621324073943555E-011
                    10                     2                     9
                     5  4.283823296091782E-012
                    10                     3                     3
                    10 -7.925471390279881E-011
                    10                     3                     8
                     5  2.497529613676441E-011
                    10                     4                     2
                    10 -3.106311041722876E-011
                    10                     4                     4
                    10 -6.107769845442590E-011
                    10                     4                     5
                     7 -3.194999820266275E-012
                    10                     4                     7
                     5  8.606847873293688E-012
                    10                     4                     9
                     5  1.935165222510804E-011
                    10                     5                     1
                     6 -2.131437387697943E-012
                    10                     5                     1
                     7 -2.980785757111803E-012
                    10                     5                     2
                     6 -2.114697306154767E-012
                    10                     5                     2
                     7 -4.403416520304404E-011
                    10                     5                     2
                     9 -7.109278443717670E-012
                    10                     5                     3
                     8 -3.385256311383422E-011
                    10                     5                     4
                     7 -3.908935675145386E-012
                    10                     5                     4
                     9 -3.862049569036685E-011
                    10                     5                     6
                     1  2.131437387697943E-012
                    10                     5                     6
                     2  2.466631066067038E-012
                    10                     5                     7
[...]
    6    8    8    2       -0.0115124515
    6    8    8    4       -0.0054439090
    6    8    8    6        0.0179573384
    7    1    1    1        0.0000000004
    7    1    1    3       -0.0102457808
    7    1    1    7        0.0043895263
    7    1    1    8        0.0037857739
    7    2    1    1       -0.0000000003
    7    2    1    3       -0.0082007173
    7    2    1    7        0.0036372025
    7    2    1    8        0.0031230508
    7    3    1    1       -0.1639695567
    7    3    1    2        0.0005749253
    7    3    1    4       -0.0003239541
    7    3    1    6        0.0004952365
    7    4    1    1       -0.0000000001
    7    4    1    3        0.0027064393
    7    4    1    7       -0.0013190753
    7    4    1    8       -0.0013698710
    7    6    1    1       -0.0000000001
    7    6    1    3       -0.0039282665
    7    6    1    7        0.0017106446
    7    6    1    8        0.0014113307
    7    7    1    1        0.3336049776
    7    7    1    2       -0.0014101072
    7    7    1    4        0.0013669312
    7    7    1    6       -0.0001425471
    7    8    1    1        0.1088773826
    7    8    1    2       -0.0014583233
    7    8    1    4       -0.0002060255
    7    8    1    6       -0.0004744732
    7    1    2    3       -0.0110339982
    7    1    2    7        0.0036372025
    7    1    2    8        0.0026616683
    7    2    2    2       -0.0000000002
    7    2    2    3       -0.0327703134
    7    2    2    7        0.0125864406
    7    2    2    8        0.0098847502
    7    3    2    1        0.0014298586
    7    3    2    2       -0.0947334910
    7    3    2    4        0.0131426425
    7    3    2    6       -0.0204073927
    7    4    2    3        0.0146026534
    7    4    2    7       -0.0022470140
    7    4    2    8       -0.0025207637
    7    6    2    2       -0.0000000001
    7    6    2    3       -0.0421051562
    7    6    2    7       -0.0006370243
    7    6    2    8       -0.0060130964
    7    7    2    1       -0.0014101072
    7    7    2    2        0.2977536648
    7    7    2    3        0.0000000001
    7    7    2    4        0.0098345650
    7    7    2    6        0.0076650468
    7    8    2    1       -0.0014309223
    7    8    2    2        0.0734937115
    7    8    2    4       -0.0004279601
    7    8    2    6        0.0066835425
    7    1    3    1       -0.0093579643
    7    1    3    2       -0.0108109859
    7    1    3    4        0.0015088201
    7    1    3    6       -0.0017681792
    7    2    3    1       -0.0081263367
    7    2    3    2       -0.0331769710
    7    2    3    3       -0.0000000001
    7    2    3    4        0.0049568941
    7    2    3    6       -0.0076198073
    7    3    3    3       -0.0832014920
    7    3    3    7        0.0306821779
    7    3    3    8        0.0242102656
    7    4    3    1        0.0028231951
    7    4    3    2        0.0156047049
    7    4    3    4       -0.0058651538
    7    4    3    6       -0.0058731445
    7    5    3    5       -0.0087821074
    7    6    3    1       -0.0039155496
    7    6    3    2       -0.0421783355
    7    6    3    4       -0.0141194438
    7    6    3    6        0.0184933960
    7    7    3    2        0.0000000001
    7    7    3    3        0.3014333839
    7    7    3    7       -0.0061170902
    7    7    3    8        0.0085404331
    7    8    3    3        0.0725455070
    7    8    3    7       -0.0103483086
    7    8    3    8        0.0041432769
    7    1    4    3        0.0015417579
    7    1    4    7       -0.0013190753
    7    1    4    8       -0.0029753940
    7    2    4    3        0.0048099349
    7    2    4    4       -0.0000000001
    7    2    4    7       -0.0022470140
    7    2    4    8       -0.0079961739
    7    3    4    1       -0.0003473520
    7    3    4    2        0.0140310344
    7    3    4    4       -0.0839764102
    7    3    4    6       -0.0134731546
    7    4    4    3       -0.0067048998
    7    4    4    7        0.0080568977
    7    4    4    8        0.0142924093
    7    6    4    3       -0.0139414278
    7    6    4    7       -0.0122494468
    7    6    4    8       -0.0256364565
    7    7    4    1        0.0013669312
    7    7    4    2        0.0098345650
    7    7    4    4        0.2834625683
    7    7    4    6       -0.0036309805
    7    8    4    1       -0.0000997405
    7    8    4    2       -0.0001065742
    7    8    4    4        0.0703792224
    7    8    4    6       -0.0000504070
    7    2    5    5       -0.0000000001
    7    3    5    5       -0.0888022328
    7    5    5    3       -0.0090211442
    7    5    5    7        0.0043941466
    7    5    5    8        0.0037986742
    7    7    5    5        0.2849365811
    7    8    5    5        0.0657019765
    7    1    6    3       -0.0021279287
    7    1    6    7        0.0017106446
    7    1    6    8        0.0004920190
    7    2    6    3       -0.0108993842
    7    2    6    7       -0.0006370243
    7    2    6    8       -0.0009358370
    7    3    6    1        0.0000613674
    7    3    6    2       -0.0232410854
    7    3    6    4       -0.0137355806
    7    3    6    6       -0.0082565506
    7    4    6    3       -0.0065650257
    7    4    6    7       -0.0122494468
    7    4    6    8       -0.0025132371
    7    6    6    3        0.0189309730
    7    6    6    6        0.0000000001
    7    6    6    7        0.0661480799
    7    6    6    8        0.0004422685
    7    7    6    1       -0.0001425471
    7    7    6    2        0.0076650468
    7    7    6    4       -0.0036309805
    7    7    6    6        0.2537341171
    7    7    6    7       -0.0000000001
    7    8    6    1       -0.0004609690
    7    8    6    2        0.0065878140
    7    8    6    4       -0.0007244847
    7    8    6    6        0.0253751850
    7    1    7    1        0.0046749559
    7    1    7    2        0.0040012010
    7    1    7    4       -0.0014057512
    7    1    7    6        0.0017040898
    7    2    7    1        0.0040012010
    7    2    7    2        0.0152142671
    7    2    7    4       -0.0026291436
    7    2    7    6       -0.0007620350
    7    3    7    3        0.0330203577
    7    3    7    7       -0.0061170902
    7    3    7    8       -0.0101780888
    7    4    7    1       -0.0014057512
    7    4    7    2       -0.0026291436
    7    4    7    4        0.0098080850
    7    4    7    6       -0.0123305632
    7    5    7    5        0.0061228594
    7    6    7    1        0.0017040898
    7    6    7    2       -0.0007620350
    7    6    7    4       -0.0123305632
    7    6    7    6        0.0661485508
    7    6    7    7       -0.0000000001
    7    7    7    3       -0.0061170902
    7    7    7    6       -0.0000000001
    7    7    7    7        0.2584341897
    7    7    7    8        0.0205975176
    7    8    7    3       -0.0101780888
    7    8    7    7        0.0205975176
    7    8    7    8        0.0195020737
    7    1    8    1        0.0040029747
    7    1    8    2        0.0029582406
    7    1    8    4       -0.0030981728
    7    1    8    6        0.0004750689
    7    2    8    1        0.0034042670
    7    2    8    2        0.0114489240
    7    2    8    4       -0.0084167977
    7    2    8    6       -0.0008932758
    7    3    8    3        0.0246973040
    7    3    8    7       -0.0103483086
    7    3    8    8       -0.0235218068
    7    4    8    1       -0.0014241279
    7    4    8    2       -0.0032626363
    7    4    8    4        0.0147877837
    7    4    8    6       -0.0021563138
    7    5    8    5        0.0044853855
    7    6    8    1        0.0014062136
    7    6    8    2       -0.0061521051
    7    6    8    4       -0.0260431835
    7    6    8    6        0.0004523384
    7    7    8    3        0.0085404331
    7    7    8    7        0.0205975176
    7    7    8    8        0.2673065086
    7    8    8    3        0.0052983271
    7    8    8    7        0.0195539253
    7    8    8    8        0.0459148893
    8    1    1    3       -0.0090675765
    8    1    1    7        0.0037857739
    8    1    1    8        0.0033138498
    8    2    1    3       -0.0061525653
    8    2    1    7        0.0026616683
    8    2    1    8        0.0024437806
    8    3    1    1       -0.1042310533
    8    3    1    2        0.0013503680
    8    3    1    4        0.0038356319
    8    3    1    6        0.0016400746
    8    4    1    3        0.0061989421
    8    4    1    7       -0.0029753940
    8    4    1    8       -0.0027843280
    8    6    1    3       -0.0011697806
    8    6    1    7        0.0004920190
    8    6    1    8        0.0003631601
    8    7    1    1        0.1088773826
    8    7    1    2       -0.0014309223
    8    7    1    4       -0.0000997405
    8    7    1    6       -0.0004609690
    8    8    1    1        0.4603737346
    8    8    1    2       -0.0012989256
    8    8    1    4        0.0000993148
    8    8    1    6       -0.0003464554
    8    1    2    3       -0.0094447880
    8    1    2    7        0.0031230508
    8    1    2    8        0.0024437806
    8    2    2    3       -0.0075689828
    8    2    2    7        0.0098847502
    8    2    2    8        0.0238594484
    8    3    2    1        0.0021596754
    8    3    2    2       -0.0261356809
    8    3    2    4        0.0481035644
    8    3    2    6       -0.0095509597
    8    4    2    3        0.0531500930
    8    4    2    7       -0.0079961739
    8    4    2    8        0.0023072749
    8    6    2    3       -0.0081979342
    8    6    2    7       -0.0009358370
    8    6    2    8       -0.0115124515
    8    7    2    1       -0.0014583233
    8    7    2    2        0.0734937115
    8    7    2    4       -0.0001065742
    8    7    2    6        0.0065878140
    8    8    2    1       -0.0012989256
    8    8    2    2        0.4289775742
    8    8    2    4        0.0080852090
    8    8    2    6        0.0136168704
    8    1    3    1       -0.0080806690
    8    1    3    2       -0.0091552984
    8    1    3    4        0.0018907585
    8    1    3    6       -0.0013750114
    8    2    3    1       -0.0058205967
    8    2    3    2       -0.0067391044
    8    2    3    4        0.0238991510
    8    2    3    6       -0.0069444496
    8    3    3    3       -0.0123668328
    8    3    3    7        0.0242102656
    8    3    3    8        0.0548010959
    8    4    3    1        0.0067250538
    8    4    3    2        0.0563256630
    8    4    3    4        0.0028063253
    8    4    3    6       -0.0114519067
    8    5    3    5       -0.0093772892
    8    6    3    1       -0.0010581839
    8    6    3    2       -0.0078068151
    8    6    3    4       -0.0112737539
    8    6    3    6        0.0011473422
    8    7    3    3        0.0725455070
    8    7    3    7       -0.0101780888
    8    7    3    8        0.0052983271
    8    8    3    3        0.4338554312
    8    8    3    7       -0.0235218068
    8    8    3    8        0.0177517470
    8    1    4    3        0.0019064279
    8    1    4    7       -0.0013698710
    8    1    4    8       -0.0027843280
    8    2    4    3        0.0235071921
    8    2    4    7       -0.0025207637
    8    2    4    8        0.0023072749
    8    3    4    1        0.0043268005
    8    3    4    2        0.0509244966
    8    3    4    4       -0.0411994605
    8    3    4    6       -0.0145793388
    8    4    4    3        0.0013523124
    8    4    4    7        0.0142924093
    8    4    4    8        0.0415589722
    8    6    4    3       -0.0112715957
    8    6    4    7       -0.0025132371
    8    6    4    8       -0.0054439090
    8    7    4    1       -0.0002060255
    8    7    4    2       -0.0004279601
    8    7    4    4        0.0703792224
    8    7    4    6       -0.0007244847
    8    8    4    1        0.0000993148
    8    8    4    2        0.0080852090
    8    8    4    4        0.4175518030
    8    8    4    6        0.0053081615
    8    3    5    5       -0.0437705569
    8    5    5    3       -0.0093524795
    8    5    5    7        0.0037986742
    8    5    5    8        0.0075740360
    8    7    5    5        0.0657019765
    8    8    5    5        0.4009434423
    8    1    6    3       -0.0017694388
    8    1    6    7        0.0014113307
    8    1    6    8        0.0003631601
    8    2    6    3       -0.0101689559
    8    2    6    7       -0.0060130964
    8    2    6    8       -0.0115124515
    8    3    6    1        0.0013513938
    8    3    6    2       -0.0116984838
    8    3    6    4       -0.0148476067
    8    3    6    6        0.0128542388
    8    4    6    3       -0.0125683649
    8    4    6    7       -0.0256364565
    8    4    6    8       -0.0054439090
    8    6    6    3        0.0007091570
    8    6    6    7        0.0004422685
    8    6    6    8        0.0179573384
    8    7    6    1       -0.0004744732
    8    7    6    2        0.0066835425
    8    7    6    4       -0.0000504070
    8    7    6    6        0.0253751850
    8    8    6    1       -0.0003464554
    8    8    6    2        0.0136168704
    8    8    6    4        0.0053081615
    8    8    6    6        0.2854270012
    8    1    7    1        0.0040029747
    8    1    7    2        0.0034042670
    8    1    7    4       -0.0014241279
    8    1    7    6        0.0014062136
    8    2    7    1        0.0029582406
    8    2    7    2        0.0114489240
    8    2    7    4       -0.0032626363
    8    2    7    6       -0.0061521051
    8    3    7    3        0.0246973040
    8    3    7    7        0.0085404331
    8    3    7    8        0.0052983271
    8    4    7    1       -0.0030981728
    8    4    7    2       -0.0084167977
    8    4    7    4        0.0147877837
    8    4    7    6       -0.0260431835
    8    5    7    5        0.0044853855
    8    6    7    1        0.0004750689
    8    6    7    2       -0.0008932758
    8    6    7    4       -0.0021563138
    8    6    7    6        0.0004523384
    8    7    7    3       -0.0103483086
    8    7    7    7        0.0205975176
    8    7    7    8        0.0195539253
    8    8    7    3       -0.0235218068
    8    8    7    7        0.2673065086
    8    8    7    8        0.0459148893
    8    1    8    1        0.0034002815
    8    1    8    2        0.0027405343
    8    1    8    4       -0.0027560484
    8    1    8    6        0.0003671797
    8    2    8    1        0.0027405343
    8    2    8    2        0.0261329758
    8    2    8    4        0.0029774745
    8    2    8    6       -0.0106608239
    8    3    8    3        0.0556160702
    8    3    8    7        0.0041432769
    8    3    8    8        0.0177517470
    8    4    8    1       -0.0027560484
    8    4    8    2        0.0029774745
    8    4    8    4        0.0409591148
    8    4    8    6       -0.0047121306
    8    5    8    5        0.0070764108
    8    6    8    1        0.0003671797
    8    6    8    2       -0.0106608239
    8    6    8    4       -0.0047121306
    8    6    8    6        0.0179393594
    8    7    8    3        0.0041432769
    8    7    8    7        0.0195020737
    8    7    8    8        0.0459148893
    8    8    8    3        0.0177517470
    8    8    8    7        0.0459148893
    8    8    8    8        0.3731606012
 end_two_electron_integrals

 Task  times  cpu:      655.4s     wall:      655.4s
 
 
                                NWChem Input Module
                                -------------------
 
 
 Summary of allocated global arrays
-----------------------------------
  No active global arrays


MA_summarize_allocated_blocks: starting scan ...
MA_summarize_allocated_blocks: scan completed: 0 heap blocks, 0 stack blocks
MA usage statistics:

	allocation statistics:
					      heap	     stack
					      ----	     -----
	current number of blocks	         0	         0
	maximum number of blocks	        16	        42
	current total bytes		         0	         0
	maximum total bytes		     80104	4725685704
	maximum total K-bytes		        81	   4725686
	maximum total M-bytes		         1	      4726
 
 
                                     CITATION
                                     --------
                Please cite the following reference when publishing
                           results obtained with NWChem:
 
          E. Apra, E. J. Bylaska, W. A. de Jong, N. Govind, K. Kowalski,
       T. P. Straatsma, M. Valiev, H. J. J. van Dam, Y. Alexeev, J. Anchell,
       V. Anisimov, F. W. Aquino, R. Atta-Fynn, J. Autschbach, N. P. Bauman,
     J. C. Becca, D. E. Bernholdt, K. Bhaskaran-Nair, S. Bogatko, P. Borowski,
         J. Boschen, J. Brabec, A. Bruner, E. Cauet, Y. Chen, G. N. Chuev,
      C. J. Cramer, J. Daily, M. J. O. Deegan, T. H. Dunning Jr., M. Dupuis,
   K. G. Dyall, G. I. Fann, S. A. Fischer, A. Fonari, H. Fruchtl, L. Gagliardi,
      J. Garza, N. Gawande, S. Ghosh, K. Glaesemann, A. W. Gotz, J. Hammond,
       V. Helms, E. D. Hermes, K. Hirao, S. Hirata, M. Jacquelin, L. Jensen,
   B. G. Johnson, H. Jonsson, R. A. Kendall, M. Klemm, R. Kobayashi, V. Konkov,
      S. Krishnamoorthy, M. Krishnan, Z. Lin, R. D. Lins, R. J. Littlefield,
      A. J. Logsdail, K. Lopata, W. Ma, A. V. Marenich, J. Martin del Campo,
   D. Mejia-Rodriguez, J. E. Moore, J. M. Mullin, T. Nakajima, D. R. Nascimento,
    J. A. Nichols, P. J. Nichols, J. Nieplocha, A. Otero-de-la-Roza, B. Palmer,
    A. Panyala, T. Pirojsirikul, B. Peng, R. Peverati, J. Pittner, L. Pollack,
   R. M. Richard, P. Sadayappan, G. C. Schatz, W. A. Shelton, D. W. Silverstein,
   D. M. A. Smith, T. A. Soares, D. Song, M. Swart, H. L. Taylor, G. S. Thomas,
            V. Tipparaju, D. G. Truhlar, K. Tsemekhman, T. Van Voorhis,
      A. Vazquez-Mayagoitia, P. Verma, O. Villa, A. Vishnu, K. D. Vogiatzis,
        D. Wang, J. H. Weare, M. J. Williamson, T. L. Windus, K. Wolinski,
        A. T. Wong, Q. Wu, C. Yang, Q. Yu, M. Zacharias, Z. Zhang, Y. Zhao,
                                and R. J. Harrison
                        "NWChem: Past, present, and future
                         J. Chem. Phys. 152, 184102 (2020)
                               doi:10.1063/5.0004997
 
                                      AUTHORS
                                      -------
  E. Apra, E. J. Bylaska, N. Govind, K. Kowalski, M. Valiev, D. Mejia-Rodriguez,
       A. Kunitsa, N. P. Bauman, A. Panyala, W. A. de Jong, T. P. Straatsma,
   H. J. J. van Dam, D. Wang, T. L. Windus, J. Hammond, J. Autschbach, A. Woods,
    K. Bhaskaran-Nair, J. Brabec, K. Lopata, S. A. Fischer, S. Krishnamoorthy,
     M. Jacquelin, W. Ma, M. Klemm, O. Villa, Y. Chen, V. Anisimov, F. Aquino,
     S. Hirata, M. T. Hackler, E. Hermes, L. Jensen, J. E. Moore, J. C. Becca,
      V. Konjkov, T. Risthaus, M. Malagoli, A. Marenich, A. Otero-de-la-Roza,
        J. Mullin, P. Nichols, R. Peverati, J. Pittner, Y. Zhao, P.-D. Fan,
        A. Fonari, M. J. Williamson, R. J. Harrison, J. R. Rehr, M. Dupuis,
     D. Silverstein, D. M. A. Smith, J. Nieplocha, V. Tipparaju, M. Krishnan,
     B. E. Van Kuiken, A. Vazquez-Mayagoitia, M. Swart, Q. Wu, T. Van Voorhis,
     A. A. Auer, M. Nooijen, L. D. Crosby, E. Brown, G. Cisneros, G. I. Fann,
   H. Fruchtl, J. Garza, K. Hirao, R. A. Kendall, J. A. Nichols, K. Tsemekhman,
    K. Wolinski, J. Anchell, D. E. Bernholdt, P. Borowski, T. Clark, D. Clerc,
   H. Dachsel, M. J. O. Deegan, K. Dyall, D. Elwood, E. Glendening, M. Gutowski,
   A. C. Hess, J. Jaffe, B. G. Johnson, J. Ju, R. Kobayashi, R. Kutteh, Z. Lin,
   R. Littlefield, X. Long, B. Meng, T. Nakajima, S. Niu, L. Pollack, M. Rosing,
   K. Glaesemann, G. Sandrone, M. Stave, H. Taylor, G. Thomas, J. H. van Lenthe,
                               A. T. Wong, Z. Zhang.

 Total times  cpu:      655.8s     wall:      655.8s
