 argument  1 = input.nw
  NWChem w/ OpenMP: maximum threads =    1



============================== echo of input deck ==============================
 echo
 start H2O
 title "H2O"

 memory total 24 gb

 geometry units bohr
 symmetry c1
        O  0.00000000  0.00000000  0.00000000
        H  0.00000000  4.42428  0.00000000
        H  1.72558000 -0.64860000  0.00000000
 end

 basis spherical
   * library cc-pVDZ
 end

 scf
   vectors input h2o.mos
   vectors output h2o.mos
 end

 tce
   2eorb
   2emet 13
   ccsd
   maxiter 300
 end

 set tce:print_integrals T
 set tce:qorb 8
 set tce:qela 5
 set tce:qelb 5

# set tce:qducc T
# set tce:nactv 3
# set tce:nonhf T
# set tce:ducc_model 6

 set tce:printtol 0.02

 task tce
================================================================================


                                         
                                         


             Northwest Computational Chemistry Package (NWChem) 7.0.1
             --------------------------------------------------------


                    Environmental Molecular Sciences Laboratory
                       Pacific Northwest National Laboratory
                                Richland, WA 99352

                              Copyright (c) 1994-2020
                       Pacific Northwest National Laboratory
                            Battelle Memorial Institute

             NWChem is an open-source computational chemistry package
                        distributed under the terms of the
                      Educational Community License (ECL) 2.0
             A copy of the license is included with this distribution
                              in the LICENSE.TXT file

                                  ACKNOWLEDGMENT
                                  --------------

            This software and its documentation were developed at the
            EMSL at Pacific Northwest National Laboratory, a multiprogram
            national laboratory, operated for the U.S. Department of Energy
            by Battelle under Contract Number DE-AC05-76RL01830. Support
            for this work was provided by the Department of Energy Office
            of Biological and Environmental Research, Office of Basic
            Energy Sciences, and the Office of Advanced Scientific Computing.


           Job information
           ---------------

    hostname        = WE46210
    program         = /home/baum612/code/nwchem/bin/LINUX64/nwchem
    date            = Fri Sep  6 10:13:40 2024

    compiled        = Wed_Sep_04_02:00:17_2024
    source          = /home/baum612/code/nwchem
    nwchem branch   = 7.0.0
    nwchem revision = nwchem_on_git-4191-g39d87d64de
    ga revision     = 5.8.1
    use scalapack   = F
    input           = input.nw
    prefix          = H2O.
    data base       = ./H2O.db
    status          = startup
    nproc           =        1
    time left       =     -1s



           Memory information
           ------------------

    heap     =  805306366 doubles =   6144.0 Mbytes
    stack    =  805306363 doubles =   6144.0 Mbytes
    global   = 1610612736 doubles =  12288.0 Mbytes (distinct from heap & stack)
    total    = 3221225465 doubles =  24576.0 Mbytes
    verify   = yes
    hardfail = no 


           Directory information
           ---------------------

  0 permanent = .
  0 scratch   = .




                                NWChem Input Module
                                -------------------


                                        H2O
                                        ---
 Turning off AUTOSYM since
 SYMMETRY directive was detected!


          ------
          auto-z
          ------
  autoz: The atoms group into disjoint clusters
 cluster   1:    1    3
 cluster   2:    2
 Connecting clusters   1   2 via atoms    1    2 r = 2.34
  autoz: regenerating connections with new bonds
  no constraints, skipping    0.0000000000000000     
  no constraints, skipping    0.0000000000000000     


                             Geometry "geometry" -> ""
                             -------------------------

 Output coordinates in a.u. (scale by  1.000000000 to convert to a.u.)

  No.       Tag          Charge          X              Y              Z
 ---- ---------------- ---------- -------------- -------------- --------------
    1 O                    8.0000    -0.17255800    -0.37756800     0.00000000
    2 H                    1.0000    -0.17255800     4.04671200     0.00000000
    3 H                    1.0000     1.55302200    -1.02616800     0.00000000

      Atomic Mass 
      ----------- 

      O                 15.994910
      H                  1.007825


 Effective nuclear repulsion energy (a.u.)       6.3345179278

            Nuclear Dipole moment (a.u.) 
            ----------------------------
        X                 Y               Z
 ---------------- ---------------- ----------------
    -0.0000000000     0.0000000000     0.0000000000



                                Z-matrix (autoz)
                                -------- 

 Units are Angstrom for bonds and degrees for angles

      Type          Name      I     J     K     L     M      Value
      ----------- --------  ----- ----- ----- ----- ----- ----------
    1 Stretch                  1     2                       2.34123
    2 Stretch                  1     3                       0.97551
    3 Bend                     2     1     3               110.59992


            XYZ format geometry
            -------------------
     3
 geometry
 O                    -0.09131377    -0.19980040     0.00000000
 H                    -0.09131377     2.14142792     0.00000000
 H                     0.82182391    -0.54302476     0.00000000

 ==============================================================================
                                internuclear distances
 ------------------------------------------------------------------------------
       center one      |      center two      | atomic units |       a.u.
 ------------------------------------------------------------------------------
    3 H                |   1 O                |     1.84345  |     1.84345
 ------------------------------------------------------------------------------
                         number of included internuclear distances:          1
 ==============================================================================





 Summary of "ao basis" -> "" (spherical)
 ------------------------------------------------------------------------------
       Tag                 Description            Shells   Functions and Types
 ---------------- ------------------------------  ------  ---------------------
 *                          cc-pVDZ                   on all atoms 


                      Basis "ao basis" -> "ao basis" (spherical)
                      -----
  O (Oxygen)
  ----------
            Exponent  Coefficients 
       -------------- ---------------------------------------------------------
  1 S  1.17200000E+04  0.000710
  1 S  1.75900000E+03  0.005470
  1 S  4.00800000E+02  0.027837
  1 S  1.13700000E+02  0.104800
  1 S  3.70300000E+01  0.283062
  1 S  1.32700000E+01  0.448719
  1 S  5.02500000E+00  0.270952
  1 S  1.01300000E+00  0.015458

  2 S  1.17200000E+04 -0.000160
  2 S  1.75900000E+03 -0.001263
  2 S  4.00800000E+02 -0.006267
  2 S  1.13700000E+02 -0.025716
  2 S  3.70300000E+01 -0.070924
  2 S  1.32700000E+01 -0.165411
  2 S  5.02500000E+00 -0.116955
  2 S  1.01300000E+00  0.557368

  3 S  3.02300000E-01  1.000000

  4 P  1.77000000E+01  0.043018
  4 P  3.85400000E+00  0.228913
  4 P  1.04600000E+00  0.508728

  5 P  2.75300000E-01  1.000000

  6 D  1.18500000E+00  1.000000

  H (Hydrogen)
  ------------
            Exponent  Coefficients 
       -------------- ---------------------------------------------------------
  1 S  1.30100000E+01  0.019685
  1 S  1.96200000E+00  0.137977
  1 S  4.44600000E-01  0.478148

  2 S  1.22000000E-01  1.000000

  3 P  7.27000000E-01  1.000000



 Summary of "ao basis" -> "ao basis" (spherical)
 ------------------------------------------------------------------------------
       Tag                 Description            Shells   Functions and Types
 ---------------- ------------------------------  ------  ---------------------
 O                          cc-pVDZ                  6       14   3s2p1d
 H                          cc-pVDZ                  3        5   2s1p


                                 NWChem SCF Module
                                 -----------------


                                        H2O



  ao basis        = "ao basis"
  functions       =    24
  atoms           =     3
  closed shells   =     5
  open shells     =     0
  charge          =   0.00
  wavefunction    = RHF 
  input vectors   = ./h2o.mos
  output vectors  = ./h2o.mos
  use symmetry    = F
  symmetry adapt  = F


 Summary of "ao basis" -> "ao basis" (spherical)
 ------------------------------------------------------------------------------
       Tag                 Description            Shells   Functions and Types
 ---------------- ------------------------------  ------  ---------------------
 O                          cc-pVDZ                  6       14   3s2p1d
 H                          cc-pVDZ                  3        5   2s1p



 Forming initial guess at       0.0s


 Loading old vectors from job with title :

H2O


 Starting SCF solution at       0.0s



 ----------------------------------------------
         Quadratically convergent ROHF

 Convergence threshold     :          1.000E-04
 Maximum no. of iterations :           30
 Final Fock-matrix accuracy:          1.000E-07
 ----------------------------------------------


 #quartets = 3.079D+03 #integrals = 2.119D+04 #direct =  0.0% #cached =100.0%


 Integral file          = ./H2O.aoints.0
 Record size in doubles =  65536        No. of integs per rec  =  43688
 Max. records in memory =      4        Max. records in file   = 232215
 No. of bits per label  =      8        No. of bits per value  =     64


              iter       energy          gnorm     gmax       time
             ----- ------------------- --------- --------- --------
                 1      -75.7409082195  1.26D-02  6.32D-03      0.0
                 2      -75.7409314288  8.67D-05  4.79D-05      0.0


       Final RHF  results 
       ------------------ 

         Total SCF energy =    -75.740931428844
      One-electron energy =   -117.301560373037
      Two-electron energy =     35.226111016391
 Nuclear repulsion energy =      6.334517927802

        Time for solution =      0.0s


             Final eigenvalues
             -----------------

              1      
    1  -20.6230
    2   -1.2816
    3   -0.6311
    4   -0.5109
    5   -0.3781
    6   -0.0687
    7    0.2055
    8    0.6396
    9    0.8116
   10    1.1610
   11    1.1818
   12    1.1840
   13    1.4474
   14    1.4515
   15    1.4774

                       ROHF Final Molecular Orbital Analysis
                       -------------------------------------

 Vector    2  Occ=2.000000D+00  E=-1.281556D+00
              MO Center=  7.1D-02, -2.6D-01, -3.1D-16, r^2= 4.8D-01
   Bfn.  Coefficient  Atom+Function         Bfn.  Coefficient  Atom+Function  
  ----- ------------  ---------------      ----- ------------  ---------------
     2      0.468452  1 O  s                  3      0.461462  1 O  s          
    20      0.208275  3 H  s          

 Vector    3  Occ=2.000000D+00  E=-6.311295D-01
              MO Center= -7.1D-03, -2.3D-01,  5.8D-16, r^2= 7.3D-01
   Bfn.  Coefficient  Atom+Function         Bfn.  Coefficient  Atom+Function  
  ----- ------------  ---------------      ----- ------------  ---------------
     4      0.507700  1 O  px                20      0.375641  3 H  s          
     3     -0.317591  1 O  s                  7      0.283738  1 O  px         

 Vector    4  Occ=2.000000D+00  E=-5.108917D-01
              MO Center= -7.2D-02, -2.1D-01, -4.1D-16, r^2= 5.7D-01
   Bfn.  Coefficient  Atom+Function         Bfn.  Coefficient  Atom+Function  
  ----- ------------  ---------------      ----- ------------  ---------------
     6      0.655875  1 O  pz                 9      0.481456  1 O  pz         

 Vector    5  Occ=2.000000D+00  E=-3.781247D-01
              MO Center= -7.3D-02,  8.1D-01,  6.0D-16, r^2= 2.1D+00
   Bfn.  Coefficient  Atom+Function         Bfn.  Coefficient  Atom+Function  
  ----- ------------  ---------------      ----- ------------  ---------------
     5      0.394437  1 O  py                16      0.392151  2 H  s          
     8      0.359309  1 O  py                15      0.291307  2 H  s          
     4      0.158276  1 O  px         

 Vector    6  Occ=0.000000D+00  E=-6.870301D-02
              MO Center= -7.9D-02,  1.1D+00, -8.9D-17, r^2= 2.4D+00
   Bfn.  Coefficient  Atom+Function         Bfn.  Coefficient  Atom+Function  
  ----- ------------  ---------------      ----- ------------  ---------------
    16      0.506207  2 H  s                  5     -0.394284  1 O  py         
     8     -0.390832  1 O  py                15      0.349668  2 H  s          

 Vector    7  Occ=0.000000D+00  E= 2.054851D-01
              MO Center=  1.0D+00, -6.2D-01, -1.1D-16, r^2= 2.3D+00
   Bfn.  Coefficient  Atom+Function         Bfn.  Coefficient  Atom+Function  
  ----- ------------  ---------------      ----- ------------  ---------------
    21      1.422209  3 H  s                  3     -0.806415  1 O  s          
     7     -0.416448  1 O  px                 4     -0.221325  1 O  px         
     8      0.173303  1 O  py         

 Vector    8  Occ=0.000000D+00  E= 6.395706D-01
              MO Center= -8.5D-02,  2.2D+00, -1.1D-17, r^2= 1.8D+00
   Bfn.  Coefficient  Atom+Function         Bfn.  Coefficient  Atom+Function  
  ----- ------------  ---------------      ----- ------------  ---------------
    15      1.304776  2 H  s                 16     -1.274743  2 H  s          

 Vector    9  Occ=0.000000D+00  E= 8.116076D-01
              MO Center=  7.2D-01, -4.8D-01, -4.9D-17, r^2= 1.3D+00
   Bfn.  Coefficient  Atom+Function         Bfn.  Coefficient  Atom+Function  
  ----- ------------  ---------------      ----- ------------  ---------------
    20      1.278598  3 H  s                 21     -0.899543  3 H  s          
     4     -0.339869  1 O  px                22      0.268368  3 H  px         
     7     -0.217396  1 O  px                16      0.205552  2 H  s          

 Vector   10  Occ=0.000000D+00  E= 1.161029D+00
              MO Center= -3.2D-01,  4.6D-01, -4.4D-16, r^2= 1.8D+00
   Bfn.  Coefficient  Atom+Function         Bfn.  Coefficient  Atom+Function  
  ----- ------------  ---------------      ----- ------------  ---------------
     7      0.990008  1 O  px                 8     -0.809044  1 O  py         
    20     -0.600334  3 H  s                  5      0.582616  1 O  py         
     4     -0.403986  1 O  px                18      0.383926  2 H  py         
     3      0.298344  1 O  s                 22      0.270251  3 H  px         
    21     -0.240600  3 H  s                  2      0.234393  1 O  s          

 Vector   11  Occ=0.000000D+00  E= 1.181811D+00
              MO Center= -7.2D-02, -1.7D-01,  2.7D-14, r^2= 1.2D+00
   Bfn.  Coefficient  Atom+Function         Bfn.  Coefficient  Atom+Function  
  ----- ------------  ---------------      ----- ------------  ---------------
     9     -1.016432  1 O  pz                 6      0.944322  1 O  pz         

 Vector   12  Occ=0.000000D+00  E= 1.184036D+00
              MO Center= -2.2D-01,  1.6D-02, -2.7D-14, r^2= 1.6D+00
   Bfn.  Coefficient  Atom+Function         Bfn.  Coefficient  Atom+Function  
  ----- ------------  ---------------      ----- ------------  ---------------
     7      1.058528  1 O  px                 4     -0.623085  1 O  px         
     5     -0.608158  1 O  py                 8      0.447201  1 O  py         
    20     -0.427455  3 H  s                  3      0.331232  1 O  s          
    18     -0.259944  2 H  py                21     -0.192485  3 H  s          
    22      0.188564  3 H  px         

 Vector   13  Occ=0.000000D+00  E= 1.447380D+00
              MO Center= -6.4D-02,  2.0D+00, -1.5D-16, r^2= 7.6D-01
   Bfn.  Coefficient  Atom+Function         Bfn.  Coefficient  Atom+Function  
  ----- ------------  ---------------      ----- ------------  ---------------
    19      0.981467  2 H  pz                24     -0.160746  3 H  pz         

 Vector   14  Occ=0.000000D+00  E= 1.451457D+00
              MO Center= -7.8D-02,  2.0D+00,  9.2D-18, r^2= 7.9D-01
   Bfn.  Coefficient  Atom+Function         Bfn.  Coefficient  Atom+Function  
  ----- ------------  ---------------      ----- ------------  ---------------
    17      0.974586  2 H  px         

 Vector   15  Occ=0.000000D+00  E= 1.477391D+00
              MO Center=  3.9D-01,  2.8D-01, -1.8D-16, r^2= 2.4D+00
   Bfn.  Coefficient  Atom+Function         Bfn.  Coefficient  Atom+Function  
  ----- ------------  ---------------      ----- ------------  ---------------
    23      0.725542  3 H  py                 3     -0.596345  1 O  s          
    18      0.545937  2 H  py                 7     -0.408583  1 O  px         
     5     -0.342275  1 O  py                 2      0.286744  1 O  s          
    21      0.279928  3 H  s                  8      0.240101  1 O  py         
    20      0.239861  3 H  s                 17      0.178092  2 H  px         


 center of mass
 --------------
 x =  -0.07599894 y =  -0.16629058 z =   0.00000000

 moments of inertia (a.u.)
 ------------------
          19.347437782415           1.495397918342           0.000000000000
           1.495397918342           2.833002082974           0.000000000000
           0.000000000000           0.000000000000          22.180439865389

  Mulliken analysis of the total density
  --------------------------------------

    Atom       Charge   Shell Charges
 -----------   ------   -------------------------------------------------------
    1 O    8     8.29   2.00  0.88  0.96  2.60  1.83  0.01
    2 H    1     0.90   0.35  0.55  0.00
    3 H    1     0.81   0.67  0.06  0.08

       Multipole analysis of the density wrt the origin
       ------------------------------------------------

     L   x y z        total         open         nuclear
     -   - - -        -----         ----         -------
     0   0 0 0     -0.000000      0.000000     10.000000

     1   1 0 0      0.651522      0.000000     -0.000000
     1   0 1 0      0.303947      0.000000      0.000000
     1   0 0 1     -0.000000      0.000000      0.000000

     2   2 0 0     -4.562361      0.000000      2.679864
     2   1 1 0     -0.832654      0.000000     -1.770735
     2   1 0 1     -0.000000      0.000000      0.000000
     2   0 2 0     -2.119395      0.000000     18.569360
     2   0 1 1     -0.000000      0.000000      0.000000
     2   0 0 2     -5.934761      0.000000      0.000000


 Parallel integral file used       1 records with       0 large values

 ------------------------------------
     Number of active orbitals      8
     Number of active alpha electrons      5
     Number of active beta electrons       5
 ------------------------------------
                   NWChem Extensible Many-Electron Theory Module
                   ---------------------------------------------

              ======================================================
                   This portion of the program was automatically
                  generated by a Tensor Contraction Engine (TCE).
                  The development of this portion of the program
                 and TCE was supported by US Department of Energy,
                Office of Science, Office of Basic Energy Science.
                      TCE is a product of Battelle and PNNL.
              Please cite: S.Hirata, J.Phys.Chem.A 107, 9887 (2003).
              ======================================================

                                        H2O


            General Information
            -------------------
      Number of processors :     1
         Wavefunction type : Restricted Hartree-Fock
          No. of electrons :    10
           Alpha electrons :     5
            Beta electrons :     5
           No. of orbitals :    48
            Alpha orbitals :    24
             Beta orbitals :    24
        Alpha frozen cores :     0
         Beta frozen cores :     0
     Alpha frozen virtuals :    16
      Beta frozen virtuals :    16
         Spin multiplicity : singlet 
    Number of AO functions :    24
       Number of AO shells :    12
        Use of symmetry is : off
      Symmetry adaption is : off
         Schwarz screening : 0.10D-09

          Correlation Information
          -----------------------
          Calculation type : Coupled-cluster singles & doubles                           
   Perturbative correction : none                                                        
            Max iterations :      300
        Residual threshold : 0.10D-06
     T(0) DIIS level shift : 0.00D+00
     L(0) DIIS level shift : 0.00D+00
     T(1) DIIS level shift : 0.00D+00
     L(1) DIIS level shift : 0.00D+00
     T(R) DIIS level shift : 0.00D+00
     T(I) DIIS level shift : 0.00D+00
   CC-T/L Amplitude update :  5-th order DIIS
                I/O scheme : Global Array Library
        L-threshold :  0.10D-06
        EOM-threshold :  0.10D-06
 no EOMCCSD initial starts read in
 TCE RESTART OPTIONS
 READ_INT:   F
 WRITE_INT:  F
 READ_TA:    F
 WRITE_TA:   F
 READ_XA:    F
 WRITE_XA:   F
 READ_IN3:   F
 WRITE_IN3:  F
 SLICE:      F
 D4D5:       F
 quantumc:   T
 qrotation:  F
 pwtce:      F
 qducc:      F
 nacto:                         0
 nrotv:                         0
 nrot:                          0

            Memory Information
            ------------------
          Available GA space size is    1610612160 doubles
          Available MA space size is    1610610956 doubles

 Maximum block size supplied by input
 Maximum block size         1 doubles

 tile_dim =      1

 Block   Spin    Irrep     Size     Offset   Alpha
 -------------------------------------------------
   1    alpha     a      1 doubles       0       1
   2    alpha     a      1 doubles       1       2
   3    alpha     a      1 doubles       2       3
   4    alpha     a      1 doubles       3       4
   5    alpha     a      1 doubles       4       5
   6    beta      a      1 doubles       5       1
   7    beta      a      1 doubles       6       2
   8    beta      a      1 doubles       7       3
   9    beta      a      1 doubles       8       4
  10    beta      a      1 doubles       9       5
  11    alpha     a      1 doubles      10      11
  12    alpha     a      1 doubles      11      12
  13    alpha     a      1 doubles      12      13
  14    beta      a      1 doubles      13      11
  15    beta      a      1 doubles      14      12
  16    beta      a      1 doubles      15      13

 Global array virtual files algorithm will be used

 Parallel file system coherency ......... OK

 #quartets = 3.081D+03 #integrals = 2.130D+04 #direct =  0.0% #cached =100.0%


 Integral file          = ./H2O.aoints.0
 Record size in doubles =  65536        No. of integs per rec  =  43688
 Max. records in memory =      4        Max. records in file   = 232215
 No. of bits per label  =      8        No. of bits per value  =     64


 Fock matrix recomputed
 1-e file size   =               64
 1-e file name   = ./H2O.f1
 Cpu & wall time / sec            0.0            0.0
 4-electron integrals stored in orbital form

 v2    file size   =              666
 4-index algorithm nr.  13 is used
 imaxsize =       30
 imaxsize ichop =        0
 begin_one_electron_integrals
    1    1       -32.6918563514
    2    1         0.5902047570
    3    1        -0.1715107225
    5    1        -0.0289360027
    6    1        -0.0517485972
    7    1        -0.1418614481
    8    1         0.0214634599
    1    2         0.5902047570
    2    2        -7.6205455348
    3    2         0.2495939040
    5    2         0.1522541616
    6    2         0.2406224114
    7    2         0.8201086422
    8    2        -0.0377524447
    1    3        -0.1715107225
    2    3         0.2495939040
    3    3        -6.6069099491
    5    3        -0.2112867825
    6    3        -0.1927370083
    7    3         0.7909957074
    8    3         0.2652076754
    4    4        -6.9288905203
    1    5        -0.0289360027
    2    5         0.1522541616
    3    5        -0.2112867825
    5    5        -4.8025778309
    6    5         2.0721418274
    7    5        -0.1271944935
    8    5        -0.2021160371
    1    6        -0.0517485972
    2    6         0.2406224114
    3    6        -0.1927370083
    5    6         2.0721418274
    6    6        -4.3299882632
    7    6        -0.0033928214
    8    6         0.0043873520
    1    7        -0.1418614481
    2    7         0.8201086422
    3    7         0.7909957074
    5    7        -0.1271944935
    6    7        -0.0033928214
    7    7        -3.2187469142
    8    7        -0.0890223161
    1    8         0.0214634599
    2    8        -0.0377524447
    3    8         0.2652076754
    5    8        -0.2021160371
    6    8         0.0043873520
    7    8        -0.0890223161
    8    8        -1.7313545958
 end_one_electron_integrals
 begin_two_electron_integrals
    1    1    1    1        4.7413161202
    2    1    1    1       -0.4453362669
    2    1    2    1        0.0681554034
    3    1    1    1        0.1313580277
    3    1    2    1       -0.0165449306
    3    1    3    1        0.0276708041
    3    1    2    2        0.0144598836
    4    1    4    1        0.0321228094
    5    1    1    1        0.0245638931
    5    1    2    1       -0.0038406778
    5    1    3    1        0.0027297724
    5    1    5    1        0.0142317366
    5    1    2    2        0.0008139321
    5    1    3    2        0.0014212322
    5    1    3    3       -0.0003239181
    5    1    4    4        0.0006474799
    6    1    1    1        0.0399975938
    6    1    2    1       -0.0057490772
    6    1    3    1        0.0021536679
    6    1    5    1       -0.0130364401
    6    1    6    1        0.0134822943
    6    1    2    2        0.0023574671
    6    1    3    2        0.0001846915
    6    1    5    2       -0.0145252664
    6    1    3    3        0.0008226633
    6    1    5    3        0.0043964407
    6    1    4    4        0.0009803529
    6    1    5    5        0.0005476463
    7    1    1    1        0.1147370456
    7    1    2    1       -0.0192669126
    7    1    3    1       -0.0043017775
    7    1    5    1        0.0012148067
    7    1    6    1        0.0005539271
    7    1    7    1        0.0089116825
    7    1    2    2        0.0001081415
    7    1    3    2       -0.0114808723
    7    1    5    2        0.0001760424
    7    1    6    2       -0.0013786533
    7    1    3    3        0.0060406989
    7    1    5    3        0.0005709817
    7    1    6    3        0.0011142255
    7    1    4    4        0.0024426108
    7    1    5    5        0.0012942977
    7    1    6    5       -0.0007453855
    7    1    6    6        0.0012689931
    8    1    1    1       -0.0165800216
    8    1    2    1        0.0020310289
    8    1    3    1       -0.0037187087
    8    1    5    1        0.0010034389
    8    1    6    1       -0.0015926976
    8    1    7    1        0.0007310992
    8    1    8    1        0.0006350254
    8    1    2    2       -0.0019087484
    8    1    3    2       -0.0030583700
    8    1    5    2        0.0013332192
    8    1    6    2       -0.0013558139
    8    1    7    2        0.0015097224
    8    1    3    3        0.0008789259
    8    1    5    3       -0.0002644539
    8    1    6    3        0.0005761130
    8    1    7    3        0.0001612619
    8    1    4    4       -0.0005283835
    8    1    5    5       -0.0001964462
    8    1    6    5        0.0003483561
    8    1    7    5       -0.0003315990
    8    1    6    6        0.0000563788
    8    1    7    6        0.0001559233
    8    1    7    7       -0.0009341582
    2    2    1    1        1.0757544297
    2    2    2    1       -0.0157617910
    2    2    2    2        0.7761677335
    3    2    1    1       -0.0888895391
    3    2    2    1        0.0079943820
    3    2    3    1        0.0232849935
    3    2    2    2        0.0234976650
    3    2    3    2        0.1476367529
    4    2    4    1        0.0325268275
    4    2    4    2        0.1393010034
    5    2    1    1       -0.0371365320
    5    2    2    1        0.0008891022
    5    2    3    1        0.0009967354
    5    2    5    1        0.0150643319
    5    2    2    2       -0.0205291013
    5    2    3    2        0.0061194474
    5    2    5    2        0.0739760109
    5    2    3    3       -0.0193168306
    5    2    4    4       -0.0189108940
    6    2    1    1       -0.0483814057
    6    2    2    1        0.0017745382
    6    2    3    1       -0.0001481059
    6    2    5    1       -0.0140985229
    6    2    6    1        0.0134009308
    6    2    2    2       -0.0203530764
    6    2    3    2        0.0060884784
    6    2    5    2       -0.0646864358
    6    2    6    2        0.0617579254
    6    2    3    3       -0.0197491650
    6    2    5    3        0.0139338049
    6    2    4    4       -0.0254638110
    6    2    5    5       -0.0161998376
    7    2    1    1       -0.1810116675
    7    2    2    1        0.0035255691
    7    2    3    1       -0.0108289887
    7    2    5    1       -0.0000076173
    7    2    6    1       -0.0014948172
    7    2    7    1        0.0028671194
    7    2    2    2       -0.1006537067
    7    2    3    2       -0.0247048969
    7    2    5    2        0.0055495141
    7    2    6    2        0.0013507415
    7    2    7    2        0.0352330355
    7    2    3    3       -0.0587830181
    7    2    5    3       -0.0033592835
    7    2    6    3        0.0002654982
    7    2    4    4       -0.0871787884
    7    2    5    5       -0.0449303502
    7    2    6    5        0.0382818193
    7    2    6    6       -0.0398634524
    8    2    1    1        0.0103160916
    8    2    2    1       -0.0008478903
    8    2    3    1       -0.0020113949
    8    2    5    1        0.0010704149
    8    2    6    1       -0.0011518565
    8    2    7    1        0.0011330068
    8    2    8    1        0.0003887292
    8    2    2    2        0.0023489620
    8    2    3    2       -0.0057136624
    8    2    5    2        0.0037616651
    8    2    6    2       -0.0043153539
    8    2    7    2        0.0028688283
    8    2    8    2        0.0015622740
    8    2    3    3        0.0096789291
    8    2    5    3       -0.0001940820
    8    2    6    3        0.0016354336
    8    2    7    3        0.0007506560
    8    2    4    4        0.0039029732
    8    2    5    5        0.0016764284
    8    2    6    5        0.0003180752
    8    2    7    5       -0.0012376288
    8    2    6    6        0.0029875090
    8    2    7    6        0.0006225574
    8    2    7    7        0.0022769796
    3    3    1    1        0.9508395726
    3    3    2    1       -0.0112824682
    3    3    3    1       -0.0056585960
    3    3    2    2        0.6947722859
    3    3    3    2       -0.0314485083
    3    3    3    3        0.7062306001
    4    3    4    1       -0.0094531809
    4    3    4    2       -0.0312154620
    4    3    4    3        0.0414923693
    5    3    1    1        0.0468719470
    5    3    2    1       -0.0010651725
    5    3    3    1       -0.0012398012
    5    3    5    1       -0.0045989784
    5    3    2    2        0.0246695315
    5    3    3    2       -0.0071203333
    5    3    5    2       -0.0198155405
    5    3    3    3        0.0266130166
    5    3    5    3        0.0254497932
    5    3    4    4        0.0248159603
    6    3    1    1        0.0342358330
    6    3    2    1       -0.0009569113
    6    3    3    1       -0.0014500819
    6    3    5    1        0.0038330082
    6    3    6    1       -0.0037354779
    6    3    2    2        0.0202145960
    6    3    3    2       -0.0044746503
    6    3    5    2        0.0117872079
    6    3    6    2       -0.0128069643
    6    3    3    3        0.0240916620
    6    3    5    3       -0.0174629268
    6    3    6    3        0.0196022862
    6    3    4    4        0.0208293057
    6    3    5    5        0.0040532890
    7    3    1    1       -0.1623551726
    7    3    2    1        0.0021315619
    7    3    3    1       -0.0016783831
    7    3    5    1       -0.0004795084
    7    3    6    1        0.0000885327
    7    3    7    1       -0.0000790112
    7    3    2    2       -0.0831345750
    7    3    3    2        0.0218258835
    7    3    5    2        0.0021828045
    7    3    6    2        0.0067677951
    7    3    7    2        0.0235732080
    7    3    3    3       -0.0756526642
    7    3    5    3       -0.0033447412
    7    3    6    3       -0.0025864513
    7    3    7    3        0.0375231590
    7    3    4    4       -0.0822912909
    7    3    5    5       -0.0469616332
    7    3    6    5        0.0325788693
    7    3    6    6       -0.0409057496
    8    3    1    1       -0.0600037531
    8    3    2    1        0.0016517985
    8    3    3    1        0.0014751676
    8    3    5    1       -0.0002627901
    8    3    6    1        0.0002363254
    8    3    7    1       -0.0011404178
    8    3    8    1       -0.0002391293
    8    3    2    2       -0.0237913101
    8    3    3    2        0.0137167383
    8    3    5    2        0.0005211399
    8    3    6    2        0.0026696902
    8    3    7    2        0.0046742981
    8    3    8    2       -0.0007397766
    8    3    3    3       -0.0251086712
    8    3    5    3       -0.0008372356
    8    3    6    3       -0.0017994641
    8    3    7    3        0.0093593874
    8    3    8    3        0.0042269482
    8    3    4    4       -0.0269743214
    8    3    5    5       -0.0174439916
    8    3    6    5        0.0071762623
    8    3    7    5        0.0001136871
    8    3    6    6       -0.0171765016
    8    3    7    6        0.0016779738
    8    3    7    7        0.0005464960
    4    4    1    1        1.0650671318
    4    4    2    1       -0.0122744467
    4    4    3    1        0.0041588943
    4    4    2    2        0.7367524898
    4    4    3    2       -0.0383937703
    4    4    3    3        0.6594719516
    4    4    4    4        0.7825428743
    5    4    4    1       -0.0015655634
    5    4    4    2       -0.0050256671
    5    4    4    3        0.0030209082
    5    4    5    4        0.0204778966
    6    4    4    1       -0.0026954973
    6    4    4    2       -0.0091426532
    6    4    4    3        0.0035499367
    6    4    5    4       -0.0178966391
    6    4    6    4        0.0177594765
    7    4    4    1       -0.0063724019
    7    4    4    2       -0.0183607033
    7    4    4    3       -0.0041859160
    7    4    5    4        0.0014730995
    7    4    6    4        0.0006938140
    7    4    7    4        0.0097374863
    8    4    4    1        0.0006675688
    8    4    4    2        0.0001721070
    8    4    4    3       -0.0025803645
    8    4    5    4        0.0007808572
    8    4    6    4       -0.0013293709
    8    4    7    4        0.0003705300
    8    4    8    4        0.0006481010
    5    5    1    1        0.6432157125
    5    5    2    1       -0.0055583582
    5    5    3    1        0.0012579789
    5    5    5    1        0.0001808594
    5    5    2    2        0.4886662950
    5    5    3    2       -0.0273261877
    5    5    5    2        0.0030167748
    5    5    3    3        0.4508159938
    5    5    5    3        0.0038290164
    5    5    4    4        0.4731334162
    5    5    5    5        0.4469257311
    6    5    1    1       -0.3810687817
    6    5    2    1        0.0049633424
    6    5    3    1       -0.0022491645
    6    5    5    1        0.0000394696
    6    5    6    1       -0.0007689074
    6    5    2    2       -0.2435646912
    6    5    3    2        0.0102313694
    6    5    5    2        0.0200463533
    6    5    6    2        0.0068466674
    6    5    3    3       -0.2072337328
    6    5    5    3       -0.0217691345
    6    5    6    3       -0.0145163246
    6    5    4    4       -0.2276816667
    6    5    5    5       -0.0661237905
    6    5    6    5        0.2003003372
    7    5    1    1        0.0215568659
    7    5    2    1       -0.0002399205
    7    5    3    1        0.0003550020
    7    5    5    1       -0.0028285803
    7    5    6    1        0.0027981720
    7    5    7    1       -0.0002177567
    7    5    2    2        0.0158353675
    7    5    3    2        0.0013802478
    7    5    5    2       -0.0085499862
    7    5    6    2        0.0072172563
    7    5    7    2       -0.0024563954
    7    5    3    3        0.0124972742
    7    5    5    3       -0.0009436389
    7    5    6    3        0.0029939585
    7    5    7    3       -0.0006138954
    7    5    4    4        0.0142888519
    7    5    5    5        0.0037276644
    7    5    6    5       -0.0136961843
    7    5    7    5        0.0070612720
    7    5    6    6       -0.0031964437
    8    5    1    1        0.0287578765
    8    5    2    1       -0.0003704524
    8    5    3    1        0.0003475482
    8    5    5    1        0.0000788829
    8    5    6    1        0.0000095567
    8    5    7    1       -0.0000112691
    8    5    8    1       -0.0000422933
    8    5    2    2        0.0178200913
    8    5    3    2       -0.0009004640
    8    5    5    2       -0.0001746393
    8    5    6    2        0.0025807282
    8    5    7    2       -0.0034460773
    8    5    8    2        0.0019944891
    8    5    3    3        0.0146564063
    8    5    5    3       -0.0043165995
    8    5    6    3       -0.0028225146
    8    5    7    3       -0.0020983463
    8    5    8    3       -0.0054777564
    8    5    4    4        0.0162842028
    8    5    5    5        0.0517842285
    8    5    6    5        0.0387721239
    8    5    7    5       -0.0056182046
    8    5    8    5        0.0534005929
    8    5    6    6        0.0651776027
    8    5    7    6       -0.0083561175
    8    5    7    7        0.0068071629
    6    6    1    1        0.5817425668
    6    6    2    1       -0.0052190265
    6    6    3    1        0.0015191671
    6    6    5    1        0.0031216126
    6    6    6    1       -0.0022872158
    6    6    2    2        0.4402453498
    6    6    3    2       -0.0220414279
    6    6    5    2        0.0125766835
    6    6    6    2       -0.0210960559
    6    6    3    3        0.4066498714
    6    6    5    3       -0.0043220101
    6    6    6    3        0.0046423798
    6    6    4    4        0.4267838125
    6    6    5    5        0.4316721857
    6    6    6    5       -0.0208096102
    6    6    6    6        0.4356527658
    7    6    1    1       -0.0021051538
    7    6    2    1        0.0000777025
    7    6    3    1        0.0008546027
    7    6    5    1        0.0027563112
    7    6    6    1       -0.0025893689
    7    6    7    1       -0.0001778420
    7    6    2    2        0.0038009706
    7    6    3    2        0.0065263921
    7    6    5    2        0.0075367683
    7    6    6    2       -0.0080034418
    7    6    7    2        0.0013397511
    7    6    3    3        0.0029998979
    7    6    5    3        0.0032653648
    7    6    6    3       -0.0003343299
    7    6    7    3        0.0033594835
    7    6    4    4        0.0025839584
    7    6    5    5       -0.0124253387
    7    6    6    5       -0.0163489113
    7    6    7    5       -0.0023604725
    7    6    6    6       -0.0162703493
    7    6    7    6        0.0077460689
    8    6    1    1       -0.0214265082
    8    6    2    1        0.0006043835
    8    6    3    1       -0.0000535183
    8    6    5    1        0.0000945669
    8    6    6    1       -0.0001525261
    8    6    7    1       -0.0001786044
    8    6    8    1        0.0000234517
    8    6    2    2       -0.0068431206
    8    6    3    2        0.0007732214
    8    6    5    2        0.0073233829
    8    6    6    2       -0.0004374907
    8    6    7    2        0.0026491865
    8    6    8    2        0.0021697568
    8    6    3    3       -0.0042098285
    8    6    5    3       -0.0062279059
    8    6    6    3       -0.0058342992
    8    6    7    3        0.0025378350
    8    6    8    3       -0.0044367161
    8    6    4    4       -0.0065146002
    8    6    5    5        0.0516679983
    8    6    6    5        0.0638247858
    8    6    7    5       -0.0073298532
    8    6    8    5        0.0617838162
    8    6    6    6        0.0681783344
    8    6    7    6       -0.0094615276
    8    6    8    6        0.0767404415
    8    6    7    7        0.0028612885
    7    7    1    1        0.4121719664
    7    7    2    1       -0.0017503242
    7    7    3    1        0.0069899497
    7    7    5    1        0.0000140306
    7    7    6    1        0.0008743208
    7    7    7    1       -0.0019830936
    7    7    2    2        0.3748188625
    7    7    3    2        0.0490030878
    7    7    5    2       -0.0064002151
    7    7    6    2       -0.0011499914
    7    7    7    2       -0.0136440347
    7    7    3    3        0.3594214073
    7    7    5    3        0.0075741737
    7    7    6    3        0.0093682029
    7    7    7    3        0.0131692868
    7    7    4    4        0.3463760751
    7    7    5    5        0.2685609983
    7    7    6    5       -0.0817114398
    7    7    7    5        0.0090014635
    7    7    6    6        0.2491335353
    7    7    7    6        0.0112239681
    7    7    7    7        0.3548407322
    8    7    1    1        0.0206454726
    8    7    2    1       -0.0002579708
    8    7    3    1        0.0006119816
    8    7    5    1       -0.0005016212
    8    7    6    1        0.0005701832
    8    7    7    1       -0.0001633335
    8    7    8    1       -0.0001281128
    8    7    2    2        0.0135588288
    8    7    3    2        0.0059972081
    8    7    5    2       -0.0052189828
    8    7    6    2        0.0028307380
    8    7    7    2       -0.0015243989
    8    7    8    2        0.0001916937
    8    7    3    3        0.0133372079
    8    7    5    3        0.0023426349
    8    7    6    3        0.0017927556
    8    7    7    3        0.0019687066
    8    7    8    3        0.0010172134
    8    7    4    4        0.0095569580
    8    7    5    5       -0.0087314888
    8    7    6    5       -0.0177697943
    8    7    7    5        0.0011931872
    8    7    8    5       -0.0089714802
    8    7    6    6       -0.0118586062
    8    7    7    6        0.0025446740
    8    7    8    6       -0.0128430216
    8    7    7    7        0.0128329948
    8    7    8    7        0.0049114341
    8    8    1    1        0.2236117573
    8    8    2    1       -0.0003949444
    8    8    3    1       -0.0006694918
    8    8    5    1        0.0015449235
    8    8    6    1       -0.0014855837
    8    8    7    1        0.0004492516
    8    8    8    1        0.0002400976
    8    8    2    2        0.2132807318
    8    8    3    2       -0.0113812220
    8    8    5    2        0.0242146049
    8    8    6    2       -0.0099323913
    8    8    7    2       -0.0039021900
    8    8    8    2        0.0032426092
    8    8    3    3        0.2141498246
    8    8    5    3       -0.0196812622
    8    8    6    3       -0.0093098532
    8    8    7    3       -0.0096675755
    8    8    8    3       -0.0105712934
    8    8    4    4        0.2138815224
    8    8    5    5        0.3507752293
    8    8    6    5        0.1451377863
    8    8    7    5       -0.0131196950
    8    8    8    5        0.1049298466
    8    8    6    6        0.3896850099
    8    8    7    6       -0.0286624597
    8    8    8    6        0.1313790801
    8    8    7    7        0.1741596930
    8    8    8    7       -0.0281232458
    8    8    8    8        0.5193295876
 end_two_electron_integrals
 enrep_tce =    6.3345179278021471     
  EHF(A)             =       -75.74093143
  EHF(total)         =       -75.74093143
  Shift (HFtot-HFA)  =         0.00000000
 Cpu & wall time / sec            0.1            0.1
 T1-number-of-tasks                   15

 t1 file size   =               15
 t1 file name   = ./H2O.t1
 t1 file handle =       -998
 T2-number-of-boxes                  315

 t2 file size   =              315
 t2 file name   = ./H2O.t2
 t2 file handle =       -996
CCSD iterations
 ---------------------------------------------------------
 Iter          Residuum       Correlation     Cpu    Wall 
 ---------------------------------------------------------
NEW TASK SCHEDULING
CCSD_T1_NTS --- OK
CCSD_T2_NTS --- OK
    1   0.1260032032118  -0.0791862602633     1.8     2.6
    2   0.0633457705440  -0.1184756743911     1.9     2.5
    3   0.0330888563358  -0.1319648806724     1.9     2.5
    4   0.0148642025680  -0.1407049306993     1.9     2.5
    5   0.0089848973320  -0.1432070180429     1.8     2.5
 MICROCYCLE DIIS UPDATE:                    5                    5
    6   0.0040119354121  -0.1458712096946     1.9     2.5
    7   0.0025418953386  -0.1461187207261     1.8     2.5
    8   0.0018751506232  -0.1462490547787     1.7     2.5
    9   0.0014222190655  -0.1462653959894     1.8     2.5
   10   0.0010598959323  -0.1463195207425     1.9     2.6
 MICROCYCLE DIIS UPDATE:                   10                    5
   11   0.0000677940263  -0.1464212485691     1.8     2.6
   12   0.0000465935208  -0.1464176524610     2.0     2.6
   13   0.0000136859737  -0.1464242795775     1.8     2.5
   14   0.0000128058212  -0.1464212561573     1.9     2.5
   15   0.0000053805973  -0.1464236021734     1.9     2.5
 MICROCYCLE DIIS UPDATE:                   15                    5
   16   0.0000019208749  -0.1464231971827     2.0     2.5
   17   0.0000012290648  -0.1464232466298     1.9     2.5
   18   0.0000008872514  -0.1464232551216     1.7     2.5
   19   0.0000006709270  -0.1464232738435     1.8     2.5
   20   0.0000005058547  -0.1464232849854     1.8     2.5
 MICROCYCLE DIIS UPDATE:                   20                    5
   21   0.0000000576628  -0.1464233238238     1.7     2.5
 -----------------------------------------------------------------
 Iterations converged
 CCSD correlation energy / hartree =        -0.146423323823843
 CCSD total energy / hartree       =       -75.887354752667633

 Singles contributions
     6a   (alpha) ---     3a   (alpha)        0.0457077429
     6a   (alpha) ---     5a   (alpha)        0.0851250592
     7a   (alpha) ---     5a   (alpha)       -0.0220879083
     8a   (alpha) ---     5a   (alpha)        0.0623965151

 Doubles contributions
     6a   (alpha)     6a   (beta ) ---     5a   (alpha)     5a   (beta )       -0.6809141482
     6a   (alpha)     7a   (beta ) ---     5a   (alpha)     5a   (beta )        0.0250218243
     6a   (alpha)     8a   (beta ) ---     5a   (alpha)     5a   (beta )       -0.0618978360
     7a   (alpha)     6a   (beta ) ---     5a   (alpha)     5a   (beta )        0.0250218243
     7a   (alpha)     7a   (beta ) ---     3a   (alpha)     3a   (beta )       -0.0266182607
     8a   (alpha)     6a   (beta ) ---     5a   (alpha)     5a   (beta )       -0.0618978360
 Ground state specification:
 exp(T)|Ref>~(1+T)|Ref>
 ------- a(p)+/a(q) strings ----------

 singles norm

 doubles norm

 Reference string
  0.82657498929964779      :(1a)+ (2a)+ (3a)+ (4a)+ (5a)+ (1b)+ (2b)+ (3b)+ (4b)+ (5b)+ |0>

 Singles strings

 Doubles strings
 -0.56282660479430702      :(6a)+ (6b)+ (5b)  (5a)  (1a)+ (2a)+ (3a)+ (4a)+ (5a)+ (1b)+ (2b)+ (3b)+ (4b)+ (5b)+ |0>
 -------------------------------------

 Parallel integral file used       1 records with       0 large values


 Task  times  cpu:       39.3s     wall:       53.9s


                                NWChem Input Module
                                -------------------


 Summary of allocated global arrays
-----------------------------------
  No active global arrays


MA_summarize_allocated_blocks: starting scan ...
MA_summarize_allocated_blocks: scan completed: 0 heap blocks, 0 stack blocks
MA usage statistics:

	allocation statistics:
					      heap	     stack
					      ----	     -----
	current number of blocks	         0	         0
	maximum number of blocks	        17	        42
	current total bytes		         0	         0
	maximum total bytes		   2110096	  16007608
	maximum total K-bytes		      2111	     16008
	maximum total M-bytes		         3	        17


                                     CITATION
                                     --------
                Please cite the following reference when publishing
                           results obtained with NWChem:

          E. Apra, E. J. Bylaska, W. A. de Jong, N. Govind, K. Kowalski,
       T. P. Straatsma, M. Valiev, H. J. J. van Dam, Y. Alexeev, J. Anchell,
       V. Anisimov, F. W. Aquino, R. Atta-Fynn, J. Autschbach, N. P. Bauman,
     J. C. Becca, D. E. Bernholdt, K. Bhaskaran-Nair, S. Bogatko, P. Borowski,
         J. Boschen, J. Brabec, A. Bruner, E. Cauet, Y. Chen, G. N. Chuev,
      C. J. Cramer, J. Daily, M. J. O. Deegan, T. H. Dunning Jr., M. Dupuis,
   K. G. Dyall, G. I. Fann, S. A. Fischer, A. Fonari, H. Fruchtl, L. Gagliardi,
      J. Garza, N. Gawande, S. Ghosh, K. Glaesemann, A. W. Gotz, J. Hammond,
       V. Helms, E. D. Hermes, K. Hirao, S. Hirata, M. Jacquelin, L. Jensen,
   B. G. Johnson, H. Jonsson, R. A. Kendall, M. Klemm, R. Kobayashi, V. Konkov,
      S. Krishnamoorthy, M. Krishnan, Z. Lin, R. D. Lins, R. J. Littlefield,
      A. J. Logsdail, K. Lopata, W. Ma, A. V. Marenich, J. Martin del Campo,
   D. Mejia-Rodriguez, J. E. Moore, J. M. Mullin, T. Nakajima, D. R. Nascimento,
    J. A. Nichols, P. J. Nichols, J. Nieplocha, A. Otero-de-la-Roza, B. Palmer,
    A. Panyala, T. Pirojsirikul, B. Peng, R. Peverati, J. Pittner, L. Pollack,
   R. M. Richard, P. Sadayappan, G. C. Schatz, W. A. Shelton, D. W. Silverstein,
   D. M. A. Smith, T. A. Soares, D. Song, M. Swart, H. L. Taylor, G. S. Thomas,
            V. Tipparaju, D. G. Truhlar, K. Tsemekhman, T. Van Voorhis,
      A. Vazquez-Mayagoitia, P. Verma, O. Villa, A. Vishnu, K. D. Vogiatzis,
        D. Wang, J. H. Weare, M. J. Williamson, T. L. Windus, K. Wolinski,
        A. T. Wong, Q. Wu, C. Yang, Q. Yu, M. Zacharias, Z. Zhang, Y. Zhao,
                                and R. J. Harrison
                        "NWChem: Past, present, and future
                         J. Chem. Phys. 152, 184102 (2020)
                               doi:10.1063/5.0004997

                                      AUTHORS
                                      -------
  E. Apra, E. J. Bylaska, N. Govind, K. Kowalski, M. Valiev, D. Mejia-Rodriguez,
       A. Kunitsa, N. P. Bauman, A. Panyala, W. A. de Jong, T. P. Straatsma,
        H. J. J. van Dam, D. Wang, T. L. Windus, J. Hammond, J. Autschbach,
    K. Bhaskaran-Nair, J. Brabec, K. Lopata, S. A. Fischer, S. Krishnamoorthy,
     M. Jacquelin, W. Ma, M. Klemm, O. Villa, Y. Chen, V. Anisimov, F. Aquino,
    S. Hirata, M. T. Hackler, Eric Hermes, L. Jensen, J. E. Moore, J. C. Becca,
      V. Konjkov, T. Risthaus, M. Malagoli, A. Marenich, A. Otero-de-la-Roza,
        J. Mullin, P. Nichols, R. Peverati, J. Pittner, Y. Zhao, P.-D. Fan,
        A. Fonari, M. J. Williamson, R. J. Harrison, J. R. Rehr, M. Dupuis,
     D. Silverstein, D. M. A. Smith, J. Nieplocha, V. Tipparaju, M. Krishnan,
     B. E. Van Kuiken, A. Vazquez-Mayagoitia, M. Swart, Q. Wu, T. Van Voorhis,
     A. A. Auer, M. Nooijen, L. D. Crosby, E. Brown, G. Cisneros, G. I. Fann,
   H. Fruchtl, J. Garza, K. Hirao, R. A. Kendall, J. A. Nichols, K. Tsemekhman,
    K. Wolinski, J. Anchell, D. E. Bernholdt, P. Borowski, T. Clark, D. Clerc,
   H. Dachsel, M. J. O. Deegan, K. Dyall, D. Elwood, E. Glendening, M. Gutowski,
   A. C. Hess, J. Jaffe, B. G. Johnson, J. Ju, R. Kobayashi, R. Kutteh, Z. Lin,
   R. Littlefield, X. Long, B. Meng, T. Nakajima, S. Niu, L. Pollack, M. Rosing,
   K. Glaesemann, G. Sandrone, M. Stave, H. Taylor, G. Thomas, J. H. van Lenthe,
                               A. T. Wong, Z. Zhang.

 Total times  cpu:       39.3s     wall:       53.9s
