 argument  1 = input.nw
  NWChem w/ OpenMP: maximum threads =    1



============================== echo of input deck ==============================
 echo
 start H2O
 title "H2O"

 memory total 24 gb

 geometry units bohr
 symmetry c1
        O  0.00000000  0.00000000  0.00000000
        H  0.00000000  5.16166  0.00000000
        H  1.72558000 -0.64860000  0.00000000
 end

 basis spherical
   * library cc-pVDZ
 end

 scf
   vectors input h2o.mos
   vectors output h2o.mos
 end

 tce
   2eorb
   2emet 13
   ccsd
   maxiter 300
 end

 set tce:print_integrals T
 set tce:qorb 8
 set tce:qela 5
 set tce:qelb 5

# set tce:qducc T
# set tce:nactv 3
# set tce:nonhf T
# set tce:ducc_model 6

 set tce:printtol 0.02

 task tce
================================================================================


                                         
                                         


             Northwest Computational Chemistry Package (NWChem) 7.0.1
             --------------------------------------------------------


                    Environmental Molecular Sciences Laboratory
                       Pacific Northwest National Laboratory
                                Richland, WA 99352

                              Copyright (c) 1994-2020
                       Pacific Northwest National Laboratory
                            Battelle Memorial Institute

             NWChem is an open-source computational chemistry package
                        distributed under the terms of the
                      Educational Community License (ECL) 2.0
             A copy of the license is included with this distribution
                              in the LICENSE.TXT file

                                  ACKNOWLEDGMENT
                                  --------------

            This software and its documentation were developed at the
            EMSL at Pacific Northwest National Laboratory, a multiprogram
            national laboratory, operated for the U.S. Department of Energy
            by Battelle under Contract Number DE-AC05-76RL01830. Support
            for this work was provided by the Department of Energy Office
            of Biological and Environmental Research, Office of Basic
            Energy Sciences, and the Office of Advanced Scientific Computing.


           Job information
           ---------------

    hostname        = WE46210
    program         = /home/baum612/code/nwchem/bin/LINUX64/nwchem
    date            = Fri Sep  6 10:21:15 2024

    compiled        = Wed_Sep_04_02:00:17_2024
    source          = /home/baum612/code/nwchem
    nwchem branch   = 7.0.0
    nwchem revision = nwchem_on_git-4191-g39d87d64de
    ga revision     = 5.8.1
    use scalapack   = F
    input           = input.nw
    prefix          = H2O.
    data base       = ./H2O.db
    status          = startup
    nproc           =        1
    time left       =     -1s



           Memory information
           ------------------

    heap     =  805306366 doubles =   6144.0 Mbytes
    stack    =  805306363 doubles =   6144.0 Mbytes
    global   = 1610612736 doubles =  12288.0 Mbytes (distinct from heap & stack)
    total    = 3221225465 doubles =  24576.0 Mbytes
    verify   = yes
    hardfail = no 


           Directory information
           ---------------------

  0 permanent = .
  0 scratch   = .




                                NWChem Input Module
                                -------------------


                                        H2O
                                        ---
 Turning off AUTOSYM since
 SYMMETRY directive was detected!


          ------
          auto-z
          ------
  autoz: The atoms group into disjoint clusters
 cluster   1:    1    3
 cluster   2:    2
 Connecting clusters   1   2 via atoms    1    2 r = 2.73
  autoz: regenerating connections with new bonds
  no constraints, skipping    0.0000000000000000     
  no constraints, skipping    0.0000000000000000     


                             Geometry "geometry" -> ""
                             -------------------------

 Output coordinates in a.u. (scale by  1.000000000 to convert to a.u.)

  No.       Tag          Charge          X              Y              Z
 ---- ---------------- ---------- -------------- -------------- --------------
    1 O                    8.0000    -0.17255800    -0.45130600     0.00000000
    2 H                    1.0000    -0.17255800     4.71035400     0.00000000
    3 H                    1.0000     1.55302200    -1.09990600     0.00000000

      Atomic Mass 
      ----------- 

      O                 15.994910
      H                  1.007825


 Effective nuclear repulsion energy (a.u.)       6.0545648778

            Nuclear Dipole moment (a.u.) 
            ----------------------------
        X                 Y               Z
 ---------------- ---------------- ----------------
    -0.0000000000    -0.0000000000     0.0000000000



                                Z-matrix (autoz)
                                -------- 

 Units are Angstrom for bonds and degrees for angles

      Type          Name      I     J     K     L     M      Value
      ----------- --------  ----- ----- ----- ----- ----- ----------
    1 Stretch                  1     2                       2.73143
    2 Stretch                  1     3                       0.97551
    3 Bend                     2     1     3               110.59992


            XYZ format geometry
            -------------------
     3
 geometry
 O                    -0.09131377    -0.23882087     0.00000000
 H                    -0.09131377     2.49261217     0.00000000
 H                     0.82182391    -0.58204523     0.00000000

 ==============================================================================
                                internuclear distances
 ------------------------------------------------------------------------------
       center one      |      center two      | atomic units |       a.u.
 ------------------------------------------------------------------------------
    3 H                |   1 O                |     1.84345  |     1.84345
 ------------------------------------------------------------------------------
                         number of included internuclear distances:          1
 ==============================================================================





 Summary of "ao basis" -> "" (spherical)
 ------------------------------------------------------------------------------
       Tag                 Description            Shells   Functions and Types
 ---------------- ------------------------------  ------  ---------------------
 *                          cc-pVDZ                   on all atoms 


                      Basis "ao basis" -> "ao basis" (spherical)
                      -----
  O (Oxygen)
  ----------
            Exponent  Coefficients 
       -------------- ---------------------------------------------------------
  1 S  1.17200000E+04  0.000710
  1 S  1.75900000E+03  0.005470
  1 S  4.00800000E+02  0.027837
  1 S  1.13700000E+02  0.104800
  1 S  3.70300000E+01  0.283062
  1 S  1.32700000E+01  0.448719
  1 S  5.02500000E+00  0.270952
  1 S  1.01300000E+00  0.015458

  2 S  1.17200000E+04 -0.000160
  2 S  1.75900000E+03 -0.001263
  2 S  4.00800000E+02 -0.006267
  2 S  1.13700000E+02 -0.025716
  2 S  3.70300000E+01 -0.070924
  2 S  1.32700000E+01 -0.165411
  2 S  5.02500000E+00 -0.116955
  2 S  1.01300000E+00  0.557368

  3 S  3.02300000E-01  1.000000

  4 P  1.77000000E+01  0.043018
  4 P  3.85400000E+00  0.228913
  4 P  1.04600000E+00  0.508728

  5 P  2.75300000E-01  1.000000

  6 D  1.18500000E+00  1.000000

  H (Hydrogen)
  ------------
            Exponent  Coefficients 
       -------------- ---------------------------------------------------------
  1 S  1.30100000E+01  0.019685
  1 S  1.96200000E+00  0.137977
  1 S  4.44600000E-01  0.478148

  2 S  1.22000000E-01  1.000000

  3 P  7.27000000E-01  1.000000



 Summary of "ao basis" -> "ao basis" (spherical)
 ------------------------------------------------------------------------------
       Tag                 Description            Shells   Functions and Types
 ---------------- ------------------------------  ------  ---------------------
 O                          cc-pVDZ                  6       14   3s2p1d
 H                          cc-pVDZ                  3        5   2s1p


                                 NWChem SCF Module
                                 -----------------


                                        H2O



  ao basis        = "ao basis"
  functions       =    24
  atoms           =     3
  closed shells   =     5
  open shells     =     0
  charge          =   0.00
  wavefunction    = RHF 
  input vectors   = ./h2o.mos
  output vectors  = ./h2o.mos
  use symmetry    = F
  symmetry adapt  = F


 Summary of "ao basis" -> "ao basis" (spherical)
 ------------------------------------------------------------------------------
       Tag                 Description            Shells   Functions and Types
 ---------------- ------------------------------  ------  ---------------------
 O                          cc-pVDZ                  6       14   3s2p1d
 H                          cc-pVDZ                  3        5   2s1p



 Forming initial guess at       0.0s


 Loading old vectors from job with title :

H2O


 Starting SCF solution at       0.0s



 ----------------------------------------------
         Quadratically convergent ROHF

 Convergence threshold     :          1.000E-04
 Maximum no. of iterations :           30
 Final Fock-matrix accuracy:          1.000E-07
 ----------------------------------------------


 #quartets = 3.061D+03 #integrals = 2.047D+04 #direct =  0.0% #cached =100.0%


 Integral file          = ./H2O.aoints.0
 Record size in doubles =  65536        No. of integs per rec  =  43688
 Max. records in memory =      4        Max. records in file   = 232213
 No. of bits per label  =      8        No. of bits per value  =     64


              iter       energy          gnorm     gmax       time
             ----- ------------------- --------- --------- --------
                 1      -75.6975920114  7.98D-03  3.72D-03      0.1
                 2      -75.6976006148  4.21D-05  2.06D-05      0.1


       Final RHF  results 
       ------------------ 

         Total SCF energy =    -75.697600614788
      One-electron energy =   -116.674549000277
      Two-electron energy =     34.922383507654
 Nuclear repulsion energy =      6.054564877835

        Time for solution =      0.0s


             Final eigenvalues
             -----------------

              1      
    1  -20.6276
    2   -1.2859
    3   -0.6358
    4   -0.5160
    5   -0.3496
    6   -0.1041
    7    0.2007
    8    0.6261
    9    0.8077
   10    1.1737
   11    1.1810
   12    1.2150
   13    1.4413
   14    1.4416
   15    1.4628

                       ROHF Final Molecular Orbital Analysis
                       -------------------------------------

 Vector    2  Occ=2.000000D+00  E=-1.285863D+00
              MO Center=  7.1D-02, -3.0D-01, -3.3D-16, r^2= 4.7D-01
   Bfn.  Coefficient  Atom+Function         Bfn.  Coefficient  Atom+Function  
  ----- ------------  ---------------      ----- ------------  ---------------
     2      0.469776  1 O  s                  3      0.460982  1 O  s          
    20      0.208757  3 H  s          

 Vector    3  Occ=2.000000D+00  E=-6.357982D-01
              MO Center= -7.5D-03, -2.7D-01,  5.6D-16, r^2= 7.2D-01
   Bfn.  Coefficient  Atom+Function         Bfn.  Coefficient  Atom+Function  
  ----- ------------  ---------------      ----- ------------  ---------------
     4      0.506397  1 O  px                20      0.375851  3 H  s          
     3     -0.318974  1 O  s                  7      0.282516  1 O  px         
     5     -0.158269  1 O  py         

 Vector    4  Occ=2.000000D+00  E=-5.160229D-01
              MO Center= -7.2D-02, -2.5D-01, -3.5D-16, r^2= 5.7D-01
   Bfn.  Coefficient  Atom+Function         Bfn.  Coefficient  Atom+Function  
  ----- ------------  ---------------      ----- ------------  ---------------
     6      0.656965  1 O  pz                 9      0.480249  1 O  pz         

 Vector    5  Occ=2.000000D+00  E=-3.496463D-01
              MO Center= -7.5D-02,  9.9D-01,  4.9D-16, r^2= 2.6D+00
   Bfn.  Coefficient  Atom+Function         Bfn.  Coefficient  Atom+Function  
  ----- ------------  ---------------      ----- ------------  ---------------
    16      0.423687  2 H  s                  5      0.393998  1 O  py         
     8      0.367751  1 O  py                15      0.287377  2 H  s          
     4      0.150990  1 O  px         

 Vector    6  Occ=0.000000D+00  E=-1.040766D-01
              MO Center= -8.0D-02,  1.3D+00, -5.8D-17, r^2= 2.8D+00
   Bfn.  Coefficient  Atom+Function         Bfn.  Coefficient  Atom+Function  
  ----- ------------  ---------------      ----- ------------  ---------------
    16      0.471827  2 H  s                  5     -0.392992  1 O  py         
     8     -0.373675  1 O  py                15      0.350958  2 H  s          

 Vector    7  Occ=0.000000D+00  E= 2.006870D-01
              MO Center=  1.0D+00, -6.5D-01, -3.1D-17, r^2= 2.3D+00
   Bfn.  Coefficient  Atom+Function         Bfn.  Coefficient  Atom+Function  
  ----- ------------  ---------------      ----- ------------  ---------------
    21      1.412461  3 H  s                  3     -0.808994  1 O  s          
     7     -0.415447  1 O  px                 4     -0.221298  1 O  px         
     8      0.157390  1 O  py         

 Vector    8  Occ=0.000000D+00  E= 6.260716D-01
              MO Center= -8.0D-02,  2.4D+00, -4.9D-18, r^2= 1.9D+00
   Bfn.  Coefficient  Atom+Function         Bfn.  Coefficient  Atom+Function  
  ----- ------------  ---------------      ----- ------------  ---------------
    15      1.284600  2 H  s                 16     -1.217672  2 H  s          

 Vector    9  Occ=0.000000D+00  E= 8.076560D-01
              MO Center=  7.3D-01, -5.2D-01, -1.1D-17, r^2= 1.3D+00
   Bfn.  Coefficient  Atom+Function         Bfn.  Coefficient  Atom+Function  
  ----- ------------  ---------------      ----- ------------  ---------------
    20      1.274202  3 H  s                 21     -0.894489  3 H  s          
     4     -0.344687  1 O  px                22      0.268616  3 H  px         
     7     -0.210810  1 O  px                16      0.189068  2 H  s          
    15     -0.154832  2 H  s          

 Vector   10  Occ=0.000000D+00  E= 1.173663D+00
              MO Center= -4.7D-01, -6.3D-02,  9.3D-15, r^2= 1.3D+00
   Bfn.  Coefficient  Atom+Function         Bfn.  Coefficient  Atom+Function  
  ----- ------------  ---------------      ----- ------------  ---------------
     7      1.459620  1 O  px                20     -0.767333  3 H  s          
     4     -0.702257  1 O  px                 3      0.470732  1 O  s          
     8     -0.394974  1 O  py                22      0.331636  3 H  px         
    21     -0.308471  3 H  s                  2      0.219009  1 O  s          

 Vector   11  Occ=0.000000D+00  E= 1.180961D+00
              MO Center= -6.9D-02, -2.4D-01, -9.6D-15, r^2= 1.1D+00
   Bfn.  Coefficient  Atom+Function         Bfn.  Coefficient  Atom+Function  
  ----- ------------  ---------------      ----- ------------  ---------------
     9     -1.022476  1 O  pz                 6      0.949491  1 O  pz         

 Vector   12  Occ=0.000000D+00  E= 1.215024D+00
              MO Center= -7.9D-02,  1.1D-01,  1.4D-17, r^2= 1.9D+00
   Bfn.  Coefficient  Atom+Function         Bfn.  Coefficient  Atom+Function  
  ----- ------------  ---------------      ----- ------------  ---------------
     8     -0.942703  1 O  py                 5      0.903584  1 O  py         
    18      0.307119  2 H  py                 4      0.254064  1 O  px         
    16      0.245314  2 H  s                  7     -0.171723  1 O  px         
    15     -0.161380  2 H  s          

 Vector   13  Occ=0.000000D+00  E= 1.441252D+00
              MO Center= -8.9D-02,  2.5D+00, -6.2D-17, r^2= 5.2D-01
   Bfn.  Coefficient  Atom+Function         Bfn.  Coefficient  Atom+Function  
  ----- ------------  ---------------      ----- ------------  ---------------
    19      0.998056  2 H  pz         

 Vector   14  Occ=0.000000D+00  E= 1.441635D+00
              MO Center= -9.2D-02,  2.5D+00, -8.3D-17, r^2= 5.1D-01
   Bfn.  Coefficient  Atom+Function         Bfn.  Coefficient  Atom+Function  
  ----- ------------  ---------------      ----- ------------  ---------------
    17      0.998646  2 H  px         

 Vector   15  Occ=0.000000D+00  E= 1.462820D+00
              MO Center=  1.1D-01,  1.6D+00,  1.9D-16, r^2= 2.6D+00
   Bfn.  Coefficient  Atom+Function         Bfn.  Coefficient  Atom+Function  
  ----- ------------  ---------------      ----- ------------  ---------------
    18      0.845191  2 H  py                23      0.454109  3 H  py         
     5     -0.278254  1 O  py                 3     -0.221691  1 O  s          
     7     -0.218266  1 O  px                 8      0.200496  1 O  py         
    21      0.160639  3 H  s          


 center of mass
 --------------
 x =  -0.07599894 y =  -0.19876667 z =   0.00000000

 moments of inertia (a.u.)
 ------------------
          26.126543662562           1.567155780328           0.000000000000
           1.567155780328           2.833002082974           0.000000000000
           0.000000000000           0.000000000000          28.959545745536

  Mulliken analysis of the total density
  --------------------------------------

    Atom       Charge   Shell Charges
 -----------   ------   -------------------------------------------------------
    1 O    8     8.27   2.00  0.89  0.96  2.60  1.81  0.01
    2 H    1     0.93   0.34  0.59  0.00
    3 H    1     0.81   0.67  0.06  0.08

       Multipole analysis of the density wrt the origin
       ------------------------------------------------

     L   x y z        total         open         nuclear
     -   - - -        -----         ----         -------
     0   0 0 0     -0.000000      0.000000     10.000000

     1   1 0 0      0.659247      0.000000     -0.000000
     1   0 1 0      0.237003      0.000000     -0.000000
     1   0 0 1     -0.000000      0.000000      0.000000

     2   2 0 0     -4.596613      0.000000      2.679864
     2   1 1 0     -0.827196      0.000000     -1.897976
     2   1 0 1     -0.000000      0.000000      0.000000
     2   0 2 0     -2.126696      0.000000     25.026645
     2   0 1 1     -0.000000      0.000000      0.000000
     2   0 0 2     -5.981861      0.000000      0.000000


 Parallel integral file used       1 records with       0 large values

 ------------------------------------
     Number of active orbitals      8
     Number of active alpha electrons      5
     Number of active beta electrons       5
 ------------------------------------
                   NWChem Extensible Many-Electron Theory Module
                   ---------------------------------------------

              ======================================================
                   This portion of the program was automatically
                  generated by a Tensor Contraction Engine (TCE).
                  The development of this portion of the program
                 and TCE was supported by US Department of Energy,
                Office of Science, Office of Basic Energy Science.
                      TCE is a product of Battelle and PNNL.
              Please cite: S.Hirata, J.Phys.Chem.A 107, 9887 (2003).
              ======================================================

                                        H2O


            General Information
            -------------------
      Number of processors :     1
         Wavefunction type : Restricted Hartree-Fock
          No. of electrons :    10
           Alpha electrons :     5
            Beta electrons :     5
           No. of orbitals :    48
            Alpha orbitals :    24
             Beta orbitals :    24
        Alpha frozen cores :     0
         Beta frozen cores :     0
     Alpha frozen virtuals :    16
      Beta frozen virtuals :    16
         Spin multiplicity : singlet 
    Number of AO functions :    24
       Number of AO shells :    12
        Use of symmetry is : off
      Symmetry adaption is : off
         Schwarz screening : 0.10D-09

          Correlation Information
          -----------------------
          Calculation type : Coupled-cluster singles & doubles                           
   Perturbative correction : none                                                        
            Max iterations :      300
        Residual threshold : 0.10D-06
     T(0) DIIS level shift : 0.00D+00
     L(0) DIIS level shift : 0.00D+00
     T(1) DIIS level shift : 0.00D+00
     L(1) DIIS level shift : 0.00D+00
     T(R) DIIS level shift : 0.00D+00
     T(I) DIIS level shift : 0.00D+00
   CC-T/L Amplitude update :  5-th order DIIS
                I/O scheme : Global Array Library
        L-threshold :  0.10D-06
        EOM-threshold :  0.10D-06
 no EOMCCSD initial starts read in
 TCE RESTART OPTIONS
 READ_INT:   F
 WRITE_INT:  F
 READ_TA:    F
 WRITE_TA:   F
 READ_XA:    F
 WRITE_XA:   F
 READ_IN3:   F
 WRITE_IN3:  F
 SLICE:      F
 D4D5:       F
 quantumc:   T
 qrotation:  F
 pwtce:      F
 qducc:      F
 nacto:                         0
 nrotv:                         0
 nrot:                          0

            Memory Information
            ------------------
          Available GA space size is    1610612160 doubles
          Available MA space size is    1610610956 doubles

 Maximum block size supplied by input
 Maximum block size         1 doubles

 tile_dim =      1

 Block   Spin    Irrep     Size     Offset   Alpha
 -------------------------------------------------
   1    alpha     a      1 doubles       0       1
   2    alpha     a      1 doubles       1       2
   3    alpha     a      1 doubles       2       3
   4    alpha     a      1 doubles       3       4
   5    alpha     a      1 doubles       4       5
   6    beta      a      1 doubles       5       1
   7    beta      a      1 doubles       6       2
   8    beta      a      1 doubles       7       3
   9    beta      a      1 doubles       8       4
  10    beta      a      1 doubles       9       5
  11    alpha     a      1 doubles      10      11
  12    alpha     a      1 doubles      11      12
  13    alpha     a      1 doubles      12      13
  14    beta      a      1 doubles      13      11
  15    beta      a      1 doubles      14      12
  16    beta      a      1 doubles      15      13

 Global array virtual files algorithm will be used

 Parallel file system coherency ......... OK

 #quartets = 3.079D+03 #integrals = 2.113D+04 #direct =  0.0% #cached =100.0%


 Integral file          = ./H2O.aoints.0
 Record size in doubles =  65536        No. of integs per rec  =  43688
 Max. records in memory =      4        Max. records in file   = 232213
 No. of bits per label  =      8        No. of bits per value  =     64


 Fock matrix recomputed
 1-e file size   =               64
 1-e file name   = ./H2O.f1
 Cpu & wall time / sec            0.0            0.0
 4-electron integrals stored in orbital form

 v2    file size   =              666
 4-index algorithm nr.  13 is used
 imaxsize =       30
 imaxsize ichop =        0
 begin_one_electron_integrals
    1    1       -32.6595646331
    2    1         0.5908601521
    3    1        -0.1739056540
    5    1        -0.0181442538
    6    1        -0.0325771939
    7    1        -0.1454125239
    8    1         0.0191393025
    1    2         0.5908601521
    2    2        -7.5964590318
    3    2         0.2557785020
    5    2         0.1058688579
    6    2         0.1555967489
    7    2         0.8323197657
    8    2        -0.0188874979
    1    3        -0.1739056540
    2    3         0.2557785020
    3    3        -6.5963706945
    5    3        -0.1368477340
    6    3        -0.1243490172
    7    3         0.7646314281
    8    3         0.3004390055
    4    4        -6.9032264570
    1    5        -0.0181442538
    2    5         0.1058688579
    3    5        -0.1368477340
    5    5        -4.5816536837
    6    5         2.1951342403
    7    5        -0.0719595132
    8    5        -0.3019555757
    1    6        -0.0325771939
    2    6         0.1555967489
    3    6        -0.1243490172
    5    6         2.1951342403
    6    6        -4.2451192334
    7    6        -0.0374138564
    8    6         0.1837068443
    1    7        -0.1454125239
    2    7         0.8323197657
    3    7         0.7646314281
    5    7        -0.0719595132
    6    7        -0.0374138564
    7    7        -3.2028266987
    8    7        -0.1421987406
    1    8         0.0191393025
    2    8        -0.0188874979
    3    8         0.3004390055
    5    8        -0.3019555757
    6    8         0.1837068443
    7    8        -0.1421987406
    8    8        -1.6245879665
 end_one_electron_integrals
 begin_two_electron_integrals
    1    1    1    1        4.7413107001
    2    1    1    1       -0.4458897840
    2    1    2    1        0.0683283257
    3    1    1    1        0.1331890264
    3    1    2    1       -0.0168230969
    3    1    3    1        0.0279726066
    3    1    2    2        0.0146229183
    4    1    4    1        0.0322120069
    5    1    1    1        0.0155644972
    5    1    2    1       -0.0024930105
    5    1    3    1        0.0017425999
    5    1    5    1        0.0139010579
    5    1    2    2        0.0003807510
    5    1    3    2        0.0009026002
    5    1    3    3       -0.0002562692
    5    1    4    4        0.0003981095
    6    1    1    1        0.0252371351
    6    1    2    1       -0.0035806960
    6    1    3    1        0.0013356946
    6    1    5    1       -0.0132523112
    6    1    6    1        0.0132578026
    6    1    2    2        0.0016023877
    6    1    3    2        0.0000645248
    6    1    5    2       -0.0144115073
    6    1    3    3        0.0005751546
    6    1    5    3        0.0043261145
    6    1    4    4        0.0006229212
    6    1    5    5        0.0001907967
    7    1    1    1        0.1175147634
    7    1    2    1       -0.0196880262
    7    1    3    1       -0.0040064199
    7    1    5    1        0.0006251212
    7    1    6    1        0.0005456750
    7    1    7    1        0.0089795011
    7    1    2    2        0.0002822976
    7    1    3    2       -0.0114047697
    7    1    5    2       -0.0000669120
    7    1    6    2       -0.0006907835
    7    1    3    3        0.0061572423
    7    1    5    3        0.0004234584
    7    1    6    3        0.0006572625
    7    1    4    4        0.0025198277
    7    1    5    5        0.0012313649
    7    1    6    5       -0.0008708136
    7    1    6    6        0.0011419840
    8    1    1    1       -0.0146307065
    8    1    2    1        0.0015946345
    8    1    3    1       -0.0042533348
    8    1    5    1        0.0027114621
    8    1    6    1       -0.0030343418
    8    1    7    1        0.0010472190
    8    1    8    1        0.0012984349
    8    1    2    2       -0.0021374932
    8    1    3    2       -0.0037086359
    8    1    5    2        0.0029271396
    8    1    6    2       -0.0028864663
    8    1    7    2        0.0017142073
    8    1    3    3        0.0011545105
    8    1    5    3       -0.0007593748
    8    1    6    3        0.0009763492
    8    1    7    3        0.0001951489
    8    1    4    4       -0.0005051377
    8    1    5    5       -0.0001809622
    8    1    6    5        0.0003638152
    8    1    7    5       -0.0006206540
    8    1    6    6        0.0001744931
    8    1    7    6        0.0004947850
    8    1    7    7       -0.0010915367
    2    2    1    1        1.0772118631
    2    2    2    1       -0.0158134614
    2    2    2    2        0.7777443847
    3    2    1    1       -0.0910252526
    3    2    2    1        0.0080962983
    3    2    3    1        0.0233839313
    3    2    2    2        0.0227774717
    3    2    3    2        0.1482704017
    4    2    4    1        0.0326236790
    4    2    4    2        0.1395738411
    5    2    1    1       -0.0253782997
    5    2    2    1        0.0005265044
    5    2    3    1        0.0006021326
    5    2    5    1        0.0148162794
    5    2    2    2       -0.0149674096
    5    2    3    2        0.0038186439
    5    2    5    2        0.0710427478
    5    2    3    3       -0.0137401008
    5    2    4    4       -0.0131683619
    6    2    1    1       -0.0301606513
    6    2    2    1        0.0011542036
    6    2    3    1       -0.0001337513
    6    2    5    1       -0.0141497091
    6    2    6    1        0.0136810331
    6    2    2    2       -0.0123756031
    6    2    3    2        0.0036730547
    6    2    5    2       -0.0656022088
    6    2    6    2        0.0627557038
    6    2    3    3       -0.0123713586
    6    2    5    3        0.0147240963
    6    2    4    4       -0.0161640851
    6    2    5    5       -0.0118058385
    7    2    1    1       -0.1842201318
    7    2    2    1        0.0036570984
    7    2    3    1       -0.0108136127
    7    2    5    1       -0.0001651710
    7    2    6    1       -0.0007790143
    7    2    7    1        0.0026689459
    7    2    2    2       -0.1020843483
    7    2    3    2       -0.0239175775
    7    2    5    2        0.0029769730
    7    2    6    2        0.0016083006
    7    2    7    2        0.0354171251
    7    2    3    3       -0.0603369135
    7    2    5    3       -0.0020056567
    7    2    6    3        0.0000515742
    7    2    4    4       -0.0888700337
    7    2    5    5       -0.0442025833
    7    2    6    5        0.0395440313
    7    2    6    6       -0.0406098436
    8    2    1    1        0.0059347572
    8    2    2    1       -0.0008050905
    8    2    3    1       -0.0024530567
    8    2    5    1        0.0021307364
    8    2    6    1       -0.0021766040
    8    2    7    1        0.0012507534
    8    2    8    1        0.0008571751
    8    2    2    2       -0.0002325936
    8    2    3    2       -0.0067254327
    8    2    5    2        0.0074568425
    8    2    6    2       -0.0075870128
    8    2    7    2        0.0038213482
    8    2    8    2        0.0025232892
    8    2    3    3        0.0084858806
    8    2    5    3       -0.0009553471
    8    2    6    3        0.0019149464
    8    2    7    3        0.0014781366
    8    2    4    4        0.0019838121
    8    2    5    5       -0.0000360550
    8    2    6    5        0.0002989217
    8    2    7    5       -0.0018611332
    8    2    6    6        0.0011871150
    8    2    7    6        0.0015206684
    8    2    7    7        0.0019068665
    3    3    1    1        0.9551123970
    3    3    2    1       -0.0114258934
    3    3    3    1       -0.0058082461
    3    3    2    2        0.6973202415
    3    3    3    2       -0.0332584581
    3    3    3    3        0.7107934674
    4    3    4    1       -0.0095964574
    4    3    4    2       -0.0316660431
    4    3    4    3        0.0418751592
    5    3    1    1        0.0301427431
    5    3    2    1       -0.0006670565
    5    3    3    1       -0.0008052707
    5    3    5    1       -0.0044680936
    5    3    2    2        0.0161276403
    5    3    3    2       -0.0048467953
    5    3    5    2       -0.0175952285
    5    3    3    3        0.0174118283
    5    3    5    3        0.0229128452
    5    3    4    4        0.0161923597
    6    3    1    1        0.0214795851
    6    3    2    1       -0.0006125669
    6    3    3    1       -0.0009211476
    6    3    5    1        0.0040262960
    6    3    6    1       -0.0039263356
    6    3    2    2        0.0127766385
    6    3    3    2       -0.0029096584
    6    3    5    2        0.0135276414
    6    3    6    2       -0.0133812172
    6    3    3    3        0.0153742546
    6    3    5    3       -0.0191431822
    6    3    6    3        0.0192263182
    6    3    4    4        0.0133521879
    6    3    5    5        0.0032916152
    7    3    1    1       -0.1578453356
    7    3    2    1        0.0020210467
    7    3    3    1       -0.0017796541
    7    3    5    1       -0.0002664429
    7    3    6    1        0.0000272476
    7    3    7    1       -0.0000105092
    7    3    2    2       -0.0807718780
    7    3    3    2        0.0215041344
    7    3    5    2        0.0014983808
    7    3    6    2        0.0041098811
    7    3    7    2        0.0236107553
    7    3    3    3       -0.0734714486
    7    3    5    3       -0.0022011261
    7    3    6    3       -0.0013803543
    7    3    7    3        0.0365808347
    7    3    4    4       -0.0798828548
    7    3    5    5       -0.0437655493
    7    3    6    5        0.0326559330
    7    3    6    6       -0.0394990233
    8    3    1    1       -0.0689304922
    8    3    2    1        0.0018775347
    8    3    3    1        0.0014626135
    8    3    5    1       -0.0005105809
    8    3    6    1        0.0004677135
    8    3    7    1       -0.0012052327
    8    3    8    1       -0.0003751212
    8    3    2    2       -0.0276273840
    8    3    3    2        0.0144889826
    8    3    5    2        0.0002808374
    8    3    6    2        0.0021862636
    8    3    7    2        0.0057860174
    8    3    8    2       -0.0006500216
    8    3    3    3       -0.0289373589
    8    3    5    3        0.0004484292
    8    3    6    3       -0.0026507462
    8    3    7    3        0.0104156622
    8    3    8    3        0.0049737615
    8    3    4    4       -0.0307891222
    8    3    5    5       -0.0162030895
    8    3    6    5        0.0116021371
    8    3    7    5        0.0000684951
    8    3    6    6       -0.0157764558
    8    3    7    6        0.0008256720
    8    3    7    7        0.0003324249
    4    4    1    1        1.0662543166
    4    4    2    1       -0.0123181879
    4    4    3    1        0.0042179698
    4    4    2    2        0.7379168018
    4    4    3    2       -0.0395066932
    4    4    3    3        0.6619986434
    4    4    4    4        0.7835433321
    5    4    4    1       -0.0009819625
    5    4    4    2       -0.0031550917
    5    4    4    3        0.0018838928
    5    4    5    4        0.0197294388
    6    4    4    1       -0.0017248558
    6    4    4    2       -0.0058928507
    6    4    4    3        0.0022568285
    6    4    5    4       -0.0182520655
    6    4    6    4        0.0177451476
    7    4    4    1       -0.0065657597
    7    4    4    2       -0.0189745827
    7    4    4    3       -0.0038227587
    7    4    5    4        0.0007468295
    7    4    6    4        0.0006771436
    7    4    7    4        0.0098458950
    8    4    4    1        0.0006060862
    8    4    4    2        0.0001673810
    8    4    4    3       -0.0029653761
    8    4    5    4        0.0018974363
    8    4    6    4       -0.0021651557
    8    4    7    4        0.0006624052
    8    4    8    4        0.0008793492
    5    5    1    1        0.6179748377
    5    5    2    1       -0.0054224276
    5    5    3    1        0.0014374226
    5    5    5    1        0.0002738457
    5    5    2    2        0.4675848217
    5    5    3    2       -0.0251589963
    5    5    5    2        0.0031771789
    5    5    3    3        0.4309737512
    5    5    5    3        0.0019555564
    5    5    4    4        0.4523555758
    5    5    5    5        0.4218154818
    6    5    1    1       -0.3981508038
    6    5    2    1        0.0050547251
    6    5    3    1       -0.0021309908
    6    5    5    1        0.0001343736
    6    5    6    1       -0.0005842259
    6    5    2    2       -0.2591825804
    6    5    3    2        0.0127156972
    6    5    5    2        0.0145998727
    6    5    6    2        0.0032371443
    6    5    3    3       -0.2236798928
    6    5    5    3       -0.0144399070
    6    5    6    3       -0.0086998773
    6    5    4    4       -0.2431776672
    6    5    5    5       -0.0629983291
    6    5    6    5        0.2172938576
    7    5    1    1        0.0113568150
    7    5    2    1       -0.0000848690
    7    5    3    1        0.0001962673
    7    5    5    1       -0.0028287281
    7    5    6    1        0.0027742404
    7    5    7    1       -0.0001079727
    7    5    2    2        0.0094152065
    7    5    3    2        0.0010270900
    7    5    5    2       -0.0078659171
    7    5    6    2        0.0073456324
    7    5    7    2       -0.0010165683
    7    5    3    3        0.0077004267
    7    5    5    3       -0.0016215960
    7    5    6    3        0.0023918725
    7    5    7    3        0.0000843945
    7    5    4    4        0.0084769556
    7    5    5    5        0.0002056645
    7    5    6    5       -0.0103750687
    7    5    7    5        0.0065413033
    7    5    6    6       -0.0044509694
    8    5    1    1        0.0529512956
    8    5    2    1       -0.0009976020
    8    5    3    1        0.0006144461
    8    5    5    1       -0.0000934616
    8    5    6    1        0.0002037461
    8    5    7    1        0.0001062308
    8    5    8    1       -0.0001175329
    8    5    2    2        0.0280734656
    8    5    3    2       -0.0006265824
    8    5    5    2       -0.0026345586
    8    5    6    2        0.0029580395
    8    5    7    2       -0.0059555723
    8    5    8    2        0.0010908124
    8    5    3    3        0.0227380702
    8    5    5    3       -0.0016544021
    8    5    6    3       -0.0011978543
    8    5    7    3       -0.0037049061
    8    5    8    3       -0.0043253218
    8    5    4    4        0.0257749029
    8    5    5    5        0.0553933834
    8    5    6    5        0.0341218901
    8    5    7    5       -0.0055966976
    8    5    8    5        0.0553168402
    8    5    6    6        0.0685815236
    8    5    7    6       -0.0073434142
    8    5    7    7        0.0089905998
    6    6    1    1        0.5721030003
    6    6    2    1       -0.0051459917
    6    6    3    1        0.0015735941
    6    6    5    1        0.0021122612
    6    6    6    1       -0.0016014588
    6    6    2    2        0.4314773518
    6    6    3    2       -0.0214989588
    6    6    5    2        0.0089209374
    6    6    6    2       -0.0151346351
    6    6    3    3        0.3978275720
    6    6    5    3       -0.0026106527
    6    6    6    3        0.0040986912
    6    6    4    4        0.4176859110
    6    6    5    5        0.4165668947
    6    6    6    5       -0.0244771146
    6    6    6    6        0.4224392829
    7    6    1    1        0.0049699253
    7    6    2    1       -0.0000358696
    7    6    3    1        0.0005670866
    7    6    5    1        0.0028219271
    7    6    6    1       -0.0027133520
    7    6    7    1       -0.0001239215
    7    6    2    2        0.0066371548
    7    6    3    2        0.0037676791
    7    6    5    2        0.0077958281
    7    6    6    2       -0.0082785228
    7    6    7    2        0.0001850972
    7    6    3    3        0.0057346788
    7    6    5    3        0.0025775773
    7    6    6    3       -0.0008937708
    7    6    7    3        0.0015311233
    7    6    4    4        0.0057499328
    7    6    5    5       -0.0088469151
    7    6    6    5       -0.0159774712
    7    6    7    5       -0.0031336399
    7    6    6    6       -0.0115832552
    7    6    7    6        0.0065712399
    8    6    1    1       -0.0531914657
    8    6    2    1        0.0011481550
    8    6    3    1       -0.0003455194
    8    6    5    1       -0.0000086162
    8    6    6    1       -0.0000862147
    8    6    7    1       -0.0002631004
    8    6    8    1        0.0000497286
    8    6    2    2       -0.0259045352
    8    6    3    2        0.0016631077
    8    6    5    2        0.0051910135
    8    6    6    2       -0.0003127571
    8    6    7    2        0.0056041083
    8    6    8    2        0.0011808266
    8    6    3    3       -0.0211649323
    8    6    5    3       -0.0034558494
    8    6    6    3       -0.0041333912
    8    6    7    3        0.0045507622
    8    6    8    3       -0.0004999368
    8    6    4    4       -0.0242889005
    8    6    5    5        0.0420387239
    8    6    6    5        0.0745919766
    8    6    7    5       -0.0073482748
    8    6    8    5        0.0600987637
    8    6    6    6        0.0597077231
    8    6    7    6       -0.0087954325
    8    6    8    6        0.0771035301
    8    6    7    7       -0.0044068781
    7    7    1    1        0.4115390490
    7    7    2    1       -0.0017468278
    7    7    3    1        0.0070550402
    7    7    5    1        0.0000737661
    7    7    6    1        0.0004789797
    7    7    7    1       -0.0019203344
    7    7    2    2        0.3749226973
    7    7    3    2        0.0487615842
    7    7    5    2       -0.0043098902
    7    7    6    2       -0.0011405557
    7    7    7    2       -0.0137830595
    7    7    3    3        0.3595382641
    7    7    5    3        0.0052022821
    7    7    6    3        0.0059498300
    7    7    7    3        0.0137041718
    7    7    4    4        0.3465063254
    7    7    5    5        0.2579328362
    7    7    6    5       -0.0906332882
    7    7    7    5        0.0066870133
    7    7    6    6        0.2426415208
    7    7    7    6        0.0088643028
    7    7    7    7        0.3539960903
    8    7    1    1        0.0286830286
    8    7    2    1       -0.0003297850
    8    7    3    1        0.0008547779
    8    7    5    1       -0.0008129943
    8    7    6    1        0.0008643635
    8    7    7    1       -0.0002088604
    8    7    8    1       -0.0002962306
    8    7    2    2        0.0199826212
    8    7    3    2        0.0071108323
    8    7    5    2       -0.0060184792
    8    7    6    2        0.0041876378
    8    7    7    2       -0.0021874439
    8    7    8    2        0.0000562160
    8    7    3    3        0.0190792893
    8    7    5    3        0.0019978936
    8    7    6    3        0.0008890321
    8    7    7    3        0.0019140562
    8    7    8    3        0.0002319999
    8    7    4    4        0.0152930325
    8    7    5    5       -0.0067636319
    8    7    6    5       -0.0213568471
    8    7    7    5        0.0013222404
    8    7    8    5       -0.0074573818
    8    7    6    6       -0.0101547557
    8    7    7    6        0.0021634715
    8    7    8    6       -0.0128853322
    8    7    7    7        0.0168313187
    8    7    8    7        0.0054937788
    8    8    1    1        0.2150921039
    8    8    2    1       -0.0006239115
    8    8    3    1       -0.0005050646
    8    8    5    1        0.0013221890
    8    8    6    1       -0.0012550530
    8    8    7    1        0.0004107905
    8    8    8    1        0.0003464060
    8    8    2    2        0.2000215459
    8    8    3    2       -0.0095126922
    8    8    5    2        0.0186546444
    8    8    6    2       -0.0099751352
    8    8    7    2       -0.0043661285
    8    8    8    2        0.0014048305
    8    8    3    3        0.1999042125
    8    8    5    3       -0.0133790308
    8    8    6    3       -0.0034799181
    8    8    7    3       -0.0094981611
    8    8    8    3       -0.0054016847
    8    8    4    4        0.2002360923
    8    8    5    5        0.3425716424
    8    8    6    5        0.1511859349
    8    8    7    5       -0.0114473694
    8    8    8    5        0.1038181283
    8    8    6    6        0.3782921164
    8    8    7    6       -0.0244038778
    8    8    8    6        0.1316440311
    8    8    7    7        0.1638713452
    8    8    8    7       -0.0290648599
    8    8    8    8        0.5122562145
 end_two_electron_integrals
 enrep_tce =    6.0545648778345615     
  EHF(A)             =       -75.69760062
  EHF(total)         =       -75.69760061
  Shift (HFtot-HFA)  =         0.00000000
 Cpu & wall time / sec            0.1            0.1
 T1-number-of-tasks                   15

 t1 file size   =               15
 t1 file name   = ./H2O.t1
 t1 file handle =       -998
 T2-number-of-boxes                  315

 t2 file size   =              315
 t2 file name   = ./H2O.t2
 t2 file handle =       -996
CCSD iterations
 ---------------------------------------------------------
 Iter          Residuum       Correlation     Cpu    Wall 
 ---------------------------------------------------------
NEW TASK SCHEDULING
CCSD_T1_NTS --- OK
CCSD_T2_NTS --- OK
    1   0.1361727300416  -0.1092932512330     1.8     2.5
    2   0.0639493403979  -0.1657197415408     1.9     2.6
    3   0.0363792923770  -0.1732103440774     1.8     2.6
    4   0.0230270464175  -0.1864729311362     1.8     2.5
    5   0.0255431187837  -0.1807321904713     1.8     2.5
 MICROCYCLE DIIS UPDATE:                    5                    5
    6   0.0034416316004  -0.1856389101481     1.9     2.5
    7   0.0022388324280  -0.1859596699618     2.0     2.6
    8   0.0016169605330  -0.1860068653572     1.9     2.6
    9   0.0011995365469  -0.1860564556000     1.9     2.6
   10   0.0008989236881  -0.1860670855399     1.7     2.5
 MICROCYCLE DIIS UPDATE:                   10                    5
   11   0.0001044690828  -0.1861331696845     1.9     2.5
   12   0.0000630952013  -0.1861477934901     1.9     2.5
   13   0.0000332169848  -0.1861317575165     1.9     2.5
   14   0.0000388688990  -0.1861424103674     1.8     2.5
   15   0.0000357048815  -0.1861303616576     1.9     2.5
 MICROCYCLE DIIS UPDATE:                   15                    5
   16   0.0000018782216  -0.1861357560174     1.8     2.5
   17   0.0000014472184  -0.1861358387379     1.8     2.5
   18   0.0000009607778  -0.1861359742786     1.8     2.5
   19   0.0000008158376  -0.1861358961914     1.8     2.5
   20   0.0000005863719  -0.1861360144485     1.9     2.5
 MICROCYCLE DIIS UPDATE:                   20                    5
   21   0.0000001146348  -0.1861359893399     1.7     2.5
   22   0.0000000413820  -0.1861359995397     1.7     2.5
 -----------------------------------------------------------------
 Iterations converged
 CCSD correlation energy / hartree =        -0.186135999539725
 CCSD total energy / hartree       =       -75.883736614328157

 Singles contributions
     6a   (alpha) ---     3a   (alpha)        0.0391632455
     6a   (alpha) ---     5a   (alpha)        0.0793639487
     7a   (alpha) ---     5a   (alpha)       -0.0258583513
     8a   (alpha) ---     5a   (alpha)        0.0797258799

 Doubles contributions
     6a   (alpha)     6a   (beta ) ---     5a   (alpha)     5a   (beta )       -0.8221212881
     6a   (alpha)     8a   (beta ) ---     5a   (alpha)     5a   (beta )       -0.0604637616
     7a   (alpha)     7a   (beta ) ---     3a   (alpha)     3a   (beta )       -0.0262223931
     8a   (alpha)     6a   (beta ) ---     5a   (alpha)     5a   (beta )       -0.0604637616
 Ground state specification:
 exp(T)|Ref>~(1+T)|Ref>
 ------- a(p)+/a(q) strings ----------

 singles norm

 doubles norm

 Reference string
  0.77246373345229513      :(1a)+ (2a)+ (3a)+ (4a)+ (5a)+ (1b)+ (2b)+ (3b)+ (4b)+ (5b)+ |0>

 Singles strings

 Doubles strings
 -0.63505887955444063      :(6a)+ (6b)+ (5b)  (5a)  (1a)+ (2a)+ (3a)+ (4a)+ (5a)+ (1b)+ (2b)+ (3b)+ (4b)+ (5b)+ |0>
 -------------------------------------

 Parallel integral file used       1 records with       0 large values


 Task  times  cpu:       41.0s     wall:       56.6s


                                NWChem Input Module
                                -------------------


 Summary of allocated global arrays
-----------------------------------
  No active global arrays


MA_summarize_allocated_blocks: starting scan ...
MA_summarize_allocated_blocks: scan completed: 0 heap blocks, 0 stack blocks
MA usage statistics:

	allocation statistics:
					      heap	     stack
					      ----	     -----
	current number of blocks	         0	         0
	maximum number of blocks	        17	        42
	current total bytes		         0	         0
	maximum total bytes		   2110096	  16007608
	maximum total K-bytes		      2111	     16008
	maximum total M-bytes		         3	        17


                                     CITATION
                                     --------
                Please cite the following reference when publishing
                           results obtained with NWChem:

          E. Apra, E. J. Bylaska, W. A. de Jong, N. Govind, K. Kowalski,
       T. P. Straatsma, M. Valiev, H. J. J. van Dam, Y. Alexeev, J. Anchell,
       V. Anisimov, F. W. Aquino, R. Atta-Fynn, J. Autschbach, N. P. Bauman,
     J. C. Becca, D. E. Bernholdt, K. Bhaskaran-Nair, S. Bogatko, P. Borowski,
         J. Boschen, J. Brabec, A. Bruner, E. Cauet, Y. Chen, G. N. Chuev,
      C. J. Cramer, J. Daily, M. J. O. Deegan, T. H. Dunning Jr., M. Dupuis,
   K. G. Dyall, G. I. Fann, S. A. Fischer, A. Fonari, H. Fruchtl, L. Gagliardi,
      J. Garza, N. Gawande, S. Ghosh, K. Glaesemann, A. W. Gotz, J. Hammond,
       V. Helms, E. D. Hermes, K. Hirao, S. Hirata, M. Jacquelin, L. Jensen,
   B. G. Johnson, H. Jonsson, R. A. Kendall, M. Klemm, R. Kobayashi, V. Konkov,
      S. Krishnamoorthy, M. Krishnan, Z. Lin, R. D. Lins, R. J. Littlefield,
      A. J. Logsdail, K. Lopata, W. Ma, A. V. Marenich, J. Martin del Campo,
   D. Mejia-Rodriguez, J. E. Moore, J. M. Mullin, T. Nakajima, D. R. Nascimento,
    J. A. Nichols, P. J. Nichols, J. Nieplocha, A. Otero-de-la-Roza, B. Palmer,
    A. Panyala, T. Pirojsirikul, B. Peng, R. Peverati, J. Pittner, L. Pollack,
   R. M. Richard, P. Sadayappan, G. C. Schatz, W. A. Shelton, D. W. Silverstein,
   D. M. A. Smith, T. A. Soares, D. Song, M. Swart, H. L. Taylor, G. S. Thomas,
            V. Tipparaju, D. G. Truhlar, K. Tsemekhman, T. Van Voorhis,
      A. Vazquez-Mayagoitia, P. Verma, O. Villa, A. Vishnu, K. D. Vogiatzis,
        D. Wang, J. H. Weare, M. J. Williamson, T. L. Windus, K. Wolinski,
        A. T. Wong, Q. Wu, C. Yang, Q. Yu, M. Zacharias, Z. Zhang, Y. Zhao,
                                and R. J. Harrison
                        "NWChem: Past, present, and future
                         J. Chem. Phys. 152, 184102 (2020)
                               doi:10.1063/5.0004997

                                      AUTHORS
                                      -------
  E. Apra, E. J. Bylaska, N. Govind, K. Kowalski, M. Valiev, D. Mejia-Rodriguez,
       A. Kunitsa, N. P. Bauman, A. Panyala, W. A. de Jong, T. P. Straatsma,
        H. J. J. van Dam, D. Wang, T. L. Windus, J. Hammond, J. Autschbach,
    K. Bhaskaran-Nair, J. Brabec, K. Lopata, S. A. Fischer, S. Krishnamoorthy,
     M. Jacquelin, W. Ma, M. Klemm, O. Villa, Y. Chen, V. Anisimov, F. Aquino,
    S. Hirata, M. T. Hackler, Eric Hermes, L. Jensen, J. E. Moore, J. C. Becca,
      V. Konjkov, T. Risthaus, M. Malagoli, A. Marenich, A. Otero-de-la-Roza,
        J. Mullin, P. Nichols, R. Peverati, J. Pittner, Y. Zhao, P.-D. Fan,
        A. Fonari, M. J. Williamson, R. J. Harrison, J. R. Rehr, M. Dupuis,
     D. Silverstein, D. M. A. Smith, J. Nieplocha, V. Tipparaju, M. Krishnan,
     B. E. Van Kuiken, A. Vazquez-Mayagoitia, M. Swart, Q. Wu, T. Van Voorhis,
     A. A. Auer, M. Nooijen, L. D. Crosby, E. Brown, G. Cisneros, G. I. Fann,
   H. Fruchtl, J. Garza, K. Hirao, R. A. Kendall, J. A. Nichols, K. Tsemekhman,
    K. Wolinski, J. Anchell, D. E. Bernholdt, P. Borowski, T. Clark, D. Clerc,
   H. Dachsel, M. J. O. Deegan, K. Dyall, D. Elwood, E. Glendening, M. Gutowski,
   A. C. Hess, J. Jaffe, B. G. Johnson, J. Ju, R. Kobayashi, R. Kutteh, Z. Lin,
   R. Littlefield, X. Long, B. Meng, T. Nakajima, S. Niu, L. Pollack, M. Rosing,
   K. Glaesemann, G. Sandrone, M. Stave, H. Taylor, G. Thomas, J. H. van Lenthe,
                               A. T. Wong, Z. Zhang.

 Total times  cpu:       41.0s     wall:       56.6s
