 argument  1 = input.nw
  NWChem w/ OpenMP: maximum threads =    1



============================== echo of input deck ==============================
 echo
 start H2O
 title "H2O"

 memory total 24 gb

 geometry units bohr
 symmetry c1
        O  0.00000000  0.00000000  0.00000000
        H  0.00000000  2.0830985  0.00000000
        H  1.72558000 -0.64860000  0.00000000
 end

 basis spherical
   * library cc-pVTZ
 end

 mcscf
   active  8
   actelec 10
   multiplicity 1
   maxiter 40
   vectors input h2o.mos
   vectors output h2o.mos
 end

 task mcscf

 scf
   vectors input h2o.mos
   vectors output h2o-trash.mos
   noscf
 end

 tce
   2eorb
   2emet 13
   ccsd
 end

 set tce:print_integrals T
 set tce:qorb 8
 set tce:qela 5
 set tce:qelb 5

# set tce:qducc T
# set tce:nactv 3
# set tce:nonhf T
# set tce:ducc_model 3

 set tce:printtol 0.02

 task tce
================================================================================


                                         
                                         


             Northwest Computational Chemistry Package (NWChem) 7.0.1
             --------------------------------------------------------


                    Environmental Molecular Sciences Laboratory
                       Pacific Northwest National Laboratory
                                Richland, WA 99352

                              Copyright (c) 1994-2020
                       Pacific Northwest National Laboratory
                            Battelle Memorial Institute

             NWChem is an open-source computational chemistry package
                        distributed under the terms of the
                      Educational Community License (ECL) 2.0
             A copy of the license is included with this distribution
                              in the LICENSE.TXT file

                                  ACKNOWLEDGMENT
                                  --------------

            This software and its documentation were developed at the
            EMSL at Pacific Northwest National Laboratory, a multiprogram
            national laboratory, operated for the U.S. Department of Energy
            by Battelle under Contract Number DE-AC05-76RL01830. Support
            for this work was provided by the Department of Energy Office
            of Biological and Environmental Research, Office of Basic
            Energy Sciences, and the Office of Advanced Scientific Computing.


           Job information
           ---------------

    hostname        = WE46210
    program         = /home/baum612/code/nwchem/bin/LINUX64/nwchem
    date            = Tue Feb 20 14:09:16 2024

    compiled        = Fri_Feb_16_11:09:52_2024
    source          = /home/baum612/code/nwchem
    nwchem branch   = 7.0.0
    nwchem revision = nwchem_on_git-4191-g39d87d64de
    ga revision     = 5.8.1
    use scalapack   = F
    input           = input.nw
    prefix          = H2O.
    data base       = ./H2O.db
    status          = startup
    nproc           =        1
    time left       =     -1s



           Memory information
           ------------------

    heap     =  805306366 doubles =   6144.0 Mbytes
    stack    =  805306363 doubles =   6144.0 Mbytes
    global   = 1610612736 doubles =  12288.0 Mbytes (distinct from heap & stack)
    total    = 3221225465 doubles =  24576.0 Mbytes
    verify   = yes
    hardfail = no 


           Directory information
           ---------------------

  0 permanent = .
  0 scratch   = .




                                NWChem Input Module
                                -------------------


                                        H2O
                                        ---
 Turning off AUTOSYM since
 SYMMETRY directive was detected!


          ------
          auto-z
          ------
  no constraints, skipping    0.0000000000000000     
  no constraints, skipping    0.0000000000000000     


                             Geometry "geometry" -> ""
                             -------------------------

 Output coordinates in a.u. (scale by  1.000000000 to convert to a.u.)

  No.       Tag          Charge          X              Y              Z
 ---- ---------------- ---------- -------------- -------------- --------------
    1 O                    8.0000    -0.17255800    -0.14344985     0.00000000
    2 H                    1.0000    -0.17255800     1.93964865     0.00000000
    3 H                    1.0000     1.55302200    -0.79204985     0.00000000

      Atomic Mass 
      ----------- 

      O                 15.994910
      H                  1.007825


 Effective nuclear repulsion energy (a.u.)       8.4896169617

            Nuclear Dipole moment (a.u.) 
            ----------------------------
        X                 Y               Z
 ---------------- ---------------- ----------------
    -0.0000000000     0.0000000000     0.0000000000



                                Z-matrix (autoz)
                                -------- 

 Units are Angstrom for bonds and degrees for angles

      Type          Name      I     J     K     L     M      Value
      ----------- --------  ----- ----- ----- ----- ----- ----------
    1 Stretch                  1     2                       1.10233
    2 Stretch                  1     3                       0.97551
    3 Bend                     2     1     3               110.59992


            XYZ format geometry
            -------------------
     3
 geometry
 O                    -0.09131377    -0.07591040     0.00000000
 H                    -0.09131377     1.02641794     0.00000000
 H                     0.82182391    -0.41913476     0.00000000

 ==============================================================================
                                internuclear distances
 ------------------------------------------------------------------------------
       center one      |      center two      | atomic units |       a.u.
 ------------------------------------------------------------------------------
    3 H                |   1 O                |     1.84345  |     1.84345
 ------------------------------------------------------------------------------
                         number of included internuclear distances:          1
 ==============================================================================





 Summary of "ao basis" -> "" (spherical)
 ------------------------------------------------------------------------------
       Tag                 Description            Shells   Functions and Types
 ---------------- ------------------------------  ------  ---------------------
 *                          cc-pVTZ                   on all atoms 


                      Basis "ao basis" -> "ao basis" (spherical)
                      -----
  O (Oxygen)
  ----------
            Exponent  Coefficients 
       -------------- ---------------------------------------------------------
  1 S  1.53300000E+04  0.000508
  1 S  2.29900000E+03  0.003929
  1 S  5.22400000E+02  0.020243
  1 S  1.47300000E+02  0.079181
  1 S  4.75500000E+01  0.230687
  1 S  1.67600000E+01  0.433118
  1 S  6.20700000E+00  0.350260
  1 S  6.88200000E-01 -0.008154

  2 S  1.53300000E+04 -0.000115
  2 S  2.29900000E+03 -0.000895
  2 S  5.22400000E+02 -0.004636
  2 S  1.47300000E+02 -0.018724
  2 S  4.75500000E+01 -0.058463
  2 S  1.67600000E+01 -0.136463
  2 S  6.20700000E+00 -0.175740
  2 S  6.88200000E-01  0.603418

  3 S  1.75200000E+00  1.000000

  4 S  2.38400000E-01  1.000000

  5 P  3.44600000E+01  0.015928
  5 P  7.74900000E+00  0.099740
  5 P  2.28000000E+00  0.310492

  6 P  7.15600000E-01  1.000000

  7 P  2.14000000E-01  1.000000

  8 D  2.31400000E+00  1.000000

  9 D  6.45000000E-01  1.000000

 10 F  1.42800000E+00  1.000000

  H (Hydrogen)
  ------------
            Exponent  Coefficients 
       -------------- ---------------------------------------------------------
  1 S  3.38700000E+01  0.006068
  1 S  5.09500000E+00  0.045308
  1 S  1.15900000E+00  0.202822

  2 S  3.25800000E-01  1.000000

  3 S  1.02700000E-01  1.000000

  4 P  1.40700000E+00  1.000000

  5 P  3.88000000E-01  1.000000

  6 D  1.05700000E+00  1.000000



 Summary of "ao basis" -> "ao basis" (spherical)
 ------------------------------------------------------------------------------
       Tag                 Description            Shells   Functions and Types
 ---------------- ------------------------------  ------  ---------------------
 O                          cc-pVTZ                 10       30   4s3p2d1f
 H                          cc-pVTZ                  6       14   3s2p1d



                            NWChem Direct MCSCF Module
                            --------------------------


                                        H2O


     -----------------------------------
       Basis functions:             58
       Inactive shells:              0
       Active shells:                8
       Active electrons:            10
       Symmetry:                    a       
       Multiplicity:                 1
       Orbital rotations:          400
     -----------------------------------

     -----------------------------------
       E2 extrapolation:             F
       Conjugacy:                    T
       Micro CI relax:               T
       Canonical orbitals:           T
       Maximum iterations:          40
       Converge threshold:    1.00E-04
       Conjugacy resets:            20
       Initial levelshift:        0.10
     -----------------------------------

 Loading old vectors from job with title :

H2O


   input molecular orbitals = ./h2o.mos
  output molecular orbtials = ./h2o.mos

       No. of determinants:          3136


  Starting Orbital Energies
   -20.553468    -1.317663    -0.706649    -0.571515    -0.520217    -0.031232
    -0.025740    -0.015889     0.305275     0.335400     0.611452     0.681033
     0.815809     0.830814     0.972225     1.129644     1.180964     1.277873
     1.403554     1.955047     2.052248     2.096887     2.147234     2.270591
     2.597968     2.837456     3.349880     3.472605     3.476451     3.525117
     3.556190     3.758395     3.875676     3.906980     3.938382     4.003351
     4.079188     4.210992     4.293687     4.323624     4.545123     4.659520
     4.961950     5.173534     5.531632     5.874939     6.180056     6.512049
     6.807801     6.890624     6.982936     7.030917     7.098179     7.150448
     7.421851     7.579862     7.897530    11.768586

  Orbital Symmetry Irreps
a    a    a    a    a    a    a    a    a    a    a    a    a    a    a   
a    a    a    a    a    a    a    a    a    a    a    a    a    a    a   
a    a    a    a    a    a    a    a    a    a    a    a    a    a    a   
a    a    a    a    a    a    a    a    a    a    a    a    a   

 Integral file          = ./H2O.aoints.0
 Record size in doubles =  65536        No. of integs per rec  =  43688
 Max. records in memory =     49        Max. records in file   = 252444
 No. of bits per label  =      8        No. of bits per value  =     64


 #quartets = 3.213D+04 #integrals = 6.608D+05 #direct =  0.0% #cached =100.0%




          %%%%% MacroIteration   1 %%%%%


          Number of sigma calls:       15
                       o<<<<< (aa):             0.00
                       o<<<<< (bb):             0.00
                       o<<<<< (ab):             0.13
                       o<<<<< (total)           0.14
                       o<<<<< (aa) ff           0.00
                       o<<<<< (aa) gop          0.00
                       o<<<<< (aa) dot          0.00
                       o<<<<< (ab) str          0.00
                       o<<<<< (ab) gath         0.00
                       o<<<<< (ab) dotab        0.00
                       o<<<<< (ab) scat         0.00
                       o<<<<< (ab) sync         0.00
                       o<<<<< Density           0.02
                       o<<<<< Density one       0.01
                       o<<<<< Density two       0.00
                       o<<<<< Density ab        0.01
                       o<<<<< Spin adapt        0.65
                       o<<<<< Symm adapt        0.00

                       o<<<<< (ab) max sync:      0.00

           >>>| Valence CI:            -84.623605667372
           >>>| MCSCF energy:          -76.133988705631
           >>>| Gradient norm:          0.837945641D-02

                              ----- Line search ------

        step       energy         lsg     num-lsg   num-lsh   lsrat    time
      ------- ---------------- --------- --------- --------- ------- --------
       0.0000     -76.13398871 -7.61D-06  0.00D+00  0.00D+00 0.0D+00      2.2

          Number of sigma calls:       14
                       o<<<<< (aa):             0.01
                       o<<<<< (bb):             0.00
                       o<<<<< (ab):             0.16
                       o<<<<< (total)           0.17
                       o<<<<< (aa) ff           0.00
                       o<<<<< (aa) gop          0.00
                       o<<<<< (aa) dot          0.00
                       o<<<<< (ab) str          0.00
                       o<<<<< (ab) gath         0.00
                       o<<<<< (ab) dotab        0.00
                       o<<<<< (ab) scat         0.00
                       o<<<<< (ab) sync         0.00
                       o<<<<< Density           0.01
                       o<<<<< Density one       0.00
                       o<<<<< Density two       0.01
                       o<<<<< Density ab        0.00
                       o<<<<< Spin adapt        0.78
                       o<<<<< Symm adapt        0.00

                       o<<<<< (ab) max sync:      0.00
       1.0000     -76.13399267 -3.12D-07 -3.12D-07  7.29D-06 4.1D-02      3.4
     --- Orbitals canonicalized ---



          %%%%% MacroIteration   2 %%%%%


          Number of sigma calls:       12
                       o<<<<< (aa):             0.00
                       o<<<<< (bb):             0.01
                       o<<<<< (ab):             0.15
                       o<<<<< (total)           0.16
                       o<<<<< (aa) ff           0.00
                       o<<<<< (aa) gop          0.00
                       o<<<<< (aa) dot          0.00
                       o<<<<< (ab) str          0.00
                       o<<<<< (ab) gath         0.00
                       o<<<<< (ab) dotab        0.00
                       o<<<<< (ab) scat         0.00
                       o<<<<< (ab) sync         0.00
                       o<<<<< Density           0.03
                       o<<<<< Density one       0.01
                       o<<<<< Density two       0.00
                       o<<<<< Density ab        0.02
                       o<<<<< Spin adapt        0.52
                       o<<<<< Symm adapt        0.00

                       o<<<<< (ab) max sync:      0.00

           >>>| Valence CI:            -84.623609626803
           >>>| MCSCF energy:          -76.133992665063
           >>>| Gradient norm:          0.733371159D-03
     --- Warning:    2 Hessian diagonals < 0.05 ---
     --- Conjugacy reset ---

                              ----- Line search ------

        step       energy         lsg     num-lsg   num-lsh   lsrat    time
      ------- ---------------- --------- --------- --------- ------- --------
       0.0000     -76.13399267 -9.49D-08  0.00D+00  0.00D+00 0.0D+00      4.5

          Number of sigma calls:       10
                       o<<<<< (aa):             0.00
                       o<<<<< (bb):             0.01
                       o<<<<< (ab):             0.11
                       o<<<<< (total)           0.12
                       o<<<<< (aa) ff           0.00
                       o<<<<< (aa) gop          0.00
                       o<<<<< (aa) dot          0.00
                       o<<<<< (ab) str          0.00
                       o<<<<< (ab) gath         0.00
                       o<<<<< (ab) dotab        0.00
                       o<<<<< (ab) scat         0.00
                       o<<<<< (ab) sync         0.00
                       o<<<<< Density           0.01
                       o<<<<< Density one       0.00
                       o<<<<< Density two       0.00
                       o<<<<< Density ab        0.01
                       o<<<<< Spin adapt        0.47
                       o<<<<< Symm adapt        0.00

                       o<<<<< (ab) max sync:      0.00
       1.0000     -76.13399273 -3.18D-08 -3.18D-08  6.31D-08 3.4D-01      5.3

          Number of sigma calls:        9
                       o<<<<< (aa):             0.01
                       o<<<<< (bb):             0.01
                       o<<<<< (ab):             0.06
                       o<<<<< (total)           0.08
                       o<<<<< (aa) ff           0.00
                       o<<<<< (aa) gop          0.00
                       o<<<<< (aa) dot          0.00
                       o<<<<< (ab) str          0.00
                       o<<<<< (ab) gath         0.00
                       o<<<<< (ab) dotab        0.00
                       o<<<<< (ab) scat         0.00
                       o<<<<< (ab) sync         0.00
                       o<<<<< Density           0.02
                       o<<<<< Density one       0.00
                       o<<<<< Density two       0.01
                       o<<<<< Density ab        0.01
                       o<<<<< Spin adapt        0.37
                       o<<<<< Symm adapt        0.00

                       o<<<<< (ab) max sync:      0.00
       1.5038     -76.13399274  2.60D-11  2.54D-11  6.31D-08 2.7D-04      6.0



          %%%%% MacroIteration   3 %%%%%


          Number of sigma calls:        1
                       o<<<<< (aa):             0.00
                       o<<<<< (bb):             0.00
                       o<<<<< (ab):             0.01
                       o<<<<< (total)           0.01
                       o<<<<< (aa) ff           0.00
                       o<<<<< (aa) gop          0.00
                       o<<<<< (aa) dot          0.00
                       o<<<<< (ab) str          0.00
                       o<<<<< (ab) gath         0.00
                       o<<<<< (ab) dotab        0.00
                       o<<<<< (ab) scat         0.00
                       o<<<<< (ab) sync         0.00
                       o<<<<< Density           0.02
                       o<<<<< Density one       0.00
                       o<<<<< Density two       0.01
                       o<<<<< Density ab        0.01
                       o<<<<< Spin adapt        0.00
                       o<<<<< Symm adapt        0.00

                       o<<<<< (ab) max sync:      0.00

           >>>| Valence CI:            -84.623609698134
           >>>| MCSCF energy:          -76.133992736393
           >>>| Gradient norm:          0.100663051D-03
     --- Warning:    2 Hessian diagonals < 0.05 ---

                              ----- Line search ------

        step       energy         lsg     num-lsg   num-lsh   lsrat    time
      ------- ---------------- --------- --------- --------- ------- --------
       0.0000     -76.13399274 -2.17D-09  0.00D+00  0.00D+00 0.0D+00      6.3

          Number of sigma calls:        8
                       o<<<<< (aa):             0.00
                       o<<<<< (bb):             0.01
                       o<<<<< (ab):             0.07
                       o<<<<< (total)           0.08
                       o<<<<< (aa) ff           0.00
                       o<<<<< (aa) gop          0.00
                       o<<<<< (aa) dot          0.00
                       o<<<<< (ab) str          0.00
                       o<<<<< (ab) gath         0.00
                       o<<<<< (ab) dotab        0.00
                       o<<<<< (ab) scat         0.00
                       o<<<<< (ab) sync         0.00
                       o<<<<< Density           0.01
                       o<<<<< Density one       0.01
                       o<<<<< Density two       0.00
                       o<<<<< Density ab        0.00
                       o<<<<< Spin adapt        0.46
                       o<<<<< Symm adapt        0.00

                       o<<<<< (ab) max sync:      0.00
       1.0000     -76.13399274 -4.58D-10 -4.58D-10  1.72D-09 2.1D-01      7.0

          Number of sigma calls:        7
                       o<<<<< (aa):             0.00
                       o<<<<< (bb):             0.00
                       o<<<<< (ab):             0.05
                       o<<<<< (total)           0.06
                       o<<<<< (aa) ff           0.00
                       o<<<<< (aa) gop          0.00
                       o<<<<< (aa) dot          0.00
                       o<<<<< (ab) str          0.00
                       o<<<<< (ab) gath         0.00
                       o<<<<< (ab) dotab        0.00
                       o<<<<< (ab) scat         0.00
                       o<<<<< (ab) sync         0.00
                       o<<<<< Density           0.00
                       o<<<<< Density one       0.00
                       o<<<<< Density two       0.00
                       o<<<<< Density ab        0.00
                       o<<<<< Spin adapt        0.41
                       o<<<<< Symm adapt        0.00

                       o<<<<< (ab) max sync:      0.00
       1.2665     -76.13399274  2.34D-14  1.05D-12  1.72D-09 1.1D-05      7.7



          %%%%% MacroIteration   4 %%%%%


          Number of sigma calls:        1
                       o<<<<< (aa):             0.00
                       o<<<<< (bb):             0.00
                       o<<<<< (ab):             0.01
                       o<<<<< (total)           0.01
                       o<<<<< (aa) ff           0.00
                       o<<<<< (aa) gop          0.00
                       o<<<<< (aa) dot          0.00
                       o<<<<< (ab) str          0.00
                       o<<<<< (ab) gath         0.00
                       o<<<<< (ab) dotab        0.00
                       o<<<<< (ab) scat         0.00
                       o<<<<< (ab) sync         0.00
                       o<<<<< Density           0.01
                       o<<<<< Density one       0.01
                       o<<<<< Density two       0.00
                       o<<<<< Density ab        0.00
                       o<<<<< Spin adapt        0.00
                       o<<<<< Symm adapt        0.00

                       o<<<<< (ab) max sync:      0.00

           >>>| Valence CI:            -84.623609699511
           >>>| MCSCF energy:          -76.133992737770
           >>>| Gradient norm:          0.240595561D-04




     ==============================
            MCSCF Converged
     ==============================



          Canonical Eigenvalues

              1      
    1  -20.5538
    2   -1.3169
    3   -0.7056
    4   -0.5711
    5   -0.5201
    6   -0.0315
    7   -0.0257
    8   -0.0159
    9    0.3056
   10    0.3354
   11    0.6114
   12    0.6822
   13    0.8161
   14    0.8303
   15    0.9721
   16    1.1283
   17    1.1822
   18    1.2748
   19    1.4040
   20    1.9531
   21    2.0520
   22    2.0960
   23    2.1485
   24    2.2738
   25    2.5986
   26    2.8360
   27    3.3492
   28    3.4710
   29    3.4754
   30    3.5230
   31    3.5567
   32    3.7540
   33    3.8754
   34    3.9060
   35    3.9318
   36    4.0034
   37    4.0791
   38    4.2063
   39    4.2889
   40    4.3203
   41    4.5427
   42    4.6551
   43    4.9608
   44    5.1705
   45    5.5313
   46    5.8718
   47    6.1726
   48    6.4982
   49    6.8040
   50    6.8902
   51    6.9829
   52    7.0290
   53    7.0980
   54    7.1498
   55    7.4185
   56    7.5767
   57    7.8873
   58   11.7411


          Converged CI vector

   Index           Coefficient          Config. Occupation
         1          0.97201132          1  2  3  4  5  1  2  3  4  5
        22          0.07334570          1  2  3  4  5  1  2  3  4  8
         3         -0.04348119          1  2  3  4  5  1  2  3  5  6
         8          0.02710357          1  2  3  4  5  1  2  3  5  7
        27         -0.02004973          1  2  3  4  5  1  2  3  6  8
         4         -0.02797856          1  2  3  4  5  1  2  4  5  6
         9         -0.03741002          1  2  3  4  5  1  2  4  5  7
        38         -0.02172752          1  2  3  4  5  1  2  4  7  8
      1177          0.07334570          1  2  3  4  8  1  2  3  4  5
      1198         -0.05157082          1  2  3  4  8  1  2  3  4  8
      1179          0.02528399          1  2  3  4  8  1  2  3  5  6
      1180          0.02218381          1  2  3  4  8  1  2  4  5  6
      1185          0.02923246          1  2  3  4  8  1  2  4  5  7
       113         -0.04348119          1  2  3  5  6  1  2  3  4  5
       134          0.02528399          1  2  3  5  6  1  2  3  4  8
       115         -0.05163424          1  2  3  5  6  1  2  3  5  6
       116         -0.03965116          1  2  3  5  6  1  2  4  5  6
       117          0.02016875          1  2  3  5  6  1  3  4  5  6
       393          0.02710357          1  2  3  5  7  1  2  3  4  5
       400         -0.02465099          1  2  3  5  7  1  2  3  5  7
       401          0.02721344          1  2  3  5  7  1  2  4  5  7
      1457         -0.02004973          1  2  3  6  8  1  2  3  4  5
       169         -0.02797856          1  2  4  5  6  1  2  3  4  5
       190          0.02218381          1  2  4  5  6  1  2  3  4  8
       171         -0.03965116          1  2  4  5  6  1  2  3  5  6
       172         -0.04604929          1  2  4  5  6  1  2  4  5  6
       177         -0.02001213          1  2  4  5  6  1  2  4  5  7
       173          0.02219437          1  2  4  5  6  1  3  4  5  6
       449         -0.03741002          1  2  4  5  7  1  2  3  4  5
       470          0.02923246          1  2  4  5  7  1  2  3  4  8
       456          0.02721344          1  2  4  5  7  1  2  3  5  7
       452         -0.02001213          1  2  4  5  7  1  2  4  5  6
       457         -0.05155253          1  2  4  5  7  1  2  4  5  7
       458         -0.02335615          1  2  4  5  7  1  3  4  5  7
      2073         -0.02172752          1  2  4  7  8  1  2  3  4  5
       227          0.02016875          1  3  4  5  6  1  2  3  5  6
       228          0.02219437          1  3  4  5  6  1  2  4  5  6
       229         -0.02360951          1  3  4  5  6  1  3  4  5  6
       513         -0.02335615          1  3  4  5  7  1  2  4  5  7
       514         -0.02263415          1  3  4  5  7  1  3  4  5  7

          Number of sigma calls:        1
                       o<<<<< (aa):             0.00
                       o<<<<< (bb):             0.00
                       o<<<<< (ab):             0.00
                       o<<<<< (total)           0.00
                       o<<<<< (aa) ff           0.00
                       o<<<<< (aa) gop          0.00
                       o<<<<< (aa) dot          0.00
                       o<<<<< (ab) str          0.00
                       o<<<<< (ab) gath         0.00
                       o<<<<< (ab) dotab        0.00
                       o<<<<< (ab) scat         0.00
                       o<<<<< (ab) sync         0.00
                       o<<<<< Density           0.01
                       o<<<<< Density one       0.00
                       o<<<<< Density two       0.01
                       o<<<<< Density ab        0.00
                       o<<<<< Spin adapt        0.00
                       o<<<<< Symm adapt        0.00

                       o<<<<< (ab) max sync:      0.00



          Natural orbital occupation numbers

              1      
    1    2.0000
    2    1.9987
    3    1.9812
    4    1.9759
    5    1.9675
    6    0.0336
    7    0.0249
    8    0.0184


          Number of sigma calls:       15
                       o<<<<< (aa):             0.01
                       o<<<<< (bb):             0.00
                       o<<<<< (ab):             0.14
                       o<<<<< (total)           0.16
                       o<<<<< (aa) ff           0.00
                       o<<<<< (aa) gop          0.00
                       o<<<<< (aa) dot          0.00
                       o<<<<< (ab) str          0.00
                       o<<<<< (ab) gath         0.00
                       o<<<<< (ab) dotab        0.00
                       o<<<<< (ab) scat         0.00
                       o<<<<< (ab) sync         0.00
                       o<<<<< Density           0.02
                       o<<<<< Density one       0.01
                       o<<<<< Density two       0.00
                       o<<<<< Density ab        0.01
                       o<<<<< Spin adapt        0.59
                       o<<<<< Symm adapt        0.00

                       o<<<<< (ab) max sync:      0.00


       Final MCSCF results 
       ------------------- 

       Total MCSCF energy =    -76.133992737770
            Gradient norm =      2.4D-05

    CPU time for solution =      8.8s
   Wall time for solution =     15.3s



                        Analysis of MCSCF natural orbitals
                        ----------------------------------

 Vector    1  Occ=1.999989D+00  E=-2.055381D+01  Symmetry=a
              MO Center= -9.1D-02, -7.6D-02,  1.1D-10, r^2= 1.6D-02
   Bfn.  Coefficient  Atom+Function         Bfn.  Coefficient  Atom+Function  
  ----- ------------  ---------------      ----- ------------  ---------------
     1      0.972482  1 O  s          

 Vector    2  Occ=1.998685D+00  E=-1.316902D+00  Symmetry=a
              MO Center= -2.9D-01, -2.1D-01,  4.7D-09, r^2= 4.2D-01
   Bfn.  Coefficient  Atom+Function         Bfn.  Coefficient  Atom+Function  
  ----- ------------  ---------------      ----- ------------  ---------------
     2      0.520291  1 O  s                  4      0.392565  1 O  s          

 Vector    3  Occ=1.981179D+00  E=-7.055900D-01  Symmetry=a
              MO Center= -6.3D-02, -6.0D-02,  1.8D-07, r^2= 6.5D-01
   Bfn.  Coefficient  Atom+Function         Bfn.  Coefficient  Atom+Function  
  ----- ------------  ---------------      ----- ------------  ---------------
    10      0.431566  1 O  pz                13      0.392671  1 O  pz         
     7      0.360120  1 O  pz         

 Vector    4  Occ=1.975860D+00  E=-5.710693D-01  Symmetry=a
              MO Center=  3.4D-01, -1.8D-01,  5.6D-08, r^2= 6.0D-01
   Bfn.  Coefficient  Atom+Function         Bfn.  Coefficient  Atom+Function  
  ----- ------------  ---------------      ----- ------------  ---------------
     8      0.343217  1 O  px                 5      0.285585  1 O  px         
    46      0.263136  3 H  s                 11      0.205590  1 O  px         
    45      0.183518  3 H  s          

 Vector    5  Occ=1.967475D+00  E=-5.201117D-01  Symmetry=a
              MO Center= -4.5D-02,  4.1D-01,  4.0D-08, r^2= 6.9D-01
   Bfn.  Coefficient  Atom+Function         Bfn.  Coefficient  Atom+Function  
  ----- ------------  ---------------      ----- ------------  ---------------
     9      0.340183  1 O  py                 6      0.274799  1 O  py         
    32      0.265817  2 H  s                 12      0.197230  1 O  py         
    31      0.168988  2 H  s          

 Vector    6  Occ=3.357583D-02  E=-3.147208D-02  Symmetry=a
              MO Center= -3.6D-02,  6.1D-01,  5.3D-08, r^2= 6.9D-01
   Bfn.  Coefficient  Atom+Function         Bfn.  Coefficient  Atom+Function  
  ----- ------------  ---------------      ----- ------------  ---------------
    32      0.605337  2 H  s                  6     -0.480274  1 O  py         
     9     -0.463635  1 O  py                 2     -0.282032  1 O  s          
    31      0.272525  2 H  s          

 Vector    7  Occ=2.486343D-02  E=-2.574897D-02  Symmetry=a
              MO Center=  5.0D-01, -2.4D-01,  8.5D-08, r^2= 6.6D-01
   Bfn.  Coefficient  Atom+Function         Bfn.  Coefficient  Atom+Function  
  ----- ------------  ---------------      ----- ------------  ---------------
    46      0.656533  3 H  s                  5     -0.518970  1 O  px         
     8     -0.431859  1 O  px                45      0.295104  3 H  s          
     2     -0.279419  1 O  s                  4     -0.192075  1 O  s          

 Vector    8  Occ=1.837248D-02  E=-1.588084D-02  Symmetry=a
              MO Center= -4.9D-03, -1.8D-02,  9.2D-08, r^2= 1.2D+00
   Bfn.  Coefficient  Atom+Function         Bfn.  Coefficient  Atom+Function  
  ----- ------------  ---------------      ----- ------------  ---------------
    13      0.798023  1 O  pz                 7     -0.633521  1 O  pz         
    10     -0.315483  1 O  pz         

 Vector    9  Occ=0.000000D+00  E= 3.056068D-01  Symmetry=a
              MO Center=  4.7D-01,  8.3D-02, -1.7D-07, r^2= 4.7D+00
   Bfn.  Coefficient  Atom+Function         Bfn.  Coefficient  Atom+Function  
  ----- ------------  ---------------      ----- ------------  ---------------
     4      1.913403  1 O  s                 47     -1.360101  3 H  s          
    33     -0.952774  2 H  s                 11      0.704379  1 O  px         
    51      0.458808  3 H  px                38      0.317839  2 H  py         
    12      0.263371  1 O  py                52     -0.188058  3 H  py         
    46     -0.174701  3 H  s          

 Vector   10  Occ=0.000000D+00  E= 3.354151D-01  Symmetry=a
              MO Center=  3.8D-01,  6.0D-01,  2.2D-08, r^2= 5.5D+00
   Bfn.  Coefficient  Atom+Function         Bfn.  Coefficient  Atom+Function  
  ----- ------------  ---------------      ----- ------------  ---------------
    33      1.975377  2 H  s                 47     -1.815326  3 H  s          
    32     -0.579236  2 H  s                 12     -0.570679  1 O  py         
    11      0.403367  1 O  px                46      0.321426  3 H  s          
    51      0.276226  3 H  px                38     -0.252202  2 H  py         

 Vector   11  Occ=0.000000D+00  E= 6.113758D-01  Symmetry=a
              MO Center= -3.7D-02,  2.7D-01, -1.3D-07, r^2= 2.0D+00
   Bfn.  Coefficient  Atom+Function         Bfn.  Coefficient  Atom+Function  
  ----- ------------  ---------------      ----- ------------  ---------------
    46     -2.507758  3 H  s                  4      2.483755  1 O  s          
    11      1.783813  1 O  px                32     -1.084037  2 H  s          
    51      0.690091  3 H  px                38      0.294867  2 H  py         
    37      0.251749  2 H  px                33      0.215737  2 H  s          
    12      0.203412  1 O  py                21     -0.162614  1 O  d  0       

 Vector   12  Occ=0.000000D+00  E= 6.821574D-01  Symmetry=a
              MO Center= -1.1D-01, -3.7D-01,  6.2D-08, r^2= 2.4D+00
   Bfn.  Coefficient  Atom+Function         Bfn.  Coefficient  Atom+Function  
  ----- ------------  ---------------      ----- ------------  ---------------
    12      2.368299  1 O  py                32     -1.784759  2 H  s          
    46      1.373289  3 H  s                 11     -1.198376  1 O  px         
    47      0.767437  3 H  s                 33     -0.693343  2 H  s          
    38      0.664114  2 H  py                51     -0.412079  3 H  px         
    23     -0.298914  1 O  d  2              52      0.300193  3 H  py         

 Vector   13  Occ=0.000000D+00  E= 8.160895D-01  Symmetry=a
              MO Center= -2.2D-01, -9.1D-02,  5.9D-08, r^2= 2.2D+00
   Bfn.  Coefficient  Atom+Function         Bfn.  Coefficient  Atom+Function  
  ----- ------------  ---------------      ----- ------------  ---------------
     4      1.842912  1 O  s                 11      1.684901  1 O  px         
    46     -1.639809  3 H  s                 32     -1.255002  2 H  s          
    12      1.080823  1 O  py                52     -1.014373  3 H  py         
    37     -0.850732  2 H  px                38      0.490592  2 H  py         
     2      0.190492  1 O  s                 51      0.182321  3 H  px         

 Vector   14  Occ=0.000000D+00  E= 8.303117D-01  Symmetry=a
              MO Center=  3.0D-01,  3.8D-01,  2.0D-08, r^2= 1.8D+00
   Bfn.  Coefficient  Atom+Function         Bfn.  Coefficient  Atom+Function  
  ----- ------------  ---------------      ----- ------------  ---------------
    39      0.838850  2 H  pz                53     -0.758385  3 H  pz         

 Vector   15  Occ=0.000000D+00  E= 9.721486D-01  Symmetry=a
              MO Center=  1.4D-01,  3.7D-02,  3.9D-07, r^2= 2.1D+00
   Bfn.  Coefficient  Atom+Function         Bfn.  Coefficient  Atom+Function  
  ----- ------------  ---------------      ----- ------------  ---------------
    13      1.212417  1 O  pz                53     -1.047291  3 H  pz         
    39     -0.866261  2 H  pz         

 Vector   16  Occ=0.000000D+00  E= 1.128288D+00  Symmetry=a
              MO Center=  2.5D-01,  1.4D-01, -2.7D-08, r^2= 2.3D+00
   Bfn.  Coefficient  Atom+Function         Bfn.  Coefficient  Atom+Function  
  ----- ------------  ---------------      ----- ------------  ---------------
     4      2.219129  1 O  s                 46     -2.115215  3 H  s          
    11      1.463378  1 O  px                12     -1.268296  1 O  py         
    51      1.099857  3 H  px                37     -1.026371  2 H  px         
    52      0.656757  3 H  py                47     -0.402490  3 H  s          
     8      0.316343  1 O  px                 2     -0.300918  1 O  s          

 Vector   17  Occ=0.000000D+00  E= 1.182164D+00  Symmetry=a
              MO Center= -7.2D-02,  1.8D-02, -4.3D-07, r^2= 1.9D+00
   Bfn.  Coefficient  Atom+Function         Bfn.  Coefficient  Atom+Function  
  ----- ------------  ---------------      ----- ------------  ---------------
     4      5.718852  1 O  s                 46     -2.667201  3 H  s          
    32     -1.858556  2 H  s                 51      1.249210  3 H  px         
    11      1.152840  1 O  px                52     -1.064523  3 H  py         
     2     -1.022051  1 O  s                 12      0.895065  1 O  py         
     8      0.852996  1 O  px                47     -0.709447  3 H  s          

 Vector   18  Occ=0.000000D+00  E= 1.274814D+00  Symmetry=a
              MO Center=  4.7D-04,  1.2D+00,  1.5D-08, r^2= 1.6D+00
   Bfn.  Coefficient  Atom+Function         Bfn.  Coefficient  Atom+Function  
  ----- ------------  ---------------      ----- ------------  ---------------
     4      3.229604  1 O  s                 38      2.290523  2 H  py         
    32     -1.497609  2 H  s                 12      0.988804  1 O  py         
    46     -0.949927  3 H  s                 33     -0.882157  2 H  s          
    51      0.761635  3 H  px                 9      0.551532  1 O  py         
     2      0.314792  1 O  s                 52     -0.313507  3 H  py         


 Wrote Lagrangian and 1- and 2-particle density matrices to ./H2O.mcpdm


     Multipole analysis of the density
     ---------------------------------

     L   x y z        total        nuclear
     -   - - -        -----        -------
     0   0 0 0     -0.000000     10.000000

     1   1 0 0      0.565641     -0.000000
     1   0 1 0      0.429263      0.000000
     1   0 0 1     -0.000001      0.000000

     2   2 0 0     -4.224914      2.679864
     2   1 1 0     -0.829957     -1.366745
     2   1 0 1     -0.000001      0.000000
     2   0 2 0     -3.338386      4.554203
     2   0 1 1     -0.000000      0.000000
     2   0 0 2     -5.621353      0.000000


  Mulliken analysis of the total density
  --------------------------------------

    Atom       Charge   Shell Charges
 -----------   ------   -------------------------------------------------------
    1 O    8     8.49   1.95  1.01  0.23  0.61  1.26  2.07  1.33  0.00  0.02  0.00
    2 H    1     0.75   0.21  0.39  0.08  0.01  0.05  0.00
    3 H    1     0.76   0.25  0.38  0.05  0.02  0.06  0.01

    Mulliken analysis of the active space density
    ---------------------------------------------

    Atom       Charge   Shell Charges
 -----------   ------   -------------------------------------------------------
    1 O    8     8.49   1.95  1.01  0.23  0.61  1.26  2.07  1.33  0.00  0.02  0.00
    2 H    1     0.75   0.21  0.39  0.08  0.01  0.05  0.00
    3 H    1     0.76   0.25  0.38  0.05  0.02  0.06  0.01

 Parallel integral file used      16 records with       0 large values


 Task  times  cpu:        8.9s     wall:       15.4s


                                NWChem Input Module
                                -------------------


                                 NWChem SCF Module
                                 -----------------


                                        H2O



  ao basis        = "ao basis"
  functions       =    58
  atoms           =     3
  closed shells   =     5
  open shells     =     0
  charge          =   0.00
  wavefunction    = RHF 
  input vectors   = ./h2o.mos
  output vectors  = ./h2o-trash.mos
  use symmetry    = F
  symmetry adapt  = F


 Summary of "ao basis" -> "ao basis" (spherical)
 ------------------------------------------------------------------------------
       Tag                 Description            Shells   Functions and Types
 ---------------- ------------------------------  ------  ---------------------
 O                          cc-pVTZ                 10       30   4s3p2d1f
 H                          cc-pVTZ                  6       14   3s2p1d



 Forming initial guess at      15.4s


 Loading old vectors from job with title :

H2O


 Starting SCF solution at      15.4s



 ----------------------------------------------
         Quadratically convergent ROHF

 Convergence threshold     :          1.000E-04
 Maximum no. of iterations :           30
 Final Fock-matrix accuracy:          1.000E-07
 ----------------------------------------------


 Integral file          = ./H2O.aoints.0
 Record size in doubles =  65536        No. of integs per rec  =  43688
 Max. records in memory =     49        Max. records in file   = 252482
 No. of bits per label  =      8        No. of bits per value  =     64


 #quartets = 3.213D+04 #integrals = 6.608D+05 #direct =  0.0% #cached =100.0%



       Final RHF  results 
       ------------------ 

         Total SCF energy =    -76.032984613739
      One-electron energy =   -121.826023568541
      Two-electron energy =     37.303421993061
 Nuclear repulsion energy =      8.489616961741

        Time for solution =      0.2s


             Final eigenvalues
             -----------------

              1      
    1  -20.5538
    2   -1.3169
    3   -0.7056
    4   -0.5711
    5   -0.5201
    6   -0.0315
    7   -0.0257
    8   -0.0159
    9    0.3056
   10    0.3354
   11    0.6114
   12    0.6822
   13    0.8161
   14    0.8303
   15    0.9721

                       ROHF Final Molecular Orbital Analysis
                       -------------------------------------

 Vector    2  Occ=2.000000D+00  E=-1.316902D+00
              MO Center= -2.9D-01, -2.1D-01,  4.7D-09, r^2= 4.2D-01
   Bfn.  Coefficient  Atom+Function         Bfn.  Coefficient  Atom+Function  
  ----- ------------  ---------------      ----- ------------  ---------------
     2      0.520291  1 O  s                  4      0.392565  1 O  s          

 Vector    3  Occ=2.000000D+00  E=-7.055900D-01
              MO Center= -6.3D-02, -6.0D-02,  1.8D-07, r^2= 6.5D-01
   Bfn.  Coefficient  Atom+Function         Bfn.  Coefficient  Atom+Function  
  ----- ------------  ---------------      ----- ------------  ---------------
    10      0.431566  1 O  pz                13      0.392671  1 O  pz         
     7      0.360120  1 O  pz         

 Vector    4  Occ=2.000000D+00  E=-5.710693D-01
              MO Center=  3.4D-01, -1.8D-01,  5.6D-08, r^2= 6.0D-01
   Bfn.  Coefficient  Atom+Function         Bfn.  Coefficient  Atom+Function  
  ----- ------------  ---------------      ----- ------------  ---------------
     8      0.343217  1 O  px                 5      0.285585  1 O  px         
    46      0.263136  3 H  s                 11      0.205590  1 O  px         
    45      0.183518  3 H  s          

 Vector    5  Occ=2.000000D+00  E=-5.201117D-01
              MO Center= -4.5D-02,  4.1D-01,  4.0D-08, r^2= 6.9D-01
   Bfn.  Coefficient  Atom+Function         Bfn.  Coefficient  Atom+Function  
  ----- ------------  ---------------      ----- ------------  ---------------
     9      0.340183  1 O  py                 6      0.274799  1 O  py         
    32      0.265817  2 H  s                 12      0.197230  1 O  py         
    31      0.168988  2 H  s          

 Vector    6  Occ=0.000000D+00  E=-3.147208D-02
              MO Center= -3.6D-02,  6.1D-01,  5.3D-08, r^2= 6.9D-01
   Bfn.  Coefficient  Atom+Function         Bfn.  Coefficient  Atom+Function  
  ----- ------------  ---------------      ----- ------------  ---------------
    32      0.605337  2 H  s                  6     -0.480274  1 O  py         
     9     -0.463635  1 O  py                 2     -0.282032  1 O  s          
    31      0.272525  2 H  s          

 Vector    7  Occ=0.000000D+00  E=-2.574897D-02
              MO Center=  5.0D-01, -2.4D-01,  8.5D-08, r^2= 6.6D-01
   Bfn.  Coefficient  Atom+Function         Bfn.  Coefficient  Atom+Function  
  ----- ------------  ---------------      ----- ------------  ---------------
    46      0.656533  3 H  s                  5     -0.518970  1 O  px         
     8     -0.431859  1 O  px                45      0.295104  3 H  s          
     2     -0.279419  1 O  s                  4     -0.192075  1 O  s          

 Vector    8  Occ=0.000000D+00  E=-1.588084D-02
              MO Center= -4.9D-03, -1.8D-02,  9.2D-08, r^2= 1.2D+00
   Bfn.  Coefficient  Atom+Function         Bfn.  Coefficient  Atom+Function  
  ----- ------------  ---------------      ----- ------------  ---------------
    13      0.798023  1 O  pz                 7     -0.633521  1 O  pz         
    10     -0.315483  1 O  pz         

 Vector    9  Occ=0.000000D+00  E= 3.056068D-01
              MO Center=  4.7D-01,  8.3D-02, -1.7D-07, r^2= 4.7D+00
   Bfn.  Coefficient  Atom+Function         Bfn.  Coefficient  Atom+Function  
  ----- ------------  ---------------      ----- ------------  ---------------
     4      1.913403  1 O  s                 47     -1.360101  3 H  s          
    33     -0.952774  2 H  s                 11      0.704379  1 O  px         
    51      0.458808  3 H  px                38      0.317839  2 H  py         
    12      0.263371  1 O  py                52     -0.188058  3 H  py         
    46     -0.174701  3 H  s          

 Vector   10  Occ=0.000000D+00  E= 3.354151D-01
              MO Center=  3.8D-01,  6.0D-01,  2.2D-08, r^2= 5.5D+00
   Bfn.  Coefficient  Atom+Function         Bfn.  Coefficient  Atom+Function  
  ----- ------------  ---------------      ----- ------------  ---------------
    33      1.975377  2 H  s                 47     -1.815326  3 H  s          
    32     -0.579236  2 H  s                 12     -0.570679  1 O  py         
    11      0.403367  1 O  px                46      0.321426  3 H  s          
    51      0.276226  3 H  px                38     -0.252202  2 H  py         

 Vector   11  Occ=0.000000D+00  E= 6.113758D-01
              MO Center= -3.7D-02,  2.7D-01, -1.3D-07, r^2= 2.0D+00
   Bfn.  Coefficient  Atom+Function         Bfn.  Coefficient  Atom+Function  
  ----- ------------  ---------------      ----- ------------  ---------------
    46     -2.507758  3 H  s                  4      2.483755  1 O  s          
    11      1.783813  1 O  px                32     -1.084037  2 H  s          
    51      0.690091  3 H  px                38      0.294867  2 H  py         
    37      0.251749  2 H  px                33      0.215737  2 H  s          
    12      0.203412  1 O  py                21     -0.162614  1 O  d  0       

 Vector   12  Occ=0.000000D+00  E= 6.821574D-01
              MO Center= -1.1D-01, -3.7D-01,  6.2D-08, r^2= 2.4D+00
   Bfn.  Coefficient  Atom+Function         Bfn.  Coefficient  Atom+Function  
  ----- ------------  ---------------      ----- ------------  ---------------
    12      2.368299  1 O  py                32     -1.784759  2 H  s          
    46      1.373289  3 H  s                 11     -1.198376  1 O  px         
    47      0.767437  3 H  s                 33     -0.693343  2 H  s          
    38      0.664114  2 H  py                51     -0.412079  3 H  px         
    23     -0.298914  1 O  d  2              52      0.300193  3 H  py         

 Vector   13  Occ=0.000000D+00  E= 8.160895D-01
              MO Center= -2.2D-01, -9.1D-02,  5.9D-08, r^2= 2.2D+00
   Bfn.  Coefficient  Atom+Function         Bfn.  Coefficient  Atom+Function  
  ----- ------------  ---------------      ----- ------------  ---------------
     4      1.842912  1 O  s                 11      1.684901  1 O  px         
    46     -1.639809  3 H  s                 32     -1.255002  2 H  s          
    12      1.080823  1 O  py                52     -1.014373  3 H  py         
    37     -0.850732  2 H  px                38      0.490592  2 H  py         
     2      0.190492  1 O  s                 51      0.182321  3 H  px         

 Vector   14  Occ=0.000000D+00  E= 8.303117D-01
              MO Center=  3.0D-01,  3.8D-01,  2.0D-08, r^2= 1.8D+00
   Bfn.  Coefficient  Atom+Function         Bfn.  Coefficient  Atom+Function  
  ----- ------------  ---------------      ----- ------------  ---------------
    39      0.838850  2 H  pz                53     -0.758385  3 H  pz         

 Vector   15  Occ=0.000000D+00  E= 9.721486D-01
              MO Center=  1.4D-01,  3.7D-02,  3.9D-07, r^2= 2.1D+00
   Bfn.  Coefficient  Atom+Function         Bfn.  Coefficient  Atom+Function  
  ----- ------------  ---------------      ----- ------------  ---------------
    13      1.212417  1 O  pz                53     -1.047291  3 H  pz         
    39     -0.866261  2 H  pz         


 center of mass
 --------------
 x =  -0.07599894 y =  -0.06317897 z =   0.00000000

 moments of inertia (a.u.)
 ------------------
           4.681178684899           1.267566706536           0.000000000000
           1.267566706536           2.833002082974           0.000000000000
           0.000000000000           0.000000000000           7.514180767873

  Mulliken analysis of the total density
  --------------------------------------

    Atom       Charge   Shell Charges
 -----------   ------   -------------------------------------------------------
    1 O    8     8.50   1.95  1.01  0.23  0.62  1.25  2.09  1.34  0.00  0.02  0.00
    2 H    1     0.74   0.21  0.39  0.08  0.01  0.05  0.00
    3 H    1     0.75   0.25  0.38  0.05  0.02  0.06  0.01

       Multipole analysis of the density wrt the origin
       ------------------------------------------------

     L   x y z        total         open         nuclear
     -   - - -        -----         ----         -------
     0   0 0 0     -0.000000      0.000000     10.000000

     1   1 0 0      0.576942      0.000000     -0.000000
     1   0 1 0      0.441416      0.000000      0.000000
     1   0 0 1     -0.000001      0.000000      0.000000

     2   2 0 0     -4.201866      0.000000      2.679864
     2   1 1 0     -0.838625      0.000000     -1.366745
     2   1 0 1     -0.000001      0.000000      0.000000
     2   0 2 0     -3.298690      0.000000      4.554203
     2   0 1 1     -0.000000      0.000000      0.000000
     2   0 0 2     -5.603557      0.000000      0.000000


 Parallel integral file used      16 records with       0 large values

 ------------------------------------
     Number of active orbitals      8
     Number of active alpha electrons      5
     Number of active beta electrons       5
 ------------------------------------
                   NWChem Extensible Many-Electron Theory Module
                   ---------------------------------------------

              ======================================================
                   This portion of the program was automatically
                  generated by a Tensor Contraction Engine (TCE).
                  The development of this portion of the program
                 and TCE was supported by US Department of Energy,
                Office of Science, Office of Basic Energy Science.
                      TCE is a product of Battelle and PNNL.
              Please cite: S.Hirata, J.Phys.Chem.A 107, 9887 (2003).
              ======================================================

                                        H2O


            General Information
            -------------------
      Number of processors :     1
         Wavefunction type : Restricted Hartree-Fock
          No. of electrons :    10
           Alpha electrons :     5
            Beta electrons :     5
           No. of orbitals :   116
            Alpha orbitals :    58
             Beta orbitals :    58
        Alpha frozen cores :     0
         Beta frozen cores :     0
     Alpha frozen virtuals :    50
      Beta frozen virtuals :    50
         Spin multiplicity : singlet 
    Number of AO functions :    58
       Number of AO shells :    22
        Use of symmetry is : off
      Symmetry adaption is : off
         Schwarz screening : 0.10D-09

          Correlation Information
          -----------------------
          Calculation type : Coupled-cluster singles & doubles                           
   Perturbative correction : none                                                        
            Max iterations :      100
        Residual threshold : 0.10D-06
     T(0) DIIS level shift : 0.00D+00
     L(0) DIIS level shift : 0.00D+00
     T(1) DIIS level shift : 0.00D+00
     L(1) DIIS level shift : 0.00D+00
     T(R) DIIS level shift : 0.00D+00
     T(I) DIIS level shift : 0.00D+00
   CC-T/L Amplitude update :  5-th order DIIS
                I/O scheme : Global Array Library
        L-threshold :  0.10D-06
        EOM-threshold :  0.10D-06
 no EOMCCSD initial starts read in
 TCE RESTART OPTIONS
 READ_INT:   F
 WRITE_INT:  F
 READ_TA:    F
 WRITE_TA:   F
 READ_XA:    F
 WRITE_XA:   F
 READ_IN3:   F
 WRITE_IN3:  F
 SLICE:      F
 D4D5:       F
 quantumc:   T
 qrotation:  F
 pwtce:      F
 qducc:      F
 nacto:                         0
 nrotv:                         0
 nrot:                          0

            Memory Information
            ------------------
          Available GA space size is    1610609372 doubles
          Available MA space size is    1610609780 doubles

 Maximum block size supplied by input
 Maximum block size         1 doubles

 tile_dim =      1

 Block   Spin    Irrep     Size     Offset   Alpha
 -------------------------------------------------
   1    alpha     a      1 doubles       0       1
   2    alpha     a      1 doubles       1       2
   3    alpha     a      1 doubles       2       3
   4    alpha     a      1 doubles       3       4
   5    alpha     a      1 doubles       4       5
   6    beta      a      1 doubles       5       1
   7    beta      a      1 doubles       6       2
   8    beta      a      1 doubles       7       3
   9    beta      a      1 doubles       8       4
  10    beta      a      1 doubles       9       5
  11    alpha     a      1 doubles      10      11
  12    alpha     a      1 doubles      11      12
  13    alpha     a      1 doubles      12      13
  14    beta      a      1 doubles      13      11
  15    beta      a      1 doubles      14      12
  16    beta      a      1 doubles      15      13

 Global array virtual files algorithm will be used

 Parallel file system coherency ......... OK

 Integral file          = ./H2O.aoints.0
 Record size in doubles =  65536        No. of integs per rec  =  43688
 Max. records in memory =     49        Max. records in file   = 252482
 No. of bits per label  =      8        No. of bits per value  =     64


 #quartets = 3.213D+04 #integrals = 6.608D+05 #direct =  0.0% #cached =100.0%


 Fock matrix recomputed
 1-e file size   =               64
 1-e file name   = ./H2O.f1
 Cpu & wall time / sec            0.2            0.2
 4-electron integrals stored in orbital form

 v2    file size   =              666
 4-index algorithm nr.  13 is used
 imaxsize =       30
 imaxsize ichop =        0
 begin_one_electron_integrals
    1    1       -32.8608112832
    2    1        -1.5663921267
    3    1        -0.0000000018
    4    1         0.1523909895
    5    1         0.1256899297
    6    1        -0.2170007925
    7    1        -0.2055647534
    8    1         0.0000001830
    1    2        -1.5663921267
    2    2        -7.8185951928
    3    2        -0.0000001258
    4    2        -0.2491604918
    5    2        -0.1993248161
    6    2         0.1246960772
    7    2         0.0891547089
    8    2        -0.0000000629
    1    3        -0.0000000018
    2    3        -0.0000001258
    3    3        -6.9653241529
    4    3         0.0000001692
    5    3         0.0000001070
    6    3         0.0000001133
    7    3         0.0000002418
    8    3         2.2063849275
    1    4         0.1523909895
    2    4        -0.2491604918
    3    4         0.0000001692
    4    4        -6.7765642951
    5    4        -0.1230671654
    6    4         0.1410512517
    7    4         2.0436475190
    8    4        -0.0000001810
    1    5         0.1256899297
    2    5        -0.1993248161
    3    5         0.0000001070
    4    5        -0.1230671654
    5    5        -6.4917168602
    6    5         2.0666397435
    7    5        -0.1255548814
    8    5        -0.0000001136
    1    6        -0.2170007925
    2    6         0.1246960772
    3    6         0.0000001133
    4    6         0.1410512517
    5    6         2.0666397435
    6    6        -6.0612614699
    7    6         0.0548693155
    8    6         0.0000003415
    1    7        -0.2055647534
    2    7         0.0891547089
    3    7         0.0000002418
    4    7         2.0436475190
    5    7        -0.1255548814
    6    7         0.0548693155
    7    7        -6.1286726925
    8    7         0.0000004351
    1    8         0.0000001830
    2    8        -0.0000000629
    3    8         2.2063849275
    4    8        -0.0000001810
    5    8        -0.0000001136
    6    8         0.0000003415
    7    8         0.0000004351
    8    8        -5.4659994679
 end_one_electron_integrals
 begin_two_electron_integrals
    1    1    1    1        4.8356234002
    2    1    1    1       -0.1253164345
    2    1    2    1        0.0200626442
    3    1    1    1       -0.0000000042
    3    1    2    1        0.0000000015
    3    1    3    1        0.0261567022
    3    1    2    2        0.0000000016
    4    1    1    1       -0.0959715872
    4    1    2    1        0.0005070947
    4    1    3    1        0.0000000002
    4    1    4    1        0.0205763805
    4    1    2    2       -0.0129678516
    4    1    3    2       -0.0000000002
    4    1    3    3       -0.0028298217
    5    1    1    1       -0.0821586315
    5    1    2    1        0.0004280136
    5    1    4    1        0.0029536936
    5    1    5    1        0.0185474186
    5    1    2    2       -0.0111507183
    5    1    3    2       -0.0000000005
    5    1    4    2       -0.0002631245
    5    1    3    3       -0.0024112671
    5    1    4    3        0.0000000004
    5    1    4    4       -0.0017150202
    6    1    1    1        0.1694549551
    6    1    2    1       -0.0036370250
    6    1    3    1       -0.0000000004
    6    1    4    1       -0.0061541355
    6    1    5    1       -0.0296813646
    6    1    6    1        0.0484084149
    6    1    2    2        0.0198002822
    6    1    3    2        0.0000000006
    6    1    4    2        0.0009709250
    6    1    5    2       -0.0228607874
    6    1    3    3        0.0045238895
    6    1    4    3       -0.0000000014
    6    1    5    3        0.0000000009
    6    1    4    4        0.0041504864
    6    1    5    4       -0.0048113154
    6    1    5    5       -0.0115517778
    7    1    1    1        0.1658331080
    7    1    2    1       -0.0031118481
    7    1    3    1       -0.0000000021
    7    1    4    1       -0.0330220011
    7    1    5    1       -0.0019591776
    7    1    6    1        0.0057331994
    7    1    7    1        0.0541608436
    7    1    2    2        0.0201663036
    7    1    3    2       -0.0000000016
    7    1    4    2       -0.0255150742
    7    1    5    2        0.0042992699
    7    1    6    2       -0.0055882580
    7    1    3    3        0.0037904280
    7    1    4    3        0.0000000026
    7    1    5    3       -0.0000000022
    7    1    6    3        0.0000000007
    7    1    4    4       -0.0154078916
    7    1    5    4       -0.0034664776
    7    1    6    4        0.0057434927
    7    1    5    5        0.0049492549
    7    1    6    5       -0.0048118401
    7    1    6    6        0.0090385656
    8    1    1    1       -0.0000001324
    8    1    2    1        0.0000000040
    8    1    3    1       -0.0375875793
    8    1    4    1        0.0000000101
    8    1    5    1        0.0000000076
    8    1    6    1       -0.0000000131
    8    1    7    1       -0.0000000136
    8    1    8    1        0.0547667323
    8    1    2    2       -0.0000000150
    8    1    3    2       -0.0360880134
    8    1    4    2        0.0000000049
    8    1    5    2        0.0000000030
    8    1    6    2       -0.0000000013
    8    1    7    2       -0.0000000022
    8    1    3    3       -0.0000000075
    8    1    4    3       -0.0078073372
    8    1    5    3       -0.0069373769
    8    1    6    3        0.0098929158
    8    1    7    3        0.0094387714
    8    1    4    4        0.0000000013
    8    1    5    4        0.0000000013
    8    1    6    4       -0.0000000013
    8    1    7    4        0.0000000034
    8    1    5    5       -0.0000000005
    8    1    6    5        0.0000000031
    8    1    7    5       -0.0000000016
    8    1    6    6       -0.0000000029
    8    1    7    6        0.0000000014
    8    1    7    7       -0.0000000029
    2    2    1    1        1.0616760742
    2    2    2    1        0.0177871465
    2    2    2    2        0.8485286822
    3    2    1    1        0.0000000418
    3    2    2    1        0.0000000012
    3    2    3    1        0.0210987728
    3    2    2    2        0.0000000429
    3    2    3    2        0.1322844067
    4    2    1    1       -0.0084897060
    4    2    2    1       -0.0027450254
    4    2    4    1        0.0136971535
    4    2    2    2       -0.0504118672
    4    2    3    2        0.0000000015
    4    2    4    2        0.0877715136
    4    2    3    3        0.0091986759
    5    2    1    1       -0.0076427327
    5    2    2    1       -0.0023601468
    5    2    3    1        0.0000000001
    5    2    4    1       -0.0003211017
    5    2    5    1        0.0127847694
    5    2    2    2       -0.0437837963
    5    2    3    2       -0.0000000028
    5    2    4    2       -0.0146922615
    5    2    5    2        0.0839976890
    5    2    3    3        0.0072638882
    5    2    4    3        0.0000000109
    5    2    4    4       -0.0089911189
    6    2    1    1       -0.0242638894
    6    2    2    1        0.0024546247
    6    2    3    1       -0.0000000007
    6    2    4    1        0.0013710559
    6    2    5    1       -0.0141764788
    6    2    6    1        0.0226217799
    6    2    2    2        0.0189680625
    6    2    3    2       -0.0000000028
    6    2    4    2        0.0122976931
    6    2    5    2       -0.0592807545
    6    2    6    2        0.0536034482
    6    2    3    3       -0.0180040830
    6    2    4    3       -0.0000000058
    6    2    5    3        0.0000000003
    6    2    4    4       -0.0052402571
    6    2    5    4       -0.0086015319
    6    2    5    5       -0.0363406642
    7    2    1    1       -0.0158826376
    7    2    2    1        0.0027925965
    7    2    3    1       -0.0000000013
    7    2    4    1       -0.0148560258
    7    2    5    1        0.0031196784
    7    2    6    1       -0.0051241974
    7    2    7    1        0.0247746819
    7    2    2    2        0.0197626202
    7    2    3    2       -0.0000000054
    7    2    4    2       -0.0558350116
    7    2    5    2        0.0184733960
    7    2    6    2       -0.0178968286
    7    2    7    2        0.0517462026
    7    2    3    3       -0.0146178201
    7    2    4    3        0.0000000025
    7    2    5    3       -0.0000000045
    7    2    6    3        0.0000000017
    7    2    4    4       -0.0326106985
    7    2    5    4       -0.0051163432
    7    2    6    4        0.0080262657
    7    2    5    5       -0.0017237469
    7    2    6    5        0.0057457087
    7    2    6    6       -0.0023716024
    8    2    1    1        0.0000000217
    8    2    2    1       -0.0000000013
    8    2    3    1       -0.0194491646
    8    2    4    1        0.0000000013
    8    2    5    1        0.0000000004
    8    2    7    1       -0.0000000005
    8    2    8    1        0.0271343271
    8    2    2    2       -0.0000000022
    8    2    3    2       -0.0530073258
    8    2    4    2        0.0000000030
    8    2    5    2       -0.0000000011
    8    2    6    2        0.0000000018
    8    2    7    2       -0.0000000009
    8    2    8    2        0.0445581272
    8    2    3    3        0.0000000044
    8    2    4    3       -0.0063738368
    8    2    5    3       -0.0058241723
    8    2    6    3        0.0125789704
    8    2    7    3        0.0116531478
    8    2    4    4        0.0000000037
    8    2    5    4        0.0000000004
    8    2    6    4       -0.0000000002
    8    2    7    4       -0.0000000076
    8    2    5    5        0.0000000025
    8    2    6    5       -0.0000000070
    8    2    7    5        0.0000000011
    8    2    6    6        0.0000000047
    8    2    7    6       -0.0000000010
    8    2    7    7        0.0000000052
    3    3    1    1        1.0256619550
    3    3    2    1        0.0140528094
    3    3    2    2        0.7231604599
    3    3    3    2        0.0000000505
    3    3    3    3        0.7397423567
    4    3    1    1       -0.0000000148
    4    3    2    1       -0.0000000002
    4    3    3    1        0.0048499371
    4    3    4    1       -0.0000000008
    4    3    2    2       -0.0000000056
    4    3    3    2        0.0226019163
    4    3    4    2       -0.0000000175
    4    3    3    3       -0.0000000019
    4    3    4    3        0.0360652919
    5    3    1    1       -0.0000000130
    5    3    2    1       -0.0000000001
    5    3    3    1        0.0042614682
    5    3    4    1        0.0000000006
    5    3    5    1       -0.0000000002
    5    3    2    2       -0.0000000097
    5    3    3    2        0.0203462202
    5    3    4    2        0.0000000108
    5    3    5    2       -0.0000000071
    5    3    4    3        0.0058384660
    5    3    5    3        0.0331299763
    5    3    4    4        0.0000000064
    6    3    1    1       -0.0000000159
    6    3    2    1       -0.0000000004
    6    3    3    1       -0.0069455608
    6    3    4    1       -0.0000000003
    6    3    5    1        0.0000000004
    6    3    6    1        0.0000000002
    6    3    2    2       -0.0000000139
    6    3    3    2       -0.0199090993
    6    3    4    2        0.0000000016
    6    3    5    2       -0.0000000062
    6    3    6    2        0.0000000016
    6    3    3    3       -0.0000000123
    6    3    4    3       -0.0047779550
    6    3    5    3       -0.0202749919
    6    3    6    3        0.0245529137
    6    3    4    4       -0.0000000047
    6    3    5    4        0.0000000032
    6    3    5    5       -0.0000000213
    7    3    1    1       -0.0000000435
    7    3    2    1       -0.0000000011
    7    3    3    1       -0.0066890705
    7    3    4    1        0.0000000005
    7    3    5    1       -0.0000000001
    7    3    6    1       -0.0000000002
    7    3    7    1        0.0000000009
    7    3    2    2       -0.0000000236
    7    3    3    2       -0.0181586376
    7    3    4    2       -0.0000000115
    7    3    5    2        0.0000000044
    7    3    6    2        0.0000000010
    7    3    7    2        0.0000000021
    7    3    3    3       -0.0000000232
    7    3    4    3       -0.0192795312
    7    3    5    3       -0.0018163653
    7    3    6    3        0.0040007497
    7    3    7    3        0.0240157043
    7    3    4    4       -0.0000000454
    7    3    5    4        0.0000000033
    7    3    6    4        0.0000000004
    7    3    5    5       -0.0000000084
    7    3    6    5        0.0000000178
    7    3    6    6       -0.0000000085
    8    3    1    1       -0.5376211965
    8    3    2    1       -0.0119001463
    8    3    3    1        0.0000000047
    8    3    4    1        0.0036785261
    8    3    5    1        0.0030293761
    8    3    6    1       -0.0063426967
    8    3    7    1       -0.0060696874
    8    3    8    1       -0.0000000021
    8    3    2    2       -0.2181994269
    8    3    3    2        0.0000000020
    8    3    4    2        0.0037574988
    8    3    5    2        0.0027602669
    8    3    6    2        0.0102017425
    8    3    7    2        0.0079169229
    8    3    8    2       -0.0000000125
    8    3    3    3       -0.2103803392
    8    3    4    3        0.0000000098
    8    3    5    3        0.0000000093
    8    3    6    3        0.0000000020
    8    3    7    3        0.0000000087
    8    3    8    3        0.1667990680
    8    3    4    4       -0.1497766399
    8    3    5    4       -0.0042271726
    8    3    6    4        0.0085672010
    8    3    7    4        0.1257805964
    8    3    5    5       -0.1393625407
    8    3    6    5        0.1232177920
    8    3    7    5       -0.0075145694
    8    3    6    6       -0.1731977835
    8    3    7    6        0.0043367101
    8    3    7    7       -0.1822215641
    4    4    1    1        0.9009568316
    4    4    2    1        0.0098219953
    4    4    3    1       -0.0000000010
    4    4    4    1        0.0064867855
    4    4    2    2        0.6318688181
    4    4    3    2        0.0000000072
    4    4    4    2        0.0789168683
    4    4    3    3        0.6261042534
    4    4    4    3       -0.0000000496
    4    4    4    4        0.7625174267
    5    4    1    1        0.0211122234
    5    4    2    1       -0.0006373099
    5    4    3    1       -0.0000000002
    5    4    4    1        0.0028030571
    5    4    5    1        0.0031431177
    5    4    2    2       -0.0091192359
    5    4    3    2        0.0000000038
    5    4    4    2        0.0051503492
    5    4    5    2        0.0101721375
    5    4    3    3        0.0103384169
    5    4    4    3        0.0000000040
    5    4    5    3        0.0000000042
    5    4    4    4        0.0123469347
    5    4    5    4        0.0281057875
    6    4    1    1       -0.0356488495
    6    4    2    1        0.0013239404
    6    4    3    1       -0.0000000002
    6    4    4    1       -0.0042759920
    6    4    5    1       -0.0029857403
    6    4    6    1        0.0046408297
    6    4    2    2        0.0029907476
    6    4    3    2       -0.0000000025
    6    4    4    2       -0.0079116966
    6    4    5    2       -0.0085466195
    6    4    6    2        0.0056961275
    6    4    3    3       -0.0131892616
    6    4    4    3       -0.0000000015
    6    4    5    3        0.0000000014
    6    4    6    3        0.0000000030
    6    4    4    4       -0.0144254037
    6    4    5    4       -0.0169819671
    6    4    6    4        0.0193653342
    6    4    5    5       -0.0196411909
    7    4    1    1       -0.4851699489
    7    4    2    1       -0.0084188488
    7    4    3    1        0.0000000004
    7    4    4    1       -0.0047358881
    7    4    5    1        0.0029169381
    7    4    6    1       -0.0051368228
    7    4    7    1        0.0040921552
    7    4    2    2       -0.2089953439
    7    4    3    2       -0.0000000163
    7    4    4    2        0.0097638104
    7    4    5    2       -0.0042266328
    7    4    6    2        0.0092633662
    7    4    7    2        0.0201034529
    7    4    3    3       -0.1837604247
    7    4    4    3       -0.0000000203
    7    4    5    3        0.0000000094
    7    4    6    3        0.0000000078
    7    4    7    3       -0.0000000101
    7    4    4    4       -0.1142936475
    7    4    5    4       -0.0090903079
    7    4    6    4        0.0157717404
    7    4    7    4        0.2069408464
    7    4    5    5       -0.1483625243
    7    4    6    5        0.1083098285
    7    4    6    6       -0.1770299833
    8    4    1    1        0.0000000695
    8    4    2    1        0.0000000003
    8    4    3    1       -0.0033470349
    8    4    4    1        0.0000000019
    8    4    5    1       -0.0000000005
    8    4    6    1        0.0000000009
    8    4    7    1       -0.0000000014
    8    4    8    1        0.0040199884
    8    4    2    2        0.0000000157
    8    4    3    2       -0.0006625495
    8    4    4    2       -0.0000000069
    8    4    5    2        0.0000000012
    8    4    6    2       -0.0000000006
    8    4    7    2       -0.0000000030
    8    4    8    2        0.0044313908
    8    4    3    3        0.0000000152
    8    4    4    3       -0.0047476508
    8    4    5    3       -0.0005083702
    8    4    6    3        0.0028223408
    8    4    7    3        0.0167749560
    8    4    8    3       -0.0000000179
    8    4    4    4       -0.0000000115
    8    4    5    4        0.0000000014
    8    4    6    4       -0.0000000031
    8    4    7    4       -0.0000000339
    8    4    8    4        0.0166585882
    8    4    5    5        0.0000000106
    8    4    6    5       -0.0000000115
    8    4    7    5        0.0000000008
    8    4    6    6        0.0000000178
    8    4    7    6       -0.0000000002
    8    4    7    7       -0.0000000020
    5    5    1    1        0.8565266059
    5    5    2    1        0.0093648680
    5    5    3    1       -0.0000000008
    5    5    4    1       -0.0017484845
    5    5    5    1        0.0052836607
    5    5    2    2        0.6115003798
    5    5    3    2        0.0000000098
    5    5    4    2       -0.0036560723
    5    5    5    2        0.0695090643
    5    5    3    3        0.6021743702
    5    5    4    3        0.0000000037
    5    5    5    3       -0.0000000251
    5    5    4    4        0.5552512768
    5    5    5    4        0.0191337272
    5    5    5    5        0.7108816489
    6    5    1    1       -0.4738881732
    6    5    2    1       -0.0082962582
    6    5    3    1        0.0000000007
    6    5    4    1        0.0027168140
    6    5    5    1       -0.0047871644
    6    5    6    1        0.0033479814
    6    5    2    2       -0.2153730082
    6    5    3    2       -0.0000000148
    6    5    4    2       -0.0045291653
    6    5    5    2        0.0083977490
    6    5    6    2        0.0197132949
    6    5    3    3       -0.1898479150
    6    5    4    3        0.0000000105
    6    5    5    3       -0.0000000098
    6    5    6    3       -0.0000000069
    6    5    4    4       -0.1670729699
    6    5    5    4       -0.0071816778
    6    5    6    4        0.0086190328
    6    5    5    5       -0.1026271173
    6    5    6    5        0.2108565839
    7    5    1    1        0.0265772001
    7    5    2    1        0.0024108468
    7    5    3    1       -0.0000000003
    7    5    4    1       -0.0029906124
    7    5    5    1       -0.0038374956
    7    5    6    1        0.0059326527
    7    5    7    1        0.0041993267
    7    5    2    2        0.0289765133
    7    5    3    2        0.0000000008
    7    5    4    2       -0.0077127725
    7    5    5    2       -0.0086347238
    7    5    6    2        0.0066512745
    7    5    7    2        0.0019204140
    7    5    3    3        0.0111162448
    7    5    4    3        0.0000000027
    7    5    5    3        0.0000000002
    7    5    6    3        0.0000000028
    7    5    7    3        0.0000000026
    7    5    4    4       -0.0017740276
    7    5    5    4       -0.0129749717
    7    5    6    4        0.0158726507
    7    5    7    4       -0.0100834878
    7    5    5    5        0.0031304493
    7    5    6    5       -0.0067605135
    7    5    7    5        0.0174833122
    7    5    6    6        0.0026216722
    8    5    1    1        0.0000000458
    8    5    3    1       -0.0030014154
    8    5    4    1       -0.0000000002
    8    5    5    1        0.0000000019
    8    5    6    1       -0.0000000021
    8    5    7    1        0.0000000008
    8    5    8    1        0.0035666574
    8    5    2    2        0.0000000059
    8    5    3    2       -0.0001840915
    8    5    4    2        0.0000000012
    8    5    5    2       -0.0000000013
    8    5    6    2       -0.0000000032
    8    5    7    2        0.0000000005
    8    5    8    2        0.0042789718
    8    5    3    3        0.0000000103
    8    5    4    3       -0.0003981735
    8    5    5    3       -0.0036761547
    8    5    6    3        0.0155202857
    8    5    7    3        0.0007420989
    8    5    8    3       -0.0000000108
    8    5    4    4        0.0000000074
    8    5    5    4        0.0000000018
    8    5    6    4       -0.0000000022
    8    5    7    4       -0.0000000072
    8    5    8    4        0.0017079908
    8    5    5    5       -0.0000000041
    8    5    6    5       -0.0000000179
    8    5    7    5       -0.0000000002
    8    5    8    5        0.0164433177
    8    5    6    6        0.0000000039
    8    5    7    6        0.0000000035
    8    5    7    7        0.0000000117
    6    6    1    1        1.0252157646
    6    6    2    1        0.0115012877
    6    6    3    1       -0.0000000007
    6    6    4    1       -0.0037714436
    6    6    5    1        0.0072197620
    6    6    6    1       -0.0129175862
    6    6    2    2        0.6177300992
    6    6    3    2        0.0000000121
    6    6    4    2       -0.0060319025
    6    6    5    2        0.0664530573
    6    6    6    2       -0.0407074319
    6    6    3    3        0.6121479008
    6    6    4    3        0.0000000051
    6    6    5    3       -0.0000000246
    6    6    6    3       -0.0000000254
    6    6    4    4        0.5563088911
    6    6    5    4        0.0197903693
    6    6    6    4       -0.0234891585
    6    6    5    5        0.7098611010
    6    6    6    5       -0.1130099597
    6    6    6    6        0.7617319823
    7    6    1    1       -0.0103949832
    7    6    2    1       -0.0032356513
    7    6    3    1        0.0000000008
    7    6    4    1        0.0058185250
    7    6    5    1        0.0046914367
    7    6    6    1       -0.0069971267
    7    6    7    1       -0.0085250555
    7    6    2    2       -0.0313209420
    7    6    3    2        0.0000000052
    7    6    4    2        0.0169634615
    7    6    5    2        0.0090853342
    7    6    6    2       -0.0085374210
    7    6    7    2       -0.0096470440
    7    6    3    3       -0.0028148985
    7    6    4    3       -0.0000000002
    7    6    5    3        0.0000000074
    7    6    6    3        0.0000000018
    7    6    7    3       -0.0000000019
    7    6    4    4        0.0173893043
    7    6    5    4        0.0225378294
    7    6    6    4       -0.0191853819
    7    6    7    4        0.0056597046
    7    6    5    5       -0.0009685641
    7    6    6    5       -0.0017254154
    7    6    7    5       -0.0187959624
    7    6    6    6       -0.0017474753
    7    6    7    6        0.0288464292
    8    6    1    1       -0.0000000978
    8    6    2    1        0.0000000002
    8    6    3    1        0.0070942476
    8    6    4    1        0.0000000001
    8    6    5    1       -0.0000000030
    8    6    6    1        0.0000000043
    8    6    7    1       -0.0000000017
    8    6    8    1       -0.0109213807
    8    6    2    2       -0.0000000268
    8    6    3    2        0.0253225587
    8    6    4    2        0.0000000011
    8    6    5    2       -0.0000000099
    8    6    6    2        0.0000000076
    8    6    7    2       -0.0000000012
    8    6    8    2       -0.0097505755
    8    6    3    3       -0.0000000274
    8    6    4    3        0.0071326403
    8    6    5    3        0.0257663522
    8    6    6    3       -0.0187296025
    8    6    7    3       -0.0031903767
    8    6    8    3        0.0000000278
    8    6    4    4       -0.0000000300
    8    6    5    4       -0.0000000040
    8    6    6    4        0.0000000059
    8    6    7    4        0.0000000188
    8    6    8    4       -0.0007175799
    8    6    5    5       -0.0000000427
    8    6    6    5        0.0000000189
    8    6    7    5        0.0000000036
    8    6    8    5       -0.0060561567
    8    6    6    6       -0.0000000468
    8    6    7    6       -0.0000000011
    8    6    8    6        0.0285574134
    8    6    7    7       -0.0000000327
    7    7    1    1        1.0792053226
    7    7    2    1        0.0122199044
    7    7    3    1       -0.0000000002
    7    7    4    1        0.0065788530
    7    7    5    1       -0.0048106758
    7    7    6    1        0.0098804512
    7    7    7    1       -0.0147302718
    7    7    2    2        0.6371515378
    7    7    3    2        0.0000000132
    7    7    4    2        0.0698358324
    7    7    5    2       -0.0124543495
    7    7    6    2       -0.0048860520
    7    7    7    2       -0.0329450854
    7    7    3    3        0.6309849889
    7    7    4    3       -0.0000000445
    7    7    5    3        0.0000000069
    7    7    6    3       -0.0000000047
    7    7    7    3       -0.0000000538
    7    7    4    4        0.7458358988
    7    7    5    4        0.0075865431
    7    7    6    4       -0.0120464735
    7    7    7    4       -0.1291929330
    7    7    5    5        0.5503438661
    7    7    6    5       -0.1898369503
    7    7    7    5        0.0018796569
    7    7    6    6        0.5725979237
    7    7    7    6        0.0129035041
    7    7    7    7        0.7897715907
    8    7    1    1       -0.0000001140
    8    7    2    1       -0.0000000002
    8    7    3    1        0.0069235855
    8    7    4    1       -0.0000000033
    8    7    5    1        0.0000000008
    8    7    6    1       -0.0000000020
    8    7    7    1        0.0000000054
    8    7    8    1       -0.0105921155
    8    7    2    2       -0.0000000343
    8    7    3    2        0.0241679778
    8    7    4    2       -0.0000000164
    8    7    5    2        0.0000000044
    8    7    6    2       -0.0000000018
    8    7    7    2        0.0000000080
    8    7    8    2       -0.0090684185
    8    7    3    3       -0.0000000334
    8    7    4    3        0.0280468922
    8    7    5    3        0.0036642424
    8    7    6    3       -0.0034164045
    8    7    7    3       -0.0180469992
    8    7    8    3        0.0000000313
    8    7    4    4       -0.0000000709
    8    7    5    4       -0.0000000028
    8    7    6    4        0.0000000041
    8    7    7    4        0.0000000134
    8    7    8    4       -0.0066043642
    8    7    5    5       -0.0000000299
    8    7    6    5        0.0000000252
    8    7    7    5        0.0000000026
    8    7    8    5        0.0003004477
    8    7    6    6       -0.0000000343
    8    7    7    6       -0.0000000040
    8    7    8    6        0.0060342703
    8    7    7    7       -0.0000000726
    8    7    8    7        0.0302662973
    8    8    1    1        1.0497425743
    8    8    2    1        0.0133994084
    8    8    3    1       -0.0000000124
    8    8    4    1       -0.0048675756
    8    8    5    1       -0.0039951176
    8    8    6    1        0.0075154475
    8    8    7    1        0.0070345346
    8    8    8    1        0.0000000105
    8    8    2    2        0.6329812737
    8    8    3    2       -0.0000000092
    8    8    4    2        0.0071889042
    8    8    5    2        0.0064116744
    8    8    6    2       -0.0144437359
    8    8    7    2       -0.0106926749
    8    8    8    2        0.0000000276
    8    8    3    3        0.6501663687
    8    8    4    3       -0.0000000206
    8    8    5    3       -0.0000000143
    8    8    6    3        0.0000000042
    8    8    7    3       -0.0000000055
    8    8    8    3       -0.1909577071
    8    8    4    4        0.5648131690
    8    8    5    4        0.0094228081
    8    8    6    4       -0.0116895249
    8    8    7    4       -0.1598299054
    8    8    8    4        0.0000000202
    8    8    5    5        0.5459956376
    8    8    6    5       -0.1625388979
    8    8    7    5        0.0093341218
    8    8    8    5        0.0000000139
    8    8    6    6        0.5715498978
    8    8    7    6       -0.0018146433
    8    8    8    6       -0.0000000425
    8    8    7    7        0.5889433649
    8    8    8    7       -0.0000000497
    8    8    8    8        0.6130531406
 end_two_electron_integrals
 enrep_tce =    8.4896169617410635     
  EHF(A)             =       -76.03298461
  EHF(total)         =       -76.03298461
  Shift (HFtot-HFA)  =        -0.00000000
 Cpu & wall time / sec            2.2            2.3
 T1-number-of-tasks                   15

 t1 file size   =               15
 t1 file name   = ./H2O.t1
 t1 file handle =       -998
 T2-number-of-boxes                  315

 t2 file size   =              315
 t2 file name   = ./H2O.t2
 t2 file handle =       -996
CCSD iterations
 ---------------------------------------------------------
 Iter          Residuum       Correlation     Cpu    Wall 
 ---------------------------------------------------------
NEW TASK SCHEDULING
CCSD_T1_NTS --- OK
CCSD_T2_NTS --- OK
    1   0.7511163055974  -0.2441507431892     4.5     6.2
    2   1.2111833313612   0.1237236554616     4.5     6.5
    3   1.9684271003019  -0.4667737465064     4.9     6.7
    4   3.3218017648777   0.4815744183958     4.3     6.2
    5   5.2953982545423  -1.1004524400225     4.8     6.7
 MICROCYCLE DIIS UPDATE:                    5                    5
    6   0.0125418013998  -0.1002735023919     4.6     6.5
    7   0.0112550142258  -0.1001485671702     4.8     6.7
    8   0.0182443832393  -0.1008690674616     4.8     6.7
    9   0.0341122087865  -0.0990231893168     5.0     7.0
   10   0.0669201461085  -0.1003003058782     4.6     6.3
 MICROCYCLE DIIS UPDATE:                   10                    5
   11   0.0002256313197  -0.1004279989088     4.7     6.4
   12   0.0002287356013  -0.1004643162294     4.9     6.5
   13   0.0003529422929  -0.1004048560087     4.8     6.6
   14   0.0006326644497  -0.1005013291611     4.4     6.2
   15   0.0011877188493  -0.1003442195957     4.7     6.5
 MICROCYCLE DIIS UPDATE:                   15                    5
   16   0.0000072897813  -0.1004419536652     5.0     6.7
   17   0.0000055976603  -0.1004410989191     4.3     6.2
   18   0.0000096390996  -0.1004426273898     4.7     6.3
   19   0.0000179987585  -0.1004400982485     4.6     6.5
   20   0.0000344111834  -0.1004442245640     4.9     6.8
 MICROCYCLE DIIS UPDATE:                   20                    5
   21   0.0000002318264  -0.1004416552131     4.7     6.5
   22   0.0000002191476  -0.1004416984189     4.8     6.5
   23   0.0000003198745  -0.1004416352073     4.7     6.5
   24   0.0000005470997  -0.1004417324505     4.6     6.4
   25   0.0000010063593  -0.1004415779787     4.7     6.6
 MICROCYCLE DIIS UPDATE:                   25                    5
   26   0.0000000078956  -0.1004416736931     4.5     6.2
 -----------------------------------------------------------------
 Iterations converged
 CCSD correlation energy / hartree =        -0.100441673693059
 CCSD total energy / hartree       =       -76.133426287431845

 Singles contributions

 Doubles contributions
     6a   (alpha)     7a   (alpha) ---     4a   (alpha)     5a   (alpha)        0.0237275237
     6a   (alpha)     8a   (alpha) ---     3a   (alpha)     5a   (alpha)        0.0308154694
     6a   (alpha)     6a   (beta ) ---     5a   (alpha)     5a   (beta )       -0.1057601399
     6a   (alpha)     7a   (beta ) ---     5a   (alpha)     4a   (beta )       -0.0356968602
     6a   (alpha)     8a   (beta ) ---     5a   (alpha)     3a   (beta )       -0.0417225575
     7a   (alpha)     8a   (alpha) ---     3a   (alpha)     4a   (alpha)        0.0299167132
     7a   (alpha)     6a   (beta ) ---     4a   (alpha)     5a   (beta )       -0.0356968602
     7a   (alpha)     7a   (beta ) ---     4a   (alpha)     4a   (beta )       -0.0841227376
     7a   (alpha)     8a   (beta ) ---     4a   (alpha)     3a   (beta )       -0.0401511721
     8a   (alpha)     6a   (beta ) ---     3a   (alpha)     5a   (beta )       -0.0417225575
     8a   (alpha)     7a   (beta ) ---     3a   (alpha)     4a   (beta )       -0.0401511721
     8a   (alpha)     8a   (beta ) ---     3a   (alpha)     3a   (beta )       -0.0577665713
 Ground state specification:
 exp(T)|Ref>~(1+T)|Ref>
 ------- a(p)+/a(q) strings ----------

 singles norm

 doubles norm

 Reference string
  0.99445387916315564      :(1a)+ (2a)+ (3a)+ (4a)+ (5a)+ (1b)+ (2b)+ (3b)+ (4b)+ (5b)+ |0>

 Singles strings

 Doubles strings
 -0.10517358136600678      :(6a)+ (6b)+ (5b)  (5a)  (1a)+ (2a)+ (3a)+ (4a)+ (5a)+ (1b)+ (2b)+ (3b)+ (4b)+ (5b)+ |0>
 -------------------------------------

 Parallel integral file used      16 records with       0 large values


 Task  times  cpu:      125.5s     wall:      173.1s


                                NWChem Input Module
                                -------------------


 Summary of allocated global arrays
-----------------------------------
  No active global arrays


MA_summarize_allocated_blocks: starting scan ...
MA_summarize_allocated_blocks: scan completed: 0 heap blocks, 0 stack blocks
MA usage statistics:

	allocation statistics:
					      heap	     stack
					      ----	     -----
	current number of blocks	         0	         0
	maximum number of blocks	        18	        42
	current total bytes		         0	         0
	maximum total bytes		  25775928	  38234424
	maximum total K-bytes		     25776	     38235
	maximum total M-bytes		        26	        39


                                     CITATION
                                     --------
                Please cite the following reference when publishing
                           results obtained with NWChem:

          E. Apra, E. J. Bylaska, W. A. de Jong, N. Govind, K. Kowalski,
       T. P. Straatsma, M. Valiev, H. J. J. van Dam, Y. Alexeev, J. Anchell,
       V. Anisimov, F. W. Aquino, R. Atta-Fynn, J. Autschbach, N. P. Bauman,
     J. C. Becca, D. E. Bernholdt, K. Bhaskaran-Nair, S. Bogatko, P. Borowski,
         J. Boschen, J. Brabec, A. Bruner, E. Cauet, Y. Chen, G. N. Chuev,
      C. J. Cramer, J. Daily, M. J. O. Deegan, T. H. Dunning Jr., M. Dupuis,
   K. G. Dyall, G. I. Fann, S. A. Fischer, A. Fonari, H. Fruchtl, L. Gagliardi,
      J. Garza, N. Gawande, S. Ghosh, K. Glaesemann, A. W. Gotz, J. Hammond,
       V. Helms, E. D. Hermes, K. Hirao, S. Hirata, M. Jacquelin, L. Jensen,
   B. G. Johnson, H. Jonsson, R. A. Kendall, M. Klemm, R. Kobayashi, V. Konkov,
      S. Krishnamoorthy, M. Krishnan, Z. Lin, R. D. Lins, R. J. Littlefield,
      A. J. Logsdail, K. Lopata, W. Ma, A. V. Marenich, J. Martin del Campo,
   D. Mejia-Rodriguez, J. E. Moore, J. M. Mullin, T. Nakajima, D. R. Nascimento,
    J. A. Nichols, P. J. Nichols, J. Nieplocha, A. Otero-de-la-Roza, B. Palmer,
    A. Panyala, T. Pirojsirikul, B. Peng, R. Peverati, J. Pittner, L. Pollack,
   R. M. Richard, P. Sadayappan, G. C. Schatz, W. A. Shelton, D. W. Silverstein,
   D. M. A. Smith, T. A. Soares, D. Song, M. Swart, H. L. Taylor, G. S. Thomas,
            V. Tipparaju, D. G. Truhlar, K. Tsemekhman, T. Van Voorhis,
      A. Vazquez-Mayagoitia, P. Verma, O. Villa, A. Vishnu, K. D. Vogiatzis,
        D. Wang, J. H. Weare, M. J. Williamson, T. L. Windus, K. Wolinski,
        A. T. Wong, Q. Wu, C. Yang, Q. Yu, M. Zacharias, Z. Zhang, Y. Zhao,
                                and R. J. Harrison
                        "NWChem: Past, present, and future
                         J. Chem. Phys. 152, 184102 (2020)
                               doi:10.1063/5.0004997

                                      AUTHORS
                                      -------
  E. Apra, E. J. Bylaska, N. Govind, K. Kowalski, M. Valiev, D. Mejia-Rodriguez,
       A. Kunitsa, N. P. Bauman, A. Panyala, W. A. de Jong, T. P. Straatsma,
        H. J. J. van Dam, D. Wang, T. L. Windus, J. Hammond, J. Autschbach,
    K. Bhaskaran-Nair, J. Brabec, K. Lopata, S. A. Fischer, S. Krishnamoorthy,
     M. Jacquelin, W. Ma, M. Klemm, O. Villa, Y. Chen, V. Anisimov, F. Aquino,
    S. Hirata, M. T. Hackler, Eric Hermes, L. Jensen, J. E. Moore, J. C. Becca,
      V. Konjkov, T. Risthaus, M. Malagoli, A. Marenich, A. Otero-de-la-Roza,
        J. Mullin, P. Nichols, R. Peverati, J. Pittner, Y. Zhao, P.-D. Fan,
        A. Fonari, M. J. Williamson, R. J. Harrison, J. R. Rehr, M. Dupuis,
     D. Silverstein, D. M. A. Smith, J. Nieplocha, V. Tipparaju, M. Krishnan,
     B. E. Van Kuiken, A. Vazquez-Mayagoitia, M. Swart, Q. Wu, T. Van Voorhis,
     A. A. Auer, M. Nooijen, L. D. Crosby, E. Brown, G. Cisneros, G. I. Fann,
   H. Fruchtl, J. Garza, K. Hirao, R. A. Kendall, J. A. Nichols, K. Tsemekhman,
    K. Wolinski, J. Anchell, D. E. Bernholdt, P. Borowski, T. Clark, D. Clerc,
   H. Dachsel, M. J. O. Deegan, K. Dyall, D. Elwood, E. Glendening, M. Gutowski,
   A. C. Hess, J. Jaffe, B. G. Johnson, J. Ju, R. Kobayashi, R. Kutteh, Z. Lin,
   R. Littlefield, X. Long, B. Meng, T. Nakajima, S. Niu, L. Pollack, M. Rosing,
   K. Glaesemann, G. Sandrone, M. Stave, H. Taylor, G. Thomas, J. H. van Lenthe,
                               A. T. Wong, Z. Zhang.

 Total times  cpu:      134.4s     wall:      188.5s
