 argument  1 = input.nw
  NWChem w/ OpenMP: maximum threads =    1



============================== echo of input deck ==============================
 echo
 start H2O
 title "H2O"

 memory total 24 gb

 geometry units bohr
 symmetry c1
        O  0.00000000  0.00000000  0.00000000
        H  0.00000000  2.20292275  0.00000000
        H  1.72558000 -0.64860000  0.00000000
 end

 basis spherical
   * library cc-pVTZ
 end

 mcscf
   active  8
   actelec 10
   multiplicity 1
   maxiter 40
   vectors input h2o.mos
   vectors output h2o.mos
 end

 task mcscf

 scf
   vectors input h2o.mos
   vectors output h2o-trash.mos
   noscf
 end

 tce
   2eorb
   2emet 13
   ccsd
 end

 set tce:print_integrals T
 set tce:qorb 8
 set tce:qela 5
 set tce:qelb 5

# set tce:qducc T
# set tce:nactv 3
# set tce:nonhf T
# set tce:ducc_model 3

 set tce:printtol 0.02

 task tce
================================================================================


                                         
                                         


             Northwest Computational Chemistry Package (NWChem) 7.0.1
             --------------------------------------------------------


                    Environmental Molecular Sciences Laboratory
                       Pacific Northwest National Laboratory
                                Richland, WA 99352

                              Copyright (c) 1994-2020
                       Pacific Northwest National Laboratory
                            Battelle Memorial Institute

             NWChem is an open-source computational chemistry package
                        distributed under the terms of the
                      Educational Community License (ECL) 2.0
             A copy of the license is included with this distribution
                              in the LICENSE.TXT file

                                  ACKNOWLEDGMENT
                                  --------------

            This software and its documentation were developed at the
            EMSL at Pacific Northwest National Laboratory, a multiprogram
            national laboratory, operated for the U.S. Department of Energy
            by Battelle under Contract Number DE-AC05-76RL01830. Support
            for this work was provided by the Department of Energy Office
            of Biological and Environmental Research, Office of Basic
            Energy Sciences, and the Office of Advanced Scientific Computing.


           Job information
           ---------------

    hostname        = WE46210
    program         = /home/baum612/code/nwchem/bin/LINUX64/nwchem
    date            = Tue Feb 20 14:46:52 2024

    compiled        = Fri_Feb_16_11:09:52_2024
    source          = /home/baum612/code/nwchem
    nwchem branch   = 7.0.0
    nwchem revision = nwchem_on_git-4191-g39d87d64de
    ga revision     = 5.8.1
    use scalapack   = F
    input           = input.nw
    prefix          = H2O.
    data base       = ./H2O.db
    status          = startup
    nproc           =        1
    time left       =     -1s



           Memory information
           ------------------

    heap     =  805306366 doubles =   6144.0 Mbytes
    stack    =  805306363 doubles =   6144.0 Mbytes
    global   = 1610612736 doubles =  12288.0 Mbytes (distinct from heap & stack)
    total    = 3221225465 doubles =  24576.0 Mbytes
    verify   = yes
    hardfail = no 


           Directory information
           ---------------------

  0 permanent = .
  0 scratch   = .




                                NWChem Input Module
                                -------------------


                                        H2O
                                        ---
 Turning off AUTOSYM since
 SYMMETRY directive was detected!


          ------
          auto-z
          ------
  no constraints, skipping    0.0000000000000000     
  no constraints, skipping    0.0000000000000000     


                             Geometry "geometry" -> ""
                             -------------------------

 Output coordinates in a.u. (scale by  1.000000000 to convert to a.u.)

  No.       Tag          Charge          X              Y              Z
 ---- ---------------- ---------- -------------- -------------- --------------
    1 O                    8.0000    -0.17255800    -0.15543228     0.00000000
    2 H                    1.0000    -0.17255800     2.04749048     0.00000000
    3 H                    1.0000     1.55302200    -0.80403228     0.00000000

      Atomic Mass 
      ----------- 

      O                 15.994910
      H                  1.007825


 Effective nuclear repulsion energy (a.u.)       8.2712590648

            Nuclear Dipole moment (a.u.) 
            ----------------------------
        X                 Y               Z
 ---------------- ---------------- ----------------
    -0.0000000000     0.0000000000     0.0000000000



                                Z-matrix (autoz)
                                -------- 

 Units are Angstrom for bonds and degrees for angles

      Type          Name      I     J     K     L     M      Value
      ----------- --------  ----- ----- ----- ----- ----- ----------
    1 Stretch                  1     2                       1.16574
    2 Stretch                  1     3                       0.97551
    3 Bend                     2     1     3               110.59992


            XYZ format geometry
            -------------------
     3
 geometry
 O                    -0.09131377    -0.08225122     0.00000000
 H                    -0.09131377     1.08348538     0.00000000
 H                     0.82182391    -0.42547559     0.00000000

 ==============================================================================
                                internuclear distances
 ------------------------------------------------------------------------------
       center one      |      center two      | atomic units |       a.u.
 ------------------------------------------------------------------------------
    3 H                |   1 O                |     1.84345  |     1.84345
 ------------------------------------------------------------------------------
                         number of included internuclear distances:          1
 ==============================================================================





 Summary of "ao basis" -> "" (spherical)
 ------------------------------------------------------------------------------
       Tag                 Description            Shells   Functions and Types
 ---------------- ------------------------------  ------  ---------------------
 *                          cc-pVTZ                   on all atoms 


                      Basis "ao basis" -> "ao basis" (spherical)
                      -----
  O (Oxygen)
  ----------
            Exponent  Coefficients 
       -------------- ---------------------------------------------------------
  1 S  1.53300000E+04  0.000508
  1 S  2.29900000E+03  0.003929
  1 S  5.22400000E+02  0.020243
  1 S  1.47300000E+02  0.079181
  1 S  4.75500000E+01  0.230687
  1 S  1.67600000E+01  0.433118
  1 S  6.20700000E+00  0.350260
  1 S  6.88200000E-01 -0.008154

  2 S  1.53300000E+04 -0.000115
  2 S  2.29900000E+03 -0.000895
  2 S  5.22400000E+02 -0.004636
  2 S  1.47300000E+02 -0.018724
  2 S  4.75500000E+01 -0.058463
  2 S  1.67600000E+01 -0.136463
  2 S  6.20700000E+00 -0.175740
  2 S  6.88200000E-01  0.603418

  3 S  1.75200000E+00  1.000000

  4 S  2.38400000E-01  1.000000

  5 P  3.44600000E+01  0.015928
  5 P  7.74900000E+00  0.099740
  5 P  2.28000000E+00  0.310492

  6 P  7.15600000E-01  1.000000

  7 P  2.14000000E-01  1.000000

  8 D  2.31400000E+00  1.000000

  9 D  6.45000000E-01  1.000000

 10 F  1.42800000E+00  1.000000

  H (Hydrogen)
  ------------
            Exponent  Coefficients 
       -------------- ---------------------------------------------------------
  1 S  3.38700000E+01  0.006068
  1 S  5.09500000E+00  0.045308
  1 S  1.15900000E+00  0.202822

  2 S  3.25800000E-01  1.000000

  3 S  1.02700000E-01  1.000000

  4 P  1.40700000E+00  1.000000

  5 P  3.88000000E-01  1.000000

  6 D  1.05700000E+00  1.000000



 Summary of "ao basis" -> "ao basis" (spherical)
 ------------------------------------------------------------------------------
       Tag                 Description            Shells   Functions and Types
 ---------------- ------------------------------  ------  ---------------------
 O                          cc-pVTZ                 10       30   4s3p2d1f
 H                          cc-pVTZ                  6       14   3s2p1d



                            NWChem Direct MCSCF Module
                            --------------------------


                                        H2O


     -----------------------------------
       Basis functions:             58
       Inactive shells:              0
       Active shells:                8
       Active electrons:            10
       Symmetry:                    a       
       Multiplicity:                 1
       Orbital rotations:          400
     -----------------------------------

     -----------------------------------
       E2 extrapolation:             F
       Conjugacy:                    T
       Micro CI relax:               T
       Canonical orbitals:           T
       Maximum iterations:          40
       Converge threshold:    1.00E-04
       Conjugacy resets:            20
       Initial levelshift:        0.10
     -----------------------------------

 Loading old vectors from job with title :

H2O


   input molecular orbitals = ./h2o.mos
  output molecular orbtials = ./h2o.mos

       No. of determinants:          3136


  Starting Orbital Energies
   -20.557809    -1.308837    -0.693765    -0.565438    -0.519121    -0.034516
    -0.025843    -0.015761     0.309236     0.335748     0.610267     0.696263
     0.819943     0.824288     0.971069     1.112062     1.186696     1.249365
     1.407942     1.928420     2.050466     2.082941     2.159724     2.305662
     2.613225     2.819092     3.342661     3.453679     3.464155     3.501043
     3.562363     3.702143     3.841586     3.878002     3.894316     4.002606
     4.077067     4.149690     4.237982     4.283528     4.515774     4.611723
     4.946635     5.133703     5.519966     5.837279     6.088418     6.344381
     6.766125     6.884923     6.978660     7.008819     7.095799     7.140348
     7.356191     7.553656     7.777762    11.452769

  Orbital Symmetry Irreps
a    a    a    a    a    a    a    a    a    a    a    a    a    a    a   
a    a    a    a    a    a    a    a    a    a    a    a    a    a    a   
a    a    a    a    a    a    a    a    a    a    a    a    a    a    a   
a    a    a    a    a    a    a    a    a    a    a    a    a   

 Integral file          = ./H2O.aoints.0
 Record size in doubles =  65536        No. of integs per rec  =  43688
 Max. records in memory =     49        Max. records in file   = 252441
 No. of bits per label  =      8        No. of bits per value  =     64


 #quartets = 3.213D+04 #integrals = 6.608D+05 #direct =  0.0% #cached =100.0%




          %%%%% MacroIteration   1 %%%%%


          Number of sigma calls:       15
                       o<<<<< (aa):             0.00
                       o<<<<< (bb):             0.01
                       o<<<<< (ab):             0.13
                       o<<<<< (total)           0.14
                       o<<<<< (aa) ff           0.00
                       o<<<<< (aa) gop          0.00
                       o<<<<< (aa) dot          0.00
                       o<<<<< (ab) str          0.00
                       o<<<<< (ab) gath         0.00
                       o<<<<< (ab) dotab        0.00
                       o<<<<< (ab) scat         0.00
                       o<<<<< (ab) sync         0.00
                       o<<<<< Density           0.02
                       o<<<<< Density one       0.00
                       o<<<<< Density two       0.01
                       o<<<<< Density ab        0.01
                       o<<<<< Spin adapt        0.59
                       o<<<<< Symm adapt        0.00

                       o<<<<< (ab) max sync:      0.00

           >>>| Valence CI:            -84.393312566484
           >>>| MCSCF energy:          -76.122053501658
           >>>| Gradient norm:          0.744236739D-02

                              ----- Line search ------

        step       energy         lsg     num-lsg   num-lsh   lsrat    time
      ------- ---------------- --------- --------- --------- ------- --------
       0.0000     -76.12205350 -6.41D-06  0.00D+00  0.00D+00 0.0D+00      2.2

          Number of sigma calls:       14
                       o<<<<< (aa):             0.00
                       o<<<<< (bb):             0.01
                       o<<<<< (ab):             0.13
                       o<<<<< (total)           0.14
                       o<<<<< (aa) ff           0.00
                       o<<<<< (aa) gop          0.00
                       o<<<<< (aa) dot          0.00
                       o<<<<< (ab) str          0.00
                       o<<<<< (ab) gath         0.00
                       o<<<<< (ab) dotab        0.00
                       o<<<<< (ab) scat         0.00
                       o<<<<< (ab) sync         0.00
                       o<<<<< Density           0.01
                       o<<<<< Density one       0.00
                       o<<<<< Density two       0.00
                       o<<<<< Density ab        0.01
                       o<<<<< Spin adapt        0.61
                       o<<<<< Symm adapt        0.00

                       o<<<<< (ab) max sync:      0.00
       1.0000     -76.12205687 -3.20D-07 -3.20D-07  6.09D-06 5.0D-02      3.1
     --- Orbitals canonicalized ---



          %%%%% MacroIteration   2 %%%%%


          Number of sigma calls:       12
                       o<<<<< (aa):             0.00
                       o<<<<< (bb):             0.00
                       o<<<<< (ab):             0.12
                       o<<<<< (total)           0.12
                       o<<<<< (aa) ff           0.00
                       o<<<<< (aa) gop          0.00
                       o<<<<< (aa) dot          0.00
                       o<<<<< (ab) str          0.00
                       o<<<<< (ab) gath         0.00
                       o<<<<< (ab) dotab        0.00
                       o<<<<< (ab) scat         0.00
                       o<<<<< (ab) sync         0.00
                       o<<<<< Density           0.03
                       o<<<<< Density one       0.00
                       o<<<<< Density two       0.01
                       o<<<<< Density ab        0.01
                       o<<<<< Spin adapt        0.57
                       o<<<<< Symm adapt        0.00

                       o<<<<< (ab) max sync:      0.00

           >>>| Valence CI:            -84.393315933302
           >>>| MCSCF energy:          -76.122056868476
           >>>| Gradient norm:          0.707328979D-03
     --- Warning:    2 Hessian diagonals < 0.05 ---
     --- Conjugacy reset ---

                              ----- Line search ------

        step       energy         lsg     num-lsg   num-lsh   lsrat    time
      ------- ---------------- --------- --------- --------- ------- --------
       0.0000     -76.12205687 -1.02D-07  0.00D+00  0.00D+00 0.0D+00      4.3

          Number of sigma calls:       10
                       o<<<<< (aa):             0.00
                       o<<<<< (bb):             0.00
                       o<<<<< (ab):             0.09
                       o<<<<< (total)           0.09
                       o<<<<< (aa) ff           0.00
                       o<<<<< (aa) gop          0.00
                       o<<<<< (aa) dot          0.00
                       o<<<<< (ab) str          0.00
                       o<<<<< (ab) gath         0.00
                       o<<<<< (ab) dotab        0.00
                       o<<<<< (ab) scat         0.00
                       o<<<<< (ab) sync         0.00
                       o<<<<< Density           0.02
                       o<<<<< Density one       0.00
                       o<<<<< Density two       0.01
                       o<<<<< Density ab        0.01
                       o<<<<< Spin adapt        0.47
                       o<<<<< Symm adapt        0.00

                       o<<<<< (ab) max sync:      0.00
       1.0000     -76.12205694 -3.62D-08 -3.62D-08  6.59D-08 3.5D-01      5.1

          Number of sigma calls:       10
                       o<<<<< (aa):             0.00
                       o<<<<< (bb):             0.01
                       o<<<<< (ab):             0.10
                       o<<<<< (total)           0.11
                       o<<<<< (aa) ff           0.00
                       o<<<<< (aa) gop          0.00
                       o<<<<< (aa) dot          0.00
                       o<<<<< (ab) str          0.00
                       o<<<<< (ab) gath         0.00
                       o<<<<< (ab) dotab        0.00
                       o<<<<< (ab) scat         0.00
                       o<<<<< (ab) sync         0.00
                       o<<<<< Density           0.03
                       o<<<<< Density one       0.01
                       o<<<<< Density two       0.00
                       o<<<<< Density ab        0.02
                       o<<<<< Spin adapt        0.49
                       o<<<<< Symm adapt        0.00

                       o<<<<< (ab) max sync:      0.00
       1.5489     -76.12205695  4.98D-11  4.84D-11  6.60D-08 4.9D-04      6.0



          %%%%% MacroIteration   3 %%%%%


          Number of sigma calls:        1
                       o<<<<< (aa):             0.00
                       o<<<<< (bb):             0.00
                       o<<<<< (ab):             0.01
                       o<<<<< (total)           0.01
                       o<<<<< (aa) ff           0.00
                       o<<<<< (aa) gop          0.00
                       o<<<<< (aa) dot          0.00
                       o<<<<< (ab) str          0.00
                       o<<<<< (ab) gath         0.00
                       o<<<<< (ab) dotab        0.00
                       o<<<<< (ab) scat         0.00
                       o<<<<< (ab) sync         0.00
                       o<<<<< Density           0.02
                       o<<<<< Density one       0.01
                       o<<<<< Density two       0.00
                       o<<<<< Density ab        0.01
                       o<<<<< Spin adapt        0.00
                       o<<<<< Symm adapt        0.00

                       o<<<<< (ab) max sync:      0.00

           >>>| Valence CI:            -84.393316012323
           >>>| MCSCF energy:          -76.122056947497
           >>>| Gradient norm:          0.982228349D-04




     ==============================
            MCSCF Converged
     ==============================



          Canonical Eigenvalues

              1      
    1  -20.5581
    2   -1.3082
    3   -0.6929
    4   -0.5649
    5   -0.5191
    6   -0.0348
    7   -0.0259
    8   -0.0157
    9    0.3095
   10    0.3358
   11    0.6102
   12    0.6975
   13    0.8203
   14    0.8238
   15    0.9710
   16    1.1107
   17    1.1859
   18    1.2485
   19    1.4082
   20    1.9263
   21    2.0504
   22    2.0818
   23    2.1604
   24    2.3075
   25    2.6150
   26    2.8178
   27    3.3422
   28    3.4525
   29    3.4633
   30    3.4994
   31    3.5628
   32    3.6979
   33    3.8348
   34    3.8773
   35    3.8933
   36    4.0024
   37    4.0768
   38    4.1450
   39    4.2344
   40    4.2806
   41    4.5137
   42    4.6087
   43    4.9453
   44    5.1306
   45    5.5184
   46    5.8347
   47    6.0819
   48    6.3326
   49    6.7632
   50    6.8845
   51    6.9780
   52    7.0072
   53    7.0956
   54    7.1395
   55    7.3487
   56    7.5531
   57    7.7701
   58   11.4323


          Converged CI vector

   Index           Coefficient          Config. Occupation
         1          0.96972358          1  2  3  4  5  1  2  3  4  5
        22         -0.07426004          1  2  3  4  5  1  2  3  4  8
         3         -0.04737764          1  2  3  4  5  1  2  3  5  6
         8         -0.02681199          1  2  3  4  5  1  2  3  5  7
        27          0.02063757          1  2  3  4  5  1  2  3  6  8
         4         -0.02890889          1  2  3  4  5  1  2  4  5  6
         9          0.03844990          1  2  3  4  5  1  2  4  5  7
        38         -0.02177408          1  2  3  4  5  1  2  4  7  8
      1177         -0.07426004          1  2  3  4  8  1  2  3  4  5
      1198         -0.05160353          1  2  3  4  8  1  2  3  4  8
      1179         -0.02653504          1  2  3  4  8  1  2  3  5  6
      1180         -0.02212244          1  2  3  4  8  1  2  4  5  6
      1185          0.02910258          1  2  3  4  8  1  2  4  5  7
       113         -0.04737764          1  2  3  5  6  1  2  3  4  5
       134         -0.02653504          1  2  3  5  6  1  2  3  4  8
       115         -0.06436331          1  2  3  5  6  1  2  3  5  6
       116         -0.04633464          1  2  3  5  6  1  2  4  5  6
       117         -0.02053514          1  2  3  5  6  1  3  4  5  6
       393         -0.02681199          1  2  3  5  7  1  2  3  4  5
       400         -0.02247171          1  2  3  5  7  1  2  3  5  7
       401          0.02662290          1  2  3  5  7  1  2  4  5  7
      1457          0.02063757          1  2  3  6  8  1  2  3  4  5
       169         -0.02890889          1  2  4  5  6  1  2  3  4  5
       190         -0.02212244          1  2  4  5  6  1  2  3  4  8
       171         -0.04633464          1  2  4  5  6  1  2  3  5  6
       172         -0.04850199          1  2  4  5  6  1  2  4  5  6
       173         -0.02172831          1  2  4  5  6  1  3  4  5  6
       449          0.03844990          1  2  4  5  7  1  2  3  4  5
       470          0.02910258          1  2  4  5  7  1  2  3  4  8
       456          0.02662290          1  2  4  5  7  1  2  3  5  7
       457         -0.05267673          1  2  4  5  7  1  2  4  5  7
       458          0.02439726          1  2  4  5  7  1  3  4  5  7
      2073         -0.02177408          1  2  4  7  8  1  2  3  4  5
       227         -0.02053514          1  3  4  5  6  1  2  3  5  6
       228         -0.02172831          1  3  4  5  6  1  2  4  5  6
       229         -0.02322702          1  3  4  5  6  1  3  4  5  6
       513          0.02439726          1  3  4  5  7  1  2  4  5  7
       514         -0.02370843          1  3  4  5  7  1  3  4  5  7

          Number of sigma calls:        1
                       o<<<<< (aa):             0.00
                       o<<<<< (bb):             0.00
                       o<<<<< (ab):             0.01
                       o<<<<< (total)           0.01
                       o<<<<< (aa) ff           0.00
                       o<<<<< (aa) gop          0.00
                       o<<<<< (aa) dot          0.00
                       o<<<<< (ab) str          0.00
                       o<<<<< (ab) gath         0.00
                       o<<<<< (ab) dotab        0.00
                       o<<<<< (ab) scat         0.00
                       o<<<<< (ab) sync         0.00
                       o<<<<< Density           0.01
                       o<<<<< Density one       0.00
                       o<<<<< Density two       0.01
                       o<<<<< Density ab        0.00
                       o<<<<< Spin adapt        0.00
                       o<<<<< Symm adapt        0.00

                       o<<<<< (ab) max sync:      0.00



          Natural orbital occupation numbers

              1      
    1    2.0000
    2    1.9986
    3    1.9808
    4    1.9754
    5    1.9612
    6    0.0401
    7    0.0253
    8    0.0187


          Number of sigma calls:       15
                       o<<<<< (aa):             0.01
                       o<<<<< (bb):             0.01
                       o<<<<< (ab):             0.13
                       o<<<<< (total)           0.15
                       o<<<<< (aa) ff           0.00
                       o<<<<< (aa) gop          0.00
                       o<<<<< (aa) dot          0.00
                       o<<<<< (ab) str          0.00
                       o<<<<< (ab) gath         0.00
                       o<<<<< (ab) dotab        0.00
                       o<<<<< (ab) scat         0.00
                       o<<<<< (ab) sync         0.00
                       o<<<<< Density           0.02
                       o<<<<< Density one       0.01
                       o<<<<< Density two       0.01
                       o<<<<< Density ab        0.00
                       o<<<<< Spin adapt        0.51
                       o<<<<< Symm adapt        0.00

                       o<<<<< (ab) max sync:      0.00


       Final MCSCF results 
       ------------------- 

       Total MCSCF energy =    -76.122056947496
            Gradient norm =      9.8D-05

    CPU time for solution =      6.9s
   Wall time for solution =     11.7s



                        Analysis of MCSCF natural orbitals
                        ----------------------------------

 Vector    1  Occ=1.999989D+00  E=-2.055814D+01  Symmetry=a
              MO Center= -9.1D-02, -8.2D-02, -7.1D-11, r^2= 1.6D-02
   Bfn.  Coefficient  Atom+Function         Bfn.  Coefficient  Atom+Function  
  ----- ------------  ---------------      ----- ------------  ---------------
     1      0.973109  1 O  s          

 Vector    2  Occ=1.998554D+00  E=-1.308249D+00  Symmetry=a
              MO Center= -2.9D-01, -2.1D-01,  6.6D-08, r^2= 4.2D-01
   Bfn.  Coefficient  Atom+Function         Bfn.  Coefficient  Atom+Function  
  ----- ------------  ---------------      ----- ------------  ---------------
     2      0.524856  1 O  s                  4      0.393535  1 O  s          

 Vector    3  Occ=1.980788D+00  E=-6.928563D-01  Symmetry=a
              MO Center= -6.3D-02, -6.9D-02, -1.9D-07, r^2= 6.5D-01
   Bfn.  Coefficient  Atom+Function         Bfn.  Coefficient  Atom+Function  
  ----- ------------  ---------------      ----- ------------  ---------------
    10      0.432207  1 O  pz                13      0.393801  1 O  pz         
     7      0.360885  1 O  pz         

 Vector    4  Occ=1.975411D+00  E=-5.649435D-01  Symmetry=a
              MO Center=  3.4D-01, -1.9D-01,  8.0D-08, r^2= 6.0D-01
   Bfn.  Coefficient  Atom+Function         Bfn.  Coefficient  Atom+Function  
  ----- ------------  ---------------      ----- ------------  ---------------
     8      0.343603  1 O  px                 5      0.286130  1 O  px         
    46      0.264190  3 H  s                 11      0.205849  1 O  px         
    45      0.183844  3 H  s          

 Vector    5  Occ=1.961171D+00  E=-5.190611D-01  Symmetry=a
              MO Center= -4.4D-02,  4.3D-01,  2.3D-08, r^2= 7.4D-01
   Bfn.  Coefficient  Atom+Function         Bfn.  Coefficient  Atom+Function  
  ----- ------------  ---------------      ----- ------------  ---------------
     9      0.339084  1 O  py                 6      0.271610  1 O  py         
    32      0.268234  2 H  s                 12      0.203321  1 O  py         
    31      0.163088  2 H  s          

 Vector    6  Occ=4.006126D-02  E=-3.478418D-02  Symmetry=a
              MO Center= -4.2D-02,  6.3D-01,  3.4D-08, r^2= 7.3D-01
   Bfn.  Coefficient  Atom+Function         Bfn.  Coefficient  Atom+Function  
  ----- ------------  ---------------      ----- ------------  ---------------
    32      0.576374  2 H  s                  9     -0.464754  1 O  py         
     6     -0.459539  1 O  py                31      0.261165  2 H  s          
     2     -0.258515  1 O  s                 33      0.151703  2 H  s          

 Vector    7  Occ=2.532163D-02  E=-2.585025D-02  Symmetry=a
              MO Center=  5.0D-01, -2.5D-01,  9.0D-08, r^2= 6.6D-01
   Bfn.  Coefficient  Atom+Function         Bfn.  Coefficient  Atom+Function  
  ----- ------------  ---------------      ----- ------------  ---------------
    46      0.655526  3 H  s                  5     -0.517034  1 O  px         
     8     -0.433800  1 O  px                45      0.295482  3 H  s          
     2     -0.281398  1 O  s                  4     -0.200107  1 O  s          

 Vector    8  Occ=1.870465D-02  E=-1.574996D-02  Symmetry=a
              MO Center= -4.3D-03, -2.7D-02, -2.1D-07, r^2= 1.2D+00
   Bfn.  Coefficient  Atom+Function         Bfn.  Coefficient  Atom+Function  
  ----- ------------  ---------------      ----- ------------  ---------------
    13      0.808134  1 O  pz                 7     -0.627470  1 O  pz         
    10     -0.320860  1 O  pz         

 Vector    9  Occ=0.000000D+00  E= 3.095093D-01  Symmetry=a
              MO Center=  5.6D-01, -1.8D-02, -9.5D-08, r^2= 4.7D+00
   Bfn.  Coefficient  Atom+Function         Bfn.  Coefficient  Atom+Function  
  ----- ------------  ---------------      ----- ------------  ---------------
     4      1.789008  1 O  s                 47     -1.470183  3 H  s          
    33     -0.830122  2 H  s                 11      0.711348  1 O  px         
    51      0.469333  3 H  px                38      0.252754  2 H  py         
    32      0.243025  2 H  s                 52     -0.191757  3 H  py         
    12      0.173481  1 O  py         

 Vector   10  Occ=0.000000D+00  E= 3.357909D-01  Symmetry=a
              MO Center=  3.0D-01,  7.6D-01,  3.2D-09, r^2= 5.4D+00
   Bfn.  Coefficient  Atom+Function         Bfn.  Coefficient  Atom+Function  
  ----- ------------  ---------------      ----- ------------  ---------------
    33      1.971788  2 H  s                 47     -1.696889  3 H  s          
    32     -0.678691  2 H  s                 12     -0.539701  1 O  py         
    11      0.364435  1 O  px                46      0.314667  3 H  s          
    51      0.254292  3 H  px                38     -0.228013  2 H  py         

 Vector   11  Occ=0.000000D+00  E= 6.101642D-01  Symmetry=a
              MO Center= -1.0D-01,  3.3D-01,  5.8D-08, r^2= 2.0D+00
   Bfn.  Coefficient  Atom+Function         Bfn.  Coefficient  Atom+Function  
  ----- ------------  ---------------      ----- ------------  ---------------
    46      2.512323  3 H  s                  4     -2.266725  1 O  s          
    11     -1.812862  1 O  px                32      0.766905  2 H  s          
    51     -0.697354  3 H  px                37     -0.286090  2 H  px         
    33     -0.239518  2 H  s                 38     -0.208303  2 H  py         
     9      0.173939  1 O  py         

 Vector   12  Occ=0.000000D+00  E= 6.974708D-01  Symmetry=a
              MO Center= -4.5D-02, -4.1D-01,  1.5D-08, r^2= 2.4D+00
   Bfn.  Coefficient  Atom+Function         Bfn.  Coefficient  Atom+Function  
  ----- ------------  ---------------      ----- ------------  ---------------
    12      2.224277  1 O  py                32     -1.504546  2 H  s          
    46      1.247633  3 H  s                 11     -1.090035  1 O  px         
    47      0.738848  3 H  s                 33     -0.640164  2 H  s          
    38      0.584761  2 H  py                51     -0.365678  3 H  px         
    52      0.335457  3 H  py                23     -0.261571  1 O  d  2       

 Vector   13  Occ=0.000000D+00  E= 8.203023D-01  Symmetry=a
              MO Center= -2.4D-01, -7.6D-02,  9.7D-09, r^2= 2.3D+00
   Bfn.  Coefficient  Atom+Function         Bfn.  Coefficient  Atom+Function  
  ----- ------------  ---------------      ----- ------------  ---------------
     4      1.736305  1 O  s                 11      1.664514  1 O  px         
    46     -1.663110  3 H  s                 32     -1.142927  2 H  s          
    12      1.062157  1 O  py                52     -0.998453  3 H  py         
    37     -0.827416  2 H  px                38      0.490692  2 H  py         
    51      0.200566  3 H  px                 2      0.198107  1 O  s          

 Vector   14  Occ=0.000000D+00  E= 8.237878D-01  Symmetry=a
              MO Center=  2.7D-01,  4.5D-01, -5.2D-09, r^2= 1.8D+00
   Bfn.  Coefficient  Atom+Function         Bfn.  Coefficient  Atom+Function  
  ----- ------------  ---------------      ----- ------------  ---------------
    39      0.844747  2 H  pz                53     -0.728194  3 H  pz         

 Vector   15  Occ=0.000000D+00  E= 9.709647D-01  Symmetry=a
              MO Center=  1.7D-01,  3.0D-02,  7.4D-08, r^2= 2.1D+00
   Bfn.  Coefficient  Atom+Function         Bfn.  Coefficient  Atom+Function  
  ----- ------------  ---------------      ----- ------------  ---------------
    13      1.175587  1 O  pz                53     -1.066978  3 H  pz         
    39     -0.816630  2 H  pz         

 Vector   16  Occ=0.000000D+00  E= 1.110724D+00  Symmetry=a
              MO Center=  2.6D-01,  1.6D-01,  8.7D-09, r^2= 2.3D+00
   Bfn.  Coefficient  Atom+Function         Bfn.  Coefficient  Atom+Function  
  ----- ------------  ---------------      ----- ------------  ---------------
    46     -2.008581  3 H  s                  4      1.958254  1 O  s          
    11      1.381724  1 O  px                12     -1.315262  1 O  py         
    51      1.054149  3 H  px                37     -0.979449  2 H  px         
    52      0.689558  3 H  py                32      0.399496  2 H  s          
    47     -0.382541  3 H  s                  8      0.269959  1 O  px         

 Vector   17  Occ=0.000000D+00  E= 1.185945D+00  Symmetry=a
              MO Center= -3.5D-02,  4.0D-01,  9.8D-08, r^2= 1.9D+00
   Bfn.  Coefficient  Atom+Function         Bfn.  Coefficient  Atom+Function  
  ----- ------------  ---------------      ----- ------------  ---------------
     4      3.939893  1 O  s                 46     -2.179833  3 H  s          
     2     -1.041513  1 O  s                 11      1.033203  1 O  px         
    51      0.959035  3 H  px                32     -0.946730  2 H  s          
    52     -0.864224  3 H  py                47     -0.716596  3 H  s          
     8      0.700235  1 O  px                 1     -0.361455  1 O  s          

 Vector   18  Occ=0.000000D+00  E= 1.248465D+00  Symmetry=a
              MO Center= -2.7D-02,  8.1D-01, -3.7D-08, r^2= 2.2D+00
   Bfn.  Coefficient  Atom+Function         Bfn.  Coefficient  Atom+Function  
  ----- ------------  ---------------      ----- ------------  ---------------
     4      4.976634  1 O  s                 38      2.166756  2 H  py         
    46     -2.082199  3 H  s                 32     -1.639630  2 H  s          
    51      1.297043  3 H  px                12      1.084025  1 O  py         
    33     -0.888982  2 H  s                 11      0.809161  1 O  px         
    52     -0.712953  3 H  py                 8      0.633088  1 O  px         


 Wrote Lagrangian and 1- and 2-particle density matrices to ./H2O.mcpdm


     Multipole analysis of the density
     ---------------------------------

     L   x y z        total        nuclear
     -   - - -        -----        -------
     0   0 0 0     -0.000000     10.000000

     1   1 0 0      0.560426     -0.000000
     1   0 1 0      0.436624      0.000000
     1   0 0 1      0.000000      0.000000

     2   2 0 0     -4.268454      2.679864
     2   1 1 0     -0.837890     -1.387422
     2   1 0 1      0.000000      0.000000
     2   0 2 0     -3.249868      5.031959
     2   0 1 1      0.000000      0.000000
     2   0 0 2     -5.667110      0.000000


  Mulliken analysis of the total density
  --------------------------------------

    Atom       Charge   Shell Charges
 -----------   ------   -------------------------------------------------------
    1 O    8     8.49   1.95  1.01  0.24  0.62  1.26  2.06  1.34  0.00  0.02  0.00
    2 H    1     0.75   0.19  0.40  0.10  0.01  0.05  0.00
    3 H    1     0.76   0.25  0.38  0.04  0.02  0.06  0.01

    Mulliken analysis of the active space density
    ---------------------------------------------

    Atom       Charge   Shell Charges
 -----------   ------   -------------------------------------------------------
    1 O    8     8.49   1.95  1.01  0.24  0.62  1.26  2.06  1.34  0.00  0.02  0.00
    2 H    1     0.75   0.19  0.40  0.10  0.01  0.05  0.00
    3 H    1     0.76   0.25  0.38  0.04  0.02  0.06  0.01

 Parallel integral file used      16 records with       0 large values


 Task  times  cpu:        7.0s     wall:       11.8s


                                NWChem Input Module
                                -------------------


                                 NWChem SCF Module
                                 -----------------


                                        H2O



  ao basis        = "ao basis"
  functions       =    58
  atoms           =     3
  closed shells   =     5
  open shells     =     0
  charge          =   0.00
  wavefunction    = RHF 
  input vectors   = ./h2o.mos
  output vectors  = ./h2o-trash.mos
  use symmetry    = F
  symmetry adapt  = F


 Summary of "ao basis" -> "ao basis" (spherical)
 ------------------------------------------------------------------------------
       Tag                 Description            Shells   Functions and Types
 ---------------- ------------------------------  ------  ---------------------
 O                          cc-pVTZ                 10       30   4s3p2d1f
 H                          cc-pVTZ                  6       14   3s2p1d



 Forming initial guess at      11.9s


 Loading old vectors from job with title :

H2O


 Starting SCF solution at      11.9s



 ----------------------------------------------
         Quadratically convergent ROHF

 Convergence threshold     :          1.000E-04
 Maximum no. of iterations :           30
 Final Fock-matrix accuracy:          1.000E-07
 ----------------------------------------------


 Integral file          = ./H2O.aoints.0
 Record size in doubles =  65536        No. of integs per rec  =  43688
 Max. records in memory =     49        Max. records in file   = 252479
 No. of bits per label  =      8        No. of bits per value  =     64


 #quartets = 3.213D+04 #integrals = 6.608D+05 #direct =  0.0% #cached =100.0%



       Final RHF  results 
       ------------------ 

         Total SCF energy =    -76.017758021111
      One-electron energy =   -121.409133675994
      Two-electron energy =     37.120116590058
 Nuclear repulsion energy =      8.271259064826

        Time for solution =      0.2s


             Final eigenvalues
             -----------------

              1      
    1  -20.5581
    2   -1.3082
    3   -0.6929
    4   -0.5649
    5   -0.5191
    6   -0.0348
    7   -0.0259
    8   -0.0157
    9    0.3095
   10    0.3358
   11    0.6102
   12    0.6975
   13    0.8203
   14    0.8238
   15    0.9710

                       ROHF Final Molecular Orbital Analysis
                       -------------------------------------

 Vector    2  Occ=2.000000D+00  E=-1.308249D+00
              MO Center= -2.9D-01, -2.1D-01,  6.6D-08, r^2= 4.2D-01
   Bfn.  Coefficient  Atom+Function         Bfn.  Coefficient  Atom+Function  
  ----- ------------  ---------------      ----- ------------  ---------------
     2      0.524856  1 O  s                  4      0.393535  1 O  s          

 Vector    3  Occ=2.000000D+00  E=-6.928563D-01
              MO Center= -6.3D-02, -6.9D-02, -1.9D-07, r^2= 6.5D-01
   Bfn.  Coefficient  Atom+Function         Bfn.  Coefficient  Atom+Function  
  ----- ------------  ---------------      ----- ------------  ---------------
    10      0.432207  1 O  pz                13      0.393801  1 O  pz         
     7      0.360885  1 O  pz         

 Vector    4  Occ=2.000000D+00  E=-5.649435D-01
              MO Center=  3.4D-01, -1.9D-01,  8.0D-08, r^2= 6.0D-01
   Bfn.  Coefficient  Atom+Function         Bfn.  Coefficient  Atom+Function  
  ----- ------------  ---------------      ----- ------------  ---------------
     8      0.343603  1 O  px                 5      0.286130  1 O  px         
    46      0.264190  3 H  s                 11      0.205849  1 O  px         
    45      0.183844  3 H  s          

 Vector    5  Occ=2.000000D+00  E=-5.190611D-01
              MO Center= -4.4D-02,  4.3D-01,  2.3D-08, r^2= 7.4D-01
   Bfn.  Coefficient  Atom+Function         Bfn.  Coefficient  Atom+Function  
  ----- ------------  ---------------      ----- ------------  ---------------
     9      0.339084  1 O  py                 6      0.271610  1 O  py         
    32      0.268234  2 H  s                 12      0.203321  1 O  py         
    31      0.163088  2 H  s          

 Vector    6  Occ=0.000000D+00  E=-3.478418D-02
              MO Center= -4.2D-02,  6.3D-01,  3.4D-08, r^2= 7.3D-01
   Bfn.  Coefficient  Atom+Function         Bfn.  Coefficient  Atom+Function  
  ----- ------------  ---------------      ----- ------------  ---------------
    32      0.576374  2 H  s                  9     -0.464754  1 O  py         
     6     -0.459539  1 O  py                31      0.261165  2 H  s          
     2     -0.258515  1 O  s                 33      0.151703  2 H  s          

 Vector    7  Occ=0.000000D+00  E=-2.585025D-02
              MO Center=  5.0D-01, -2.5D-01,  9.0D-08, r^2= 6.6D-01
   Bfn.  Coefficient  Atom+Function         Bfn.  Coefficient  Atom+Function  
  ----- ------------  ---------------      ----- ------------  ---------------
    46      0.655526  3 H  s                  5     -0.517034  1 O  px         
     8     -0.433800  1 O  px                45      0.295482  3 H  s          
     2     -0.281398  1 O  s                  4     -0.200107  1 O  s          

 Vector    8  Occ=0.000000D+00  E=-1.574996D-02
              MO Center= -4.3D-03, -2.7D-02, -2.1D-07, r^2= 1.2D+00
   Bfn.  Coefficient  Atom+Function         Bfn.  Coefficient  Atom+Function  
  ----- ------------  ---------------      ----- ------------  ---------------
    13      0.808134  1 O  pz                 7     -0.627470  1 O  pz         
    10     -0.320860  1 O  pz         

 Vector    9  Occ=0.000000D+00  E= 3.095093D-01
              MO Center=  5.6D-01, -1.8D-02, -9.5D-08, r^2= 4.7D+00
   Bfn.  Coefficient  Atom+Function         Bfn.  Coefficient  Atom+Function  
  ----- ------------  ---------------      ----- ------------  ---------------
     4      1.789008  1 O  s                 47     -1.470183  3 H  s          
    33     -0.830122  2 H  s                 11      0.711348  1 O  px         
    51      0.469333  3 H  px                38      0.252754  2 H  py         
    32      0.243025  2 H  s                 52     -0.191757  3 H  py         
    12      0.173481  1 O  py         

 Vector   10  Occ=0.000000D+00  E= 3.357909D-01
              MO Center=  3.0D-01,  7.6D-01,  3.2D-09, r^2= 5.4D+00
   Bfn.  Coefficient  Atom+Function         Bfn.  Coefficient  Atom+Function  
  ----- ------------  ---------------      ----- ------------  ---------------
    33      1.971788  2 H  s                 47     -1.696889  3 H  s          
    32     -0.678691  2 H  s                 12     -0.539701  1 O  py         
    11      0.364435  1 O  px                46      0.314667  3 H  s          
    51      0.254292  3 H  px                38     -0.228013  2 H  py         

 Vector   11  Occ=0.000000D+00  E= 6.101642D-01
              MO Center= -1.0D-01,  3.3D-01,  5.8D-08, r^2= 2.0D+00
   Bfn.  Coefficient  Atom+Function         Bfn.  Coefficient  Atom+Function  
  ----- ------------  ---------------      ----- ------------  ---------------
    46      2.512323  3 H  s                  4     -2.266725  1 O  s          
    11     -1.812862  1 O  px                32      0.766905  2 H  s          
    51     -0.697354  3 H  px                37     -0.286090  2 H  px         
    33     -0.239518  2 H  s                 38     -0.208303  2 H  py         
     9      0.173939  1 O  py         

 Vector   12  Occ=0.000000D+00  E= 6.974708D-01
              MO Center= -4.5D-02, -4.1D-01,  1.5D-08, r^2= 2.4D+00
   Bfn.  Coefficient  Atom+Function         Bfn.  Coefficient  Atom+Function  
  ----- ------------  ---------------      ----- ------------  ---------------
    12      2.224277  1 O  py                32     -1.504546  2 H  s          
    46      1.247633  3 H  s                 11     -1.090035  1 O  px         
    47      0.738848  3 H  s                 33     -0.640164  2 H  s          
    38      0.584761  2 H  py                51     -0.365678  3 H  px         
    52      0.335457  3 H  py                23     -0.261571  1 O  d  2       

 Vector   13  Occ=0.000000D+00  E= 8.203023D-01
              MO Center= -2.4D-01, -7.6D-02,  9.7D-09, r^2= 2.3D+00
   Bfn.  Coefficient  Atom+Function         Bfn.  Coefficient  Atom+Function  
  ----- ------------  ---------------      ----- ------------  ---------------
     4      1.736305  1 O  s                 11      1.664514  1 O  px         
    46     -1.663110  3 H  s                 32     -1.142927  2 H  s          
    12      1.062157  1 O  py                52     -0.998453  3 H  py         
    37     -0.827416  2 H  px                38      0.490692  2 H  py         
    51      0.200566  3 H  px                 2      0.198107  1 O  s          

 Vector   14  Occ=0.000000D+00  E= 8.237878D-01
              MO Center=  2.7D-01,  4.5D-01, -5.2D-09, r^2= 1.8D+00
   Bfn.  Coefficient  Atom+Function         Bfn.  Coefficient  Atom+Function  
  ----- ------------  ---------------      ----- ------------  ---------------
    39      0.844747  2 H  pz                53     -0.728194  3 H  pz         

 Vector   15  Occ=0.000000D+00  E= 9.709647D-01
              MO Center=  1.7D-01,  3.0D-02,  7.4D-08, r^2= 2.1D+00
   Bfn.  Coefficient  Atom+Function         Bfn.  Coefficient  Atom+Function  
  ----- ------------  ---------------      ----- ------------  ---------------
    13      1.175587  1 O  pz                53     -1.066978  3 H  pz         
    39     -0.816630  2 H  pz         


 center of mass
 --------------
 x =  -0.07599894 y =  -0.06845634 z =   0.00000000

 moments of inertia (a.u.)
 ------------------
           5.178569607503           1.279227359109           0.000000000000
           1.279227359109           2.833002082974           0.000000000000
           0.000000000000           0.000000000000           8.011571690477

  Mulliken analysis of the total density
  --------------------------------------

    Atom       Charge   Shell Charges
 -----------   ------   -------------------------------------------------------
    1 O    8     8.50   1.95  1.01  0.24  0.62  1.24  2.07  1.35  0.00  0.02  0.00
    2 H    1     0.75   0.19  0.40  0.10  0.01  0.05  0.00
    3 H    1     0.75   0.25  0.38  0.04  0.02  0.06  0.01

       Multipole analysis of the density wrt the origin
       ------------------------------------------------

     L   x y z        total         open         nuclear
     -   - - -        -----         ----         -------
     0   0 0 0     -0.000000      0.000000     10.000000

     1   1 0 0      0.571864      0.000000     -0.000000
     1   0 1 0      0.452059      0.000000      0.000000
     1   0 0 1      0.000000      0.000000      0.000000

     2   2 0 0     -4.245439      0.000000      2.679864
     2   1 1 0     -0.847891      0.000000     -1.387422
     2   1 0 1      0.000000      0.000000      0.000000
     2   0 2 0     -3.201183      0.000000      5.031959
     2   0 1 1      0.000000      0.000000      0.000000
     2   0 0 2     -5.649227      0.000000      0.000000


 Parallel integral file used      16 records with       0 large values

 ------------------------------------
     Number of active orbitals      8
     Number of active alpha electrons      5
     Number of active beta electrons       5
 ------------------------------------
                   NWChem Extensible Many-Electron Theory Module
                   ---------------------------------------------

              ======================================================
                   This portion of the program was automatically
                  generated by a Tensor Contraction Engine (TCE).
                  The development of this portion of the program
                 and TCE was supported by US Department of Energy,
                Office of Science, Office of Basic Energy Science.
                      TCE is a product of Battelle and PNNL.
              Please cite: S.Hirata, J.Phys.Chem.A 107, 9887 (2003).
              ======================================================

                                        H2O


            General Information
            -------------------
      Number of processors :     1
         Wavefunction type : Restricted Hartree-Fock
          No. of electrons :    10
           Alpha electrons :     5
            Beta electrons :     5
           No. of orbitals :   116
            Alpha orbitals :    58
             Beta orbitals :    58
        Alpha frozen cores :     0
         Beta frozen cores :     0
     Alpha frozen virtuals :    50
      Beta frozen virtuals :    50
         Spin multiplicity : singlet 
    Number of AO functions :    58
       Number of AO shells :    22
        Use of symmetry is : off
      Symmetry adaption is : off
         Schwarz screening : 0.10D-09

          Correlation Information
          -----------------------
          Calculation type : Coupled-cluster singles & doubles                           
   Perturbative correction : none                                                        
            Max iterations :      100
        Residual threshold : 0.10D-06
     T(0) DIIS level shift : 0.00D+00
     L(0) DIIS level shift : 0.00D+00
     T(1) DIIS level shift : 0.00D+00
     L(1) DIIS level shift : 0.00D+00
     T(R) DIIS level shift : 0.00D+00
     T(I) DIIS level shift : 0.00D+00
   CC-T/L Amplitude update :  5-th order DIIS
                I/O scheme : Global Array Library
        L-threshold :  0.10D-06
        EOM-threshold :  0.10D-06
 no EOMCCSD initial starts read in
 TCE RESTART OPTIONS
 READ_INT:   F
 WRITE_INT:  F
 READ_TA:    F
 WRITE_TA:   F
 READ_XA:    F
 WRITE_XA:   F
 READ_IN3:   F
 WRITE_IN3:  F
 SLICE:      F
 D4D5:       F
 quantumc:   T
 qrotation:  F
 pwtce:      F
 qducc:      F
 nacto:                         0
 nrotv:                         0
 nrot:                          0

            Memory Information
            ------------------
          Available GA space size is    1610609372 doubles
          Available MA space size is    1610609780 doubles

 Maximum block size supplied by input
 Maximum block size         1 doubles

 tile_dim =      1

 Block   Spin    Irrep     Size     Offset   Alpha
 -------------------------------------------------
   1    alpha     a      1 doubles       0       1
   2    alpha     a      1 doubles       1       2
   3    alpha     a      1 doubles       2       3
   4    alpha     a      1 doubles       3       4
   5    alpha     a      1 doubles       4       5
   6    beta      a      1 doubles       5       1
   7    beta      a      1 doubles       6       2
   8    beta      a      1 doubles       7       3
   9    beta      a      1 doubles       8       4
  10    beta      a      1 doubles       9       5
  11    alpha     a      1 doubles      10      11
  12    alpha     a      1 doubles      11      12
  13    alpha     a      1 doubles      12      13
  14    beta      a      1 doubles      13      11
  15    beta      a      1 doubles      14      12
  16    beta      a      1 doubles      15      13

 Global array virtual files algorithm will be used

 Parallel file system coherency ......... OK

 Integral file          = ./H2O.aoints.0
 Record size in doubles =  65536        No. of integs per rec  =  43688
 Max. records in memory =     49        Max. records in file   = 252479
 No. of bits per label  =      8        No. of bits per value  =     64


 #quartets = 3.213D+04 #integrals = 6.608D+05 #direct =  0.0% #cached =100.0%


 Fock matrix recomputed
 1-e file size   =               64
 1-e file name   = ./H2O.f1
 Cpu & wall time / sec            0.2            0.2
 4-electron integrals stored in orbital form

 v2    file size   =              666
 4-index algorithm nr.  13 is used
 imaxsize =       30
 imaxsize ichop =        0
 begin_one_electron_integrals
    1    1       -32.8578325012
    2    1        -1.3710887207
    3    1        -0.0000001447
    4    1         0.1449539090
    5    1         0.1082415693
    6    1        -0.2048314904
    7    1        -0.2057568061
    8    1         0.0000001652
    1    2        -1.3710887207
    2    2        -7.7925506325
    3    2         0.0000002757
    4    2        -0.2495072471
    5    2        -0.1765144087
    6    2         0.1476379111
    7    2         0.0950995633
    8    2         0.0000000091
    1    3        -0.0000001447
    2    3         0.0000002757
    3    3        -6.9497428184
    4    3         0.0000000010
    5    3         0.0000000268
    6    3        -0.0000000738
    7    3        -0.0000001709
    8    3         2.1969550292
    1    4         0.1449539090
    2    4        -0.2495072471
    3    4         0.0000000010
    4    4        -6.7570298029
    5    4        -0.1179733761
    6    4         0.1004804205
    7    4         2.0369641656
    8    4         0.0000003071
    1    5         0.1082415693
    2    5        -0.1765144087
    3    5         0.0000000268
    4    5        -0.1179733761
    5    5        -6.3474110830
    6    5         2.0728576148
    7    5        -0.0871551664
    8    5         0.0000001084
    1    6        -0.2048314904
    2    6         0.1476379111
    3    6        -0.0000000738
    4    6         0.1004804205
    5    6         2.0728576148
    6    6        -5.9861009452
    7    6         0.0534431767
    8    6         0.0000001351
    1    7        -0.2057568061
    2    7         0.0950995633
    3    7        -0.0000001709
    4    7         2.0369641656
    5    7        -0.0871551664
    6    7         0.0534431767
    7    7        -6.1001742340
    8    7         0.0000002764
    1    8         0.0000001652
    2    8         0.0000000091
    3    8         2.1969550292
    4    8         0.0000003071
    5    8         0.0000001084
    6    8         0.0000001351
    7    8         0.0000002764
    8    8        -5.4276129834
 end_one_electron_integrals
 begin_two_electron_integrals
    1    1    1    1        4.8326544168
    2    1    1    1       -0.1569786125
    2    1    2    1        0.0226497213
    3    1    1    1        0.0000001090
    3    1    2    1       -0.0000000026
    3    1    3    1        0.0265439874
    3    1    2    2        0.0000000133
    4    1    1    1       -0.0931792089
    4    1    2    1        0.0011058086
    4    1    3    1        0.0000000010
    4    1    4    1        0.0206669160
    4    1    2    2       -0.0131057593
    4    1    3    2        0.0000000043
    4    1    3    3       -0.0026523250
    5    1    1    1       -0.0728561599
    5    1    2    1        0.0007366024
    5    1    3    1       -0.0000000010
    5    1    4    1        0.0026952188
    5    1    5    1        0.0179142173
    5    1    2    2       -0.0104782606
    5    1    3    2        0.0000000021
    5    1    4    2       -0.0002284465
    5    1    3    3       -0.0020038684
    5    1    4    3       -0.0000000001
    5    1    4    4       -0.0014503624
    6    1    1    1        0.1580696504
    6    1    2    1       -0.0049037764
    6    1    3    1        0.0000000046
    6    1    4    1       -0.0051692504
    6    1    5    1       -0.0280268414
    6    1    6    1        0.0448205128
    6    1    2    2        0.0182809607
    6    1    3    2       -0.0000000026
    6    1    4    2        0.0012455469
    6    1    5    2       -0.0223762513
    6    1    3    3        0.0044405856
    6    1    5    3        0.0000000060
    6    1    4    4        0.0043088378
    6    1    5    4       -0.0044590226
    6    1    5    5       -0.0101067669
    7    1    1    1        0.1663788180
    7    1    2    1       -0.0043911501
    7    1    3    1        0.0000000055
    7    1    4    1       -0.0331217881
    7    1    5    1       -0.0021253243
    7    1    6    1        0.0052704160
    7    1    7    1        0.0540526879
    7    1    2    2        0.0205757129
    7    1    3    2       -0.0000000019
    7    1    4    2       -0.0258279289
    7    1    5    2        0.0035911113
    7    1    6    2       -0.0055819094
    7    1    3    3        0.0037237221
    7    1    4    3        0.0000000090
    7    1    5    3       -0.0000000007
    7    1    6    3        0.0000000013
    7    1    4    4       -0.0152660151
    7    1    5    4       -0.0032460997
    7    1    6    4        0.0055468632
    7    1    5    5        0.0043729965
    7    1    6    5       -0.0042901425
    7    1    6    6        0.0083003437
    8    1    1    1       -0.0000001433
    8    1    2    1        0.0000000036
    8    1    3    1       -0.0377461677
    8    1    4    1       -0.0000000016
    8    1    5    1        0.0000000014
    8    1    6    1       -0.0000000065
    8    1    7    1       -0.0000000073
    8    1    8    1        0.0542936053
    8    1    2    2       -0.0000000179
    8    1    3    2       -0.0362084695
    8    1    4    2       -0.0000000074
    8    1    5    2       -0.0000000036
    8    1    6    2        0.0000000033
    8    1    7    2        0.0000000021
    8    1    3    3        0.0000000157
    8    1    4    3       -0.0076104512
    8    1    5    3       -0.0063064439
    8    1    6    3        0.0093971950
    8    1    7    3        0.0095204468
    8    1    4    4       -0.0000000022
    8    1    5    4       -0.0000000020
    8    1    6    4        0.0000000024
    8    1    7    4        0.0000000059
    8    1    5    5       -0.0000000021
    8    1    6    5        0.0000000037
    8    1    7    5        0.0000000006
    8    1    6    6       -0.0000000051
    8    1    7    6       -0.0000000012
    8    1    7    7       -0.0000000049
    2    2    1    1        1.0655651487
    2    2    2    1        0.0154341028
    2    2    2    2        0.8451686010
    3    2    1    1       -0.0000000158
    3    2    2    1        0.0000000025
    3    2    3    1        0.0220736454
    3    2    2    2        0.0000000364
    3    2    3    2        0.1335925248
    4    2    1    1       -0.0080598807
    4    2    2    1       -0.0030713625
    4    2    3    1        0.0000000041
    4    2    4    1        0.0143773231
    4    2    2    2       -0.0511638401
    4    2    3    2        0.0000000286
    4    2    4    2        0.0891359755
    4    2    3    3        0.0091415166
    5    2    1    1       -0.0091073268
    5    2    2    1       -0.0025328559
    5    2    3    1        0.0000000019
    5    2    4    1       -0.0002633855
    5    2    5    1        0.0131277713
    5    2    2    2       -0.0431135737
    5    2    3    2        0.0000000196
    5    2    4    2       -0.0130449041
    5    2    5    2        0.0844982833
    5    2    3    3        0.0055983126
    5    2    4    3        0.0000000079
    5    2    4    4       -0.0091080616
    6    2    1    1       -0.0304948315
    6    2    2    1        0.0024619755
    6    2    3    1       -0.0000000022
    6    2    4    1        0.0016654232
    6    2    5    1       -0.0143489169
    6    2    6    1        0.0222400145
    6    2    2    2        0.0154989997
    6    2    3    2       -0.0000000119
    6    2    4    2        0.0129394867
    6    2    5    2       -0.0619301734
    6    2    6    2        0.0567521429
    6    2    3    3       -0.0197189460
    6    2    4    3       -0.0000000070
    6    2    5    3        0.0000000108
    6    2    4    4       -0.0061917744
    6    2    5    4       -0.0088724506
    6    2    5    5       -0.0370986906
    7    2    1    1       -0.0180641707
    7    2    2    1        0.0031864585
    7    2    3    1       -0.0000000014
    7    2    4    1       -0.0151465295
    7    2    5    1        0.0027634460
    7    2    6    1       -0.0049089493
    7    2    7    1        0.0246439678
    7    2    2    2        0.0204659782
    7    2    3    2       -0.0000000029
    7    2    4    2       -0.0563486265
    7    2    5    2        0.0165436449
    7    2    6    2       -0.0175004668
    7    2    7    2        0.0514638438
    7    2    3    3       -0.0151881137
    7    2    4    3        0.0000000103
    7    2    5    3       -0.0000000037
    7    2    6    3        0.0000000044
    7    2    4    4       -0.0326336245
    7    2    5    4       -0.0048713683
    7    2    6    4        0.0078858586
    7    2    5    5       -0.0031152745
    7    2    6    5        0.0068374591
    7    2    6    6       -0.0034332808
    8    2    1    1        0.0000000010
    8    2    2    1       -0.0000000032
    8    2    3    1       -0.0196193343
    8    2    4    1       -0.0000000043
    8    2    5    1       -0.0000000022
    8    2    6    1        0.0000000023
    8    2    7    1        0.0000000019
    8    2    8    1        0.0269010209
    8    2    2    2       -0.0000000231
    8    2    3    2       -0.0530833813
    8    2    4    2       -0.0000000103
    8    2    5    2       -0.0000000069
    8    2    6    2        0.0000000071
    8    2    7    2        0.0000000038
    8    2    8    2        0.0443061337
    8    2    3    3        0.0000000196
    8    2    4    3       -0.0061041577
    8    2    5    3       -0.0051268174
    8    2    6    3        0.0121667780
    8    2    7    3        0.0117423193
    8    2    4    4       -0.0000000003
    8    2    5    4       -0.0000000013
    8    2    6    4        0.0000000037
    8    2    7    4        0.0000000011
    8    2    5    5       -0.0000000010
    8    2    6    5        0.0000000004
    8    2    7    5        0.0000000024
    8    2    6    6       -0.0000000005
    8    2    7    6       -0.0000000021
    3    3    1    1        1.0269492383
    3    3    2    1        0.0116248406
    3    3    3    1       -0.0000000080
    3    3    2    2        0.7246367081
    3    3    3    2       -0.0000000720
    3    3    3    3        0.7404525729
    4    3    1    1        0.0000000436
    4    3    2    1        0.0000000024
    4    3    3    1        0.0048891029
    4    3    4    1       -0.0000000043
    4    3    2    2        0.0000000457
    4    3    3    2        0.0222276658
    4    3    4    2       -0.0000000250
    4    3    3    3        0.0000000017
    4    3    4    3        0.0358391706
    5    3    1    1        0.0000000103
    5    3    2    1        0.0000000014
    5    3    3    1        0.0039856564
    5    3    4    1        0.0000000003
    5    3    5    1       -0.0000000036
    5    3    2    2        0.0000000253
    5    3    3    2        0.0187189774
    5    3    4    2        0.0000000075
    5    3    5    2       -0.0000000156
    5    3    3    3       -0.0000000088
    5    3    4    3        0.0053402224
    5    3    5    3        0.0316081070
    5    3    4    4        0.0000000049
    6    3    1    1        0.0000000184
    6    3    2    1       -0.0000000018
    6    3    3    1       -0.0066937062
    6    3    4    1       -0.0000000013
    6    3    5    1        0.0000000032
    6    3    6    1       -0.0000000050
    6    3    2    2       -0.0000000082
    6    3    3    2       -0.0196216973
    6    3    4    2       -0.0000000075
    6    3    5    2        0.0000000082
    6    3    6    2       -0.0000000074
    6    3    3    3        0.0000000195
    6    3    4    3       -0.0043198605
    6    3    5    3       -0.0203557780
    6    3    6    3        0.0241476998
    6    3    4    4        0.0000000032
    6    3    5    4       -0.0000000005
    6    3    5    5        0.0000000074
    7    3    1    1        0.0000000410
    7    3    2    1       -0.0000000016
    7    3    3    1       -0.0068753220
    7    3    4    1        0.0000000024
    7    3    5    1       -0.0000000011
    7    3    6    1        0.0000000015
    7    3    7    1       -0.0000000044
    7    3    2    2        0.0000000079
    7    3    3    2       -0.0184715331
    7    3    4    2       -0.0000000017
    7    3    5    2       -0.0000000037
    7    3    6    2        0.0000000038
    7    3    7    2       -0.0000000065
    7    3    3    3        0.0000000322
    7    3    4    3       -0.0192958198
    7    3    5    3       -0.0018386120
    7    3    6    3        0.0038354596
    7    3    7    3        0.0240820414
    7    3    4    4       -0.0000000039
    7    3    5    4        0.0000000006
    7    3    6    4       -0.0000000024
    7    3    5    5        0.0000000134
    7    3    6    5       -0.0000000092
    7    3    6    6        0.0000000152
    8    3    1    1       -0.5364315430
    8    3    2    1       -0.0093178352
    8    3    3    1        0.0000000052
    8    3    4    1        0.0035553213
    8    3    5    1        0.0025841896
    8    3    6    1       -0.0059360271
    8    3    7    1       -0.0060449902
    8    3    8    1       -0.0000000077
    8    3    2    2       -0.2182745328
    8    3    3    2        0.0000000175
    8    3    4    2        0.0039753165
    8    3    5    2        0.0032112285
    8    3    6    2        0.0113407489
    8    3    7    2        0.0081637755
    8    3    8    2       -0.0000000175
    8    3    3    3       -0.2107325877
    8    3    4    3       -0.0000000160
    8    3    5    3       -0.0000000042
    8    3    6    3       -0.0000000111
    8    3    7    3       -0.0000000200
    8    3    8    3        0.1661022698
    8    3    4    4       -0.1497103901
    8    3    5    4       -0.0043493648
    8    3    6    4        0.0060937601
    8    3    7    4        0.1255919009
    8    3    5    5       -0.1353295424
    8    3    6    5        0.1214513703
    8    3    7    5       -0.0051416729
    8    3    6    6       -0.1677630337
    8    3    7    6        0.0042709120
    8    3    7    7       -0.1808364670
    4    4    1    1        0.9010175163
    4    4    2    1        0.0077403219
    4    4    3    1        0.0000000033
    4    4    4    1        0.0069724001
    4    4    2    2        0.6331520804
    4    4    3    2       -0.0000000201
    4    4    4    2        0.0790446167
    4    4    3    3        0.6262538622
    4    4    4    3       -0.0000000363
    4    4    4    4        0.7613711277
    5    4    1    1        0.0210395387
    5    4    2    1       -0.0007265049
    5    4    3    1        0.0000000011
    5    4    4    1        0.0025792560
    5    4    5    1        0.0030659846
    5    4    2    2       -0.0072910621
    5    4    3    2        0.0000000086
    5    4    4    2        0.0048780485
    5    4    5    2        0.0100208044
    5    4    3    3        0.0102007485
    5    4    4    3        0.0000000008
    5    4    5    3       -0.0000000009
    5    4    4    4        0.0120537295
    5    4    5    4        0.0270303009
    6    4    1    1       -0.0259012729
    6    4    2    1        0.0015724094
    6    4    3    1       -0.0000000016
    6    4    4    1       -0.0041108862
    6    4    5    1       -0.0030547801
    6    4    6    1        0.0045123105
    6    4    2    2        0.0065988571
    6    4    3    2       -0.0000000068
    6    4    4    2       -0.0077291868
    6    4    5    2       -0.0093363060
    6    4    6    2        0.0061989141
    6    4    3    3       -0.0095497077
    6    4    4    3        0.0000000009
    6    4    5    3        0.0000000007
    6    4    6    3        0.0000000011
    6    4    4    4       -0.0108698042
    6    4    5    4       -0.0172188603
    6    4    6    4        0.0190135832
    6    4    5    5       -0.0172531131
    7    4    1    1       -0.4849228095
    7    4    2    1       -0.0062293926
    7    4    3    1       -0.0000000046
    7    4    4    1       -0.0047257464
    7    4    5    1        0.0023870905
    7    4    6    1       -0.0048957349
    7    4    7    1        0.0040250051
    7    4    2    2       -0.2096889219
    7    4    3    2       -0.0000000057
    7    4    4    2        0.0102686892
    7    4    5    2       -0.0037848532
    7    4    6    2        0.0107435182
    7    4    7    2        0.0201403200
    7    4    3    3       -0.1840859675
    7    4    4    3       -0.0000000332
    7    4    5    3       -0.0000000020
    7    4    6    3       -0.0000000049
    7    4    7    3       -0.0000000274
    7    4    4    4       -0.1139168399
    7    4    5    4       -0.0088827630
    7    4    6    4        0.0128183962
    7    4    7    4        0.2071887359
    7    4    5    5       -0.1443418460
    7    4    6    5        0.1071757260
    7    4    6    6       -0.1722765527
    8    4    1    1       -0.0000000667
    8    4    2    1       -0.0000000030
    8    4    3    1       -0.0032414839
    8    4    4    1        0.0000000034
    8    4    6    1       -0.0000000006
    8    4    7    1       -0.0000000053
    8    4    8    1        0.0038618607
    8    4    2    2       -0.0000000338
    8    4    3    2       -0.0003976236
    8    4    4    2        0.0000000014
    8    4    5    2        0.0000000015
    8    4    6    2        0.0000000026
    8    4    7    2       -0.0000000034
    8    4    8    2        0.0042552235
    8    4    3    3       -0.0000000310
    8    4    4    3       -0.0046962428
    8    4    5    3       -0.0004691117
    8    4    6    3        0.0023670809
    8    4    7    3        0.0166922317
    8    4    8    3        0.0000000143
    8    4    4    4       -0.0000000322
    8    4    5    4        0.0000000009
    8    4    6    4       -0.0000000013
    8    4    7    4        0.0000000014
    8    4    8    4        0.0165551208
    8    4    5    5       -0.0000000173
    8    4    6    5        0.0000000161
    8    4    7    5        0.0000000002
    8    4    6    6       -0.0000000208
    8    4    7    6        0.0000000016
    8    4    7    7       -0.0000000350
    5    5    1    1        0.8381626859
    5    5    2    1        0.0073376200
    5    5    3    1        0.0000000027
    5    5    4    1       -0.0016391370
    5    5    5    1        0.0051380876
    5    5    2    2        0.6048106318
    5    5    3    2       -0.0000000091
    5    5    4    2       -0.0030332987
    5    5    5    2        0.0650484885
    5    5    3    3        0.5915767679
    5    5    4    3        0.0000000126
    5    5    5    3       -0.0000000199
    5    5    4    4        0.5461917590
    5    5    5    4        0.0171582690
    5    5    5    5        0.6861626852
    6    5    1    1       -0.4683328607
    6    5    2    1       -0.0064046015
    6    5    3    1       -0.0000000037
    6    5    4    1        0.0024420387
    6    5    5    1       -0.0045396251
    6    5    6    1        0.0028412986
    6    5    2    2       -0.2194092892
    6    5    3    2        0.0000000049
    6    5    4    2       -0.0051850655
    6    5    5    2        0.0097283723
    6    5    6    2        0.0192800819
    6    5    3    3       -0.1931287593
    6    5    4    3       -0.0000000080
    6    5    5    3       -0.0000000089
    6    5    6    3       -0.0000000087
    6    5    4    4       -0.1707997989
    6    5    5    4       -0.0075937991
    6    5    6    4        0.0050685739
    6    5    5    5       -0.0984636874
    6    5    6    5        0.2115498082
    7    5    1    1        0.0176859476
    7    5    2    1        0.0021170275
    7    5    3    1       -0.0000000004
    7    5    4    1       -0.0027567357
    7    5    5    1       -0.0039136963
    7    5    6    1        0.0057919713
    7    5    7    1        0.0038404924
    7    5    2    2        0.0240032325
    7    5    3    2       -0.0000000022
    7    5    4    2       -0.0070677226
    7    5    5    2       -0.0092169755
    7    5    6    2        0.0074708128
    7    5    7    2        0.0018313055
    7    5    3    3        0.0077991613
    7    5    4    3        0.0000000039
    7    5    5    3        0.0000000047
    7    5    6    3       -0.0000000027
    7    5    7    3        0.0000000020
    7    5    4    4       -0.0035738180
    7    5    5    4       -0.0125629141
    7    5    6    4        0.0157488468
    7    5    7    4       -0.0073137827
    7    5    5    5        0.0007307725
    7    5    6    5       -0.0040660552
    7    5    7    5        0.0167947147
    7    5    6    6        0.0000739961
    8    5    1    1       -0.0000000191
    8    5    2    1       -0.0000000019
    8    5    3    1       -0.0027043693
    8    5    4    1       -0.0000000003
    8    5    5    1        0.0000000029
    8    5    6    1       -0.0000000042
    8    5    7    1        0.0000000002
    8    5    8    1        0.0031532520
    8    5    2    2       -0.0000000148
    8    5    3    2        0.0005404298
    8    5    4    2        0.0000000014
    8    5    5    2        0.0000000028
    8    5    6    2       -0.0000000031
    8    5    7    2        0.0000000021
    8    5    8    2        0.0039222113
    8    5    3    3       -0.0000000118
    8    5    4    3       -0.0002928123
    8    5    5    3       -0.0033712712
    8    5    6    3        0.0146157312
    8    5    7    3        0.0008908156
    8    5    8    3        0.0000000013
    8    5    4    4       -0.0000000062
    8    5    5    4        0.0000000010
    8    5    6    4        0.0000000012
    8    5    7    4        0.0000000056
    8    5    8    4        0.0016245961
    8    5    5    5       -0.0000000115
    8    5    6    5       -0.0000000019
    8    5    7    5       -0.0000000016
    8    5    8    5        0.0161410895
    8    5    6    6       -0.0000000098
    8    5    7    6        0.0000000033
    8    5    7    7       -0.0000000072
    6    6    1    1        0.9941734155
    6    6    2    1        0.0083973625
    6    6    3    1        0.0000000050
    6    6    4    1       -0.0035815449
    6    6    5    1        0.0072306938
    6    6    6    1       -0.0117178658
    6    6    2    2        0.6112317874
    6    6    3    2       -0.0000000070
    6    6    4    2       -0.0059377706
    6    6    5    2        0.0632825303
    6    6    6    2       -0.0421834510
    6    6    3    3        0.6009145721
    6    6    4    3        0.0000000168
    6    6    5    3       -0.0000000193
    6    6    6    3        0.0000000094
    6    6    4    4        0.5460512667
    6    6    5    4        0.0168396411
    6    6    6    4       -0.0201706882
    6    6    5    5        0.6886379760
    6    6    6    5       -0.1038356235
    6    6    6    6        0.7404798332
    7    6    1    1       -0.0105708825
    7    6    2    1       -0.0031609882
    7    6    3    1        0.0000000005
    7    6    4    1        0.0054989165
    7    6    5    1        0.0048701333
    7    6    6    1       -0.0069743755
    7    6    7    1       -0.0080054266
    7    6    2    2       -0.0302222123
    7    6    3    2        0.0000000056
    7    6    4    2        0.0162797281
    7    6    5    2        0.0105300862
    7    6    6    2       -0.0093799661
    7    6    7    2       -0.0092849986
    7    6    3    3       -0.0029777133
    7    6    4    3       -0.0000000073
    7    6    5    3       -0.0000000043
    7    6    6    3        0.0000000030
    7    6    7    3       -0.0000000004
    7    6    4    4        0.0149865188
    7    6    5    4        0.0216959286
    7    6    6    4       -0.0191897624
    7    6    7    4        0.0055349788
    7    6    5    5        0.0003070148
    7    6    6    5       -0.0014682447
    7    6    7    5       -0.0182290379
    7    6    6    6       -0.0012231046
    7    6    7    6        0.0275378651
    8    6    1    1       -0.0000000299
    8    6    2    1        0.0000000020
    8    6    3    1        0.0067649653
    8    6    4    1        0.0000000014
    8    6    5    1       -0.0000000037
    8    6    6    1        0.0000000056
    8    6    7    1       -0.0000000015
    8    6    8    1       -0.0101835479
    8    6    2    2        0.0000000043
    8    6    3    2        0.0241758283
    8    6    4    2        0.0000000065
    8    6    5    2       -0.0000000072
    8    6    6    2        0.0000000075
    8    6    7    2       -0.0000000028
    8    6    8    2       -0.0092140252
    8    6    3    3       -0.0000000283
    8    6    4    3        0.0062247137
    8    6    5    3        0.0239886664
    8    6    6    3       -0.0182098506
    8    6    7    3       -0.0029960093
    8    6    8    3        0.0000000086
    8    6    4    4       -0.0000000122
    8    6    5    4        0.0000000014
    8    6    6    4       -0.0000000003
    8    6    7    4        0.0000000037
    8    6    8    4       -0.0005237206
    8    6    5    5       -0.0000000200
    8    6    6    5        0.0000000055
    8    6    7    5        0.0000000034
    8    6    8    5       -0.0057156966
    8    6    6    6       -0.0000000213
    8    6    7    6       -0.0000000022
    8    6    8    6        0.0264355564
    8    6    7    7       -0.0000000130
    7    7    1    1        1.0743588017
    7    7    2    1        0.0085915203
    7    7    3    1        0.0000000055
    7    7    4    1        0.0072826867
    7    7    5    1       -0.0039909541
    7    7    6    1        0.0093481111
    7    7    7    1       -0.0147925880
    7    7    2    2        0.6355177454
    7    7    3    2       -0.0000000192
    7    7    4    2        0.0704327878
    7    7    5    2       -0.0120037437
    7    7    6    2       -0.0065121246
    7    7    7    2       -0.0331963028
    7    7    3    3        0.6298799197
    7    7    4    3       -0.0000000363
    7    7    5    3        0.0000000061
    7    7    6    3        0.0000000034
    7    7    7    3       -0.0000000006
    7    7    4    4        0.7444119981
    7    7    5    4        0.0084368833
    7    7    6    4       -0.0086738868
    7    7    7    4       -0.1271277903
    7    7    5    5        0.5405931155
    7    7    6    5       -0.1913317056
    7    7    7    5       -0.0011164656
    7    7    6    6        0.5600516799
    7    7    7    6        0.0116271430
    7    7    7    7        0.7871356730
    8    7    1    1       -0.0000000502
    8    7    2    1        0.0000000018
    8    7    3    1        0.0070937398
    8    7    4    1       -0.0000000032
    8    7    5    1        0.0000000011
    8    7    6    1       -0.0000000019
    8    7    7    1        0.0000000069
    8    7    8    1       -0.0105803690
    8    7    2    2       -0.0000000052
    8    7    3    2        0.0244602720
    8    7    4    2       -0.0000000104
    8    7    5    2        0.0000000067
    8    7    6    2       -0.0000000043
    8    7    7    2        0.0000000080
    8    7    8    2       -0.0089860559
    8    7    3    3       -0.0000000420
    8    7    4    3        0.0279005060
    8    7    5    3        0.0037455380
    8    7    6    3       -0.0033249901
    8    7    7    3       -0.0179128755
    8    7    8    3        0.0000000143
    8    7    4    4       -0.0000000422
    8    7    5    4        0.0000000010
    8    7    6    4        0.0000000013
    8    7    7    4       -0.0000000026
    8    7    8    4       -0.0063544922
    8    7    5    5       -0.0000000161
    8    7    6    5        0.0000000123
    8    7    7    5        0.0000000012
    8    7    8    5        0.0003402151
    8    7    6    6       -0.0000000167
    8    7    7    6       -0.0000000031
    8    7    8    6        0.0057264160
    8    7    7    7       -0.0000000498
    8    7    8    7        0.0301071162
    8    8    1    1        1.0414016005
    8    8    2    1        0.0099363992
    8    8    3    1       -0.0000000067
    8    8    4    1       -0.0045855319
    8    8    5    1       -0.0033110565
    8    8    6    1        0.0070206079
    8    8    7    1        0.0069045865
    8    8    8    1        0.0000000133
    8    8    2    2        0.6307589277
    8    8    3    2       -0.0000000564
    8    8    4    2        0.0071798885
    8    8    5    2        0.0053380709
    8    8    6    2       -0.0160626712
    8    8    7    2       -0.0110106607
    8    8    8    2        0.0000000163
    8    8    3    3        0.6473472785
    8    8    4    3        0.0000000043
    8    8    5    3       -0.0000000075
    8    8    6    3        0.0000000146
    8    8    7    3        0.0000000234
    8    8    8    3       -0.1886197215
    8    8    4    4        0.5623356856
    8    8    5    4        0.0091977635
    8    8    6    4       -0.0084637956
    8    8    7    4       -0.1580819819
    8    8    8    4       -0.0000000279
    8    8    5    5        0.5349334726
    8    8    6    5       -0.1625762355
    8    8    7    5        0.0063192879
    8    8    8    5       -0.0000000110
    8    8    6    6        0.5578095536
    8    8    7    6       -0.0018660072
    8    8    8    6       -0.0000000253
    8    8    7    7        0.5847978608
    8    8    8    7       -0.0000000347
    8    8    8    8        0.6071688383
 end_two_electron_integrals
 enrep_tce =    8.2712590648260935     
  EHF(A)             =       -76.01775802
  EHF(total)         =       -76.01775802
  Shift (HFtot-HFA)  =        -0.00000000
 Cpu & wall time / sec            2.5            2.6
 T1-number-of-tasks                   15

 t1 file size   =               15
 t1 file name   = ./H2O.t1
 t1 file handle =       -998
 T2-number-of-boxes                  315

 t2 file size   =              315
 t2 file name   = ./H2O.t2
 t2 file handle =       -996
CCSD iterations
 ---------------------------------------------------------
 Iter          Residuum       Correlation     Cpu    Wall 
 ---------------------------------------------------------
NEW TASK SCHEDULING
CCSD_T1_NTS --- OK
CCSD_T2_NTS --- OK
    1   0.7243329768299  -0.2449460024566     4.1     6.0
    2   1.1407222886113   0.1104337667156     4.1     5.9
    3   1.8085547052418  -0.4454536902977     4.4     6.0
    4   2.9665333068526   0.4244162463506     4.2     6.0
    5   4.6468840894448  -0.9944097706872     4.4     6.0
 MICROCYCLE DIIS UPDATE:                    5                    5
    6   0.0125215826764  -0.1041825652551     4.7     6.3
    7   0.0124973117988  -0.1024293051476     4.1     5.9
    8   0.0204244558072  -0.1056496167952     4.4     6.0
    9   0.0359469027806  -0.1001266827118     4.5     6.3
   10   0.0656811203126  -0.1081516269839     4.2     6.0
 MICROCYCLE DIIS UPDATE:                   10                    5
   11   0.0002134170276  -0.1036643685012     4.3     5.9
   12   0.0001831660016  -0.1036953267961     4.3     5.9
   13   0.0002537926864  -0.1036451188964     4.4     6.1
   14   0.0004121430946  -0.1037267554739     4.2     6.0
   15   0.0007127935385  -0.1035939885439     4.2     6.0
 MICROCYCLE DIIS UPDATE:                   15                    5
   16   0.0000086909806  -0.1036767536111     4.3     6.2
   17   0.0000078255575  -0.1036754536178     4.4     5.9
   18   0.0000134775989  -0.1036776445515     4.4     6.3
   19   0.0000245188570  -0.1036741035436     4.8     6.6
   20   0.0000453689874  -0.1036798169313     4.4     5.9
 MICROCYCLE DIIS UPDATE:                   20                    5
   21   0.0000002455016  -0.1036762771314     4.6     6.3
   22   0.0000002058164  -0.1036763225203     4.3     6.0
   23   0.0000002847675  -0.1036762522174     4.5     6.0
   24   0.0000004597038  -0.1036763617137     4.5     6.1
   25   0.0000007904492  -0.1036761889746     4.5     6.4
 MICROCYCLE DIIS UPDATE:                   25                    5
   26   0.0000000113922  -0.1036762956446     4.5     6.3
 -----------------------------------------------------------------
 Iterations converged
 CCSD correlation energy / hartree =        -0.103676295644603
 CCSD total energy / hartree       =       -76.121434316755128

 Singles contributions

 Doubles contributions
     6a   (alpha)     7a   (alpha) ---     4a   (alpha)     5a   (alpha)        0.0237415805
     6a   (alpha)     8a   (alpha) ---     3a   (alpha)     5a   (alpha)        0.0312223370
     6a   (alpha)     6a   (beta ) ---     5a   (alpha)     5a   (beta )       -0.1193273249
     6a   (alpha)     7a   (beta ) ---     5a   (alpha)     4a   (beta )       -0.0364456780
     6a   (alpha)     8a   (beta ) ---     5a   (alpha)     3a   (beta )       -0.0424260865
     7a   (alpha)     8a   (alpha) ---     3a   (alpha)     4a   (alpha)        0.0300936674
     7a   (alpha)     6a   (beta ) ---     4a   (alpha)     5a   (beta )       -0.0364456780
     7a   (alpha)     7a   (beta ) ---     4a   (alpha)     4a   (beta )       -0.0849469565
     7a   (alpha)     8a   (beta ) ---     4a   (alpha)     3a   (beta )       -0.0403920757
     8a   (alpha)     6a   (beta ) ---     3a   (alpha)     5a   (beta )       -0.0424260865
     8a   (alpha)     7a   (beta ) ---     3a   (alpha)     4a   (beta )       -0.0403920757
     8a   (alpha)     8a   (beta ) ---     3a   (alpha)     3a   (beta )       -0.0580181525
 Ground state specification:
 exp(T)|Ref>~(1+T)|Ref>
 ------- a(p)+/a(q) strings ----------

 singles norm

 doubles norm

 Reference string
  0.99295563472508841      :(1a)+ (2a)+ (3a)+ (4a)+ (5a)+ (1b)+ (2b)+ (3b)+ (4b)+ (5b)+ |0>

 Singles strings

 Doubles strings
 -0.11848673962809794      :(6a)+ (6b)+ (5b)  (5a)  (1a)+ (2a)+ (3a)+ (4a)+ (5a)+ (1b)+ (2b)+ (3b)+ (4b)+ (5b)+ |0>
 -------------------------------------

 Parallel integral file used      16 records with       0 large values


 Task  times  cpu:      117.2s     wall:      163.1s


                                NWChem Input Module
                                -------------------


 Summary of allocated global arrays
-----------------------------------
  No active global arrays


MA_summarize_allocated_blocks: starting scan ...
MA_summarize_allocated_blocks: scan completed: 0 heap blocks, 0 stack blocks
MA usage statistics:

	allocation statistics:
					      heap	     stack
					      ----	     -----
	current number of blocks	         0	         0
	maximum number of blocks	        18	        42
	current total bytes		         0	         0
	maximum total bytes		  25775928	  38234424
	maximum total K-bytes		     25776	     38235
	maximum total M-bytes		        26	        39


                                     CITATION
                                     --------
                Please cite the following reference when publishing
                           results obtained with NWChem:

          E. Apra, E. J. Bylaska, W. A. de Jong, N. Govind, K. Kowalski,
       T. P. Straatsma, M. Valiev, H. J. J. van Dam, Y. Alexeev, J. Anchell,
       V. Anisimov, F. W. Aquino, R. Atta-Fynn, J. Autschbach, N. P. Bauman,
     J. C. Becca, D. E. Bernholdt, K. Bhaskaran-Nair, S. Bogatko, P. Borowski,
         J. Boschen, J. Brabec, A. Bruner, E. Cauet, Y. Chen, G. N. Chuev,
      C. J. Cramer, J. Daily, M. J. O. Deegan, T. H. Dunning Jr., M. Dupuis,
   K. G. Dyall, G. I. Fann, S. A. Fischer, A. Fonari, H. Fruchtl, L. Gagliardi,
      J. Garza, N. Gawande, S. Ghosh, K. Glaesemann, A. W. Gotz, J. Hammond,
       V. Helms, E. D. Hermes, K. Hirao, S. Hirata, M. Jacquelin, L. Jensen,
   B. G. Johnson, H. Jonsson, R. A. Kendall, M. Klemm, R. Kobayashi, V. Konkov,
      S. Krishnamoorthy, M. Krishnan, Z. Lin, R. D. Lins, R. J. Littlefield,
      A. J. Logsdail, K. Lopata, W. Ma, A. V. Marenich, J. Martin del Campo,
   D. Mejia-Rodriguez, J. E. Moore, J. M. Mullin, T. Nakajima, D. R. Nascimento,
    J. A. Nichols, P. J. Nichols, J. Nieplocha, A. Otero-de-la-Roza, B. Palmer,
    A. Panyala, T. Pirojsirikul, B. Peng, R. Peverati, J. Pittner, L. Pollack,
   R. M. Richard, P. Sadayappan, G. C. Schatz, W. A. Shelton, D. W. Silverstein,
   D. M. A. Smith, T. A. Soares, D. Song, M. Swart, H. L. Taylor, G. S. Thomas,
            V. Tipparaju, D. G. Truhlar, K. Tsemekhman, T. Van Voorhis,
      A. Vazquez-Mayagoitia, P. Verma, O. Villa, A. Vishnu, K. D. Vogiatzis,
        D. Wang, J. H. Weare, M. J. Williamson, T. L. Windus, K. Wolinski,
        A. T. Wong, Q. Wu, C. Yang, Q. Yu, M. Zacharias, Z. Zhang, Y. Zhao,
                                and R. J. Harrison
                        "NWChem: Past, present, and future
                         J. Chem. Phys. 152, 184102 (2020)
                               doi:10.1063/5.0004997

                                      AUTHORS
                                      -------
  E. Apra, E. J. Bylaska, N. Govind, K. Kowalski, M. Valiev, D. Mejia-Rodriguez,
       A. Kunitsa, N. P. Bauman, A. Panyala, W. A. de Jong, T. P. Straatsma,
        H. J. J. van Dam, D. Wang, T. L. Windus, J. Hammond, J. Autschbach,
    K. Bhaskaran-Nair, J. Brabec, K. Lopata, S. A. Fischer, S. Krishnamoorthy,
     M. Jacquelin, W. Ma, M. Klemm, O. Villa, Y. Chen, V. Anisimov, F. Aquino,
    S. Hirata, M. T. Hackler, Eric Hermes, L. Jensen, J. E. Moore, J. C. Becca,
      V. Konjkov, T. Risthaus, M. Malagoli, A. Marenich, A. Otero-de-la-Roza,
        J. Mullin, P. Nichols, R. Peverati, J. Pittner, Y. Zhao, P.-D. Fan,
        A. Fonari, M. J. Williamson, R. J. Harrison, J. R. Rehr, M. Dupuis,
     D. Silverstein, D. M. A. Smith, J. Nieplocha, V. Tipparaju, M. Krishnan,
     B. E. Van Kuiken, A. Vazquez-Mayagoitia, M. Swart, Q. Wu, T. Van Voorhis,
     A. A. Auer, M. Nooijen, L. D. Crosby, E. Brown, G. Cisneros, G. I. Fann,
   H. Fruchtl, J. Garza, K. Hirao, R. A. Kendall, J. A. Nichols, K. Tsemekhman,
    K. Wolinski, J. Anchell, D. E. Bernholdt, P. Borowski, T. Clark, D. Clerc,
   H. Dachsel, M. J. O. Deegan, K. Dyall, D. Elwood, E. Glendening, M. Gutowski,
   A. C. Hess, J. Jaffe, B. G. Johnson, J. Ju, R. Kobayashi, R. Kutteh, Z. Lin,
   R. Littlefield, X. Long, B. Meng, T. Nakajima, S. Niu, L. Pollack, M. Rosing,
   K. Glaesemann, G. Sandrone, M. Stave, H. Taylor, G. Thomas, J. H. van Lenthe,
                               A. T. Wong, Z. Zhang.

 Total times  cpu:      124.3s     wall:      174.9s
