 argument  1 = input.nw
  NWChem w/ OpenMP: maximum threads =    1



============================== echo of input deck ==============================
 echo
 start H2O
 title "H2O"

 memory total 24 gb

 geometry units bohr
 symmetry c1
        O  0.00000000  0.00000000  0.00000000
        H  0.00000000  2.838913  0.00000000
        H  1.72558000 -0.64860000  0.00000000
 end

 basis spherical
   * library cc-pVTZ
 end

 mcscf
   active  8
   actelec 10
   multiplicity 1
   maxiter 40
   vectors input h2o.mos
   vectors output h2o.mos
 end

 task mcscf

 scf
   vectors input h2o.mos
   vectors output h2o-trash.mos
   noscf
 end

 tce
   2eorb
   2emet 13
   ccsd
   maxiter 300
 end

 set tce:print_integrals T
 set tce:qorb 8
 set tce:qela 5
 set tce:qelb 5

# set tce:qducc T
# set tce:nactv 3
# set tce:nonhf T
# set tce:ducc_model 6

 set tce:printtol 0.02

 task tce
================================================================================


                                         
                                         


             Northwest Computational Chemistry Package (NWChem) 7.0.1
             --------------------------------------------------------


                    Environmental Molecular Sciences Laboratory
                       Pacific Northwest National Laboratory
                                Richland, WA 99352

                              Copyright (c) 1994-2020
                       Pacific Northwest National Laboratory
                            Battelle Memorial Institute

             NWChem is an open-source computational chemistry package
                        distributed under the terms of the
                      Educational Community License (ECL) 2.0
             A copy of the license is included with this distribution
                              in the LICENSE.TXT file

                                  ACKNOWLEDGMENT
                                  --------------

            This software and its documentation were developed at the
            EMSL at Pacific Northwest National Laboratory, a multiprogram
            national laboratory, operated for the U.S. Department of Energy
            by Battelle under Contract Number DE-AC05-76RL01830. Support
            for this work was provided by the Department of Energy Office
            of Biological and Environmental Research, Office of Basic
            Energy Sciences, and the Office of Advanced Scientific Computing.


           Job information
           ---------------

    hostname        = WE46210
    program         = /home/baum612/code/nwchem/bin/LINUX64/nwchem
    date            = Thu May  2 10:55:28 2024

    compiled        = Tue_Apr_30_12:43:26_2024
    source          = /home/baum612/code/nwchem
    nwchem branch   = 7.0.0
    nwchem revision = nwchem_on_git-4191-g39d87d64de
    ga revision     = 5.8.1
    use scalapack   = F
    input           = input.nw
    prefix          = H2O.
    data base       = ./H2O.db
    status          = startup
    nproc           =        1
    time left       =     -1s



           Memory information
           ------------------

    heap     =  805306362 doubles =   6144.0 Mbytes
    stack    =  805306367 doubles =   6144.0 Mbytes
    global   = 1610612736 doubles =  12288.0 Mbytes (distinct from heap & stack)
    total    = 3221225465 doubles =  24576.0 Mbytes
    verify   = yes
    hardfail = no 


           Directory information
           ---------------------

  0 permanent = .
  0 scratch   = .




                                NWChem Input Module
                                -------------------


                                        H2O
                                        ---
 Turning off AUTOSYM since
 SYMMETRY directive was detected!


          ------
          auto-z
          ------
  autoz: The atoms group into disjoint clusters
 cluster   1:    1    3
 cluster   2:    2
 Connecting clusters   1   2 via atoms    1    2 r = 1.50
  autoz: regenerating connections with new bonds
  no constraints, skipping    0.0000000000000000     
  no constraints, skipping    0.0000000000000000     


                             Geometry "geometry" -> ""
                             -------------------------

 Output coordinates in a.u. (scale by  1.000000000 to convert to a.u.)

  No.       Tag          Charge          X              Y              Z
 ---- ---------------- ---------- -------------- -------------- --------------
    1 O                    8.0000    -0.17255800    -0.21903130     0.00000000
    2 H                    1.0000    -0.17255800     2.61988170     0.00000000
    3 H                    1.0000     1.55302200    -0.86763130     0.00000000

      Atomic Mass 
      ----------- 

      O                 15.994910
      H                  1.007825


 Effective nuclear repulsion energy (a.u.)       7.4146680616

            Nuclear Dipole moment (a.u.) 
            ----------------------------
        X                 Y               Z
 ---------------- ---------------- ----------------
    -0.0000000000     0.0000000000     0.0000000000



                                Z-matrix (autoz)
                                -------- 

 Units are Angstrom for bonds and degrees for angles

      Type          Name      I     J     K     L     M      Value
      ----------- --------  ----- ----- ----- ----- ----- ----------
    1 Stretch                  1     2                       1.50229
    2 Stretch                  1     3                       0.97551
    3 Bend                     2     1     3               110.59992


            XYZ format geometry
            -------------------
     3
 geometry
 O                    -0.09131377    -0.11590638     0.00000000
 H                    -0.09131377     1.38638179     0.00000000
 H                     0.82182391    -0.45913074     0.00000000

 ==============================================================================
                                internuclear distances
 ------------------------------------------------------------------------------
       center one      |      center two      | atomic units |       a.u.
 ------------------------------------------------------------------------------
    3 H                |   1 O                |     1.84345  |     1.84345
 ------------------------------------------------------------------------------
                         number of included internuclear distances:          1
 ==============================================================================





 Summary of "ao basis" -> "" (spherical)
 ------------------------------------------------------------------------------
       Tag                 Description            Shells   Functions and Types
 ---------------- ------------------------------  ------  ---------------------
 *                          cc-pVTZ                   on all atoms 


                      Basis "ao basis" -> "ao basis" (spherical)
                      -----
  O (Oxygen)
  ----------
            Exponent  Coefficients 
       -------------- ---------------------------------------------------------
  1 S  1.53300000E+04  0.000508
  1 S  2.29900000E+03  0.003929
  1 S  5.22400000E+02  0.020243
  1 S  1.47300000E+02  0.079181
  1 S  4.75500000E+01  0.230687
  1 S  1.67600000E+01  0.433118
  1 S  6.20700000E+00  0.350260
  1 S  6.88200000E-01 -0.008154

  2 S  1.53300000E+04 -0.000115
  2 S  2.29900000E+03 -0.000895
  2 S  5.22400000E+02 -0.004636
  2 S  1.47300000E+02 -0.018724
  2 S  4.75500000E+01 -0.058463
  2 S  1.67600000E+01 -0.136463
  2 S  6.20700000E+00 -0.175740
  2 S  6.88200000E-01  0.603418

  3 S  1.75200000E+00  1.000000

  4 S  2.38400000E-01  1.000000

  5 P  3.44600000E+01  0.015928
  5 P  7.74900000E+00  0.099740
  5 P  2.28000000E+00  0.310492

  6 P  7.15600000E-01  1.000000

  7 P  2.14000000E-01  1.000000

  8 D  2.31400000E+00  1.000000

  9 D  6.45000000E-01  1.000000

 10 F  1.42800000E+00  1.000000

  H (Hydrogen)
  ------------
            Exponent  Coefficients 
       -------------- ---------------------------------------------------------
  1 S  3.38700000E+01  0.006068
  1 S  5.09500000E+00  0.045308
  1 S  1.15900000E+00  0.202822

  2 S  3.25800000E-01  1.000000

  3 S  1.02700000E-01  1.000000

  4 P  1.40700000E+00  1.000000

  5 P  3.88000000E-01  1.000000

  6 D  1.05700000E+00  1.000000



 Summary of "ao basis" -> "ao basis" (spherical)
 ------------------------------------------------------------------------------
       Tag                 Description            Shells   Functions and Types
 ---------------- ------------------------------  ------  ---------------------
 O                          cc-pVTZ                 10       30   4s3p2d1f
 H                          cc-pVTZ                  6       14   3s2p1d



                            NWChem Direct MCSCF Module
                            --------------------------


                                        H2O


     -----------------------------------
       Basis functions:             58
       Inactive shells:              0
       Active shells:                8
       Active electrons:            10
       Symmetry:                    a       
       Multiplicity:                 1
       Orbital rotations:          400
     -----------------------------------

     -----------------------------------
       E2 extrapolation:             F
       Conjugacy:                    T
       Micro CI relax:               T
       Canonical orbitals:           T
       Maximum iterations:          40
       Converge threshold:    1.00E-04
       Conjugacy resets:            20
       Initial levelshift:        0.10
     -----------------------------------

 Loading old vectors from job with title :

H2O


   input molecular orbitals = ./h2o.mos
  output molecular orbtials = ./h2o.mos

       No. of determinants:          3136


  Starting Orbital Energies
   -20.580537    -1.291379    -0.659968    -0.523357    -0.520830    -0.061041
    -0.026201    -0.014656     0.315435     0.347793     0.606300     0.767516
     0.792346     0.852010     0.958238     1.030326     1.037698     1.297554
     1.403227     1.804138     2.010466     2.054044     2.160331     2.197061
     2.704077     2.778827     3.359206     3.376872     3.424853     3.429023
     3.499459     3.576076     3.636773     3.764148     3.852203     3.921580
     3.981868     4.035751     4.106756     4.148087     4.432347     4.432913
     4.780446     4.923924     5.332324     5.680424     5.774405     5.883501
     6.183286     6.849017     6.879067     6.899356     6.922077     7.079400
     7.089227     7.432814     7.656956    10.915924

  Orbital Symmetry Irreps
a    a    a    a    a    a    a    a    a    a    a    a    a    a    a   
a    a    a    a    a    a    a    a    a    a    a    a    a    a    a   
a    a    a    a    a    a    a    a    a    a    a    a    a    a    a   
a    a    a    a    a    a    a    a    a    a    a    a    a   

 Integral file          = ./H2O.aoints.0
 Record size in doubles =  65536        No. of integs per rec  =  43688
 Max. records in memory =     49        Max. records in file   = 250660
 No. of bits per label  =      8        No. of bits per value  =     64


 #quartets = 3.213D+04 #integrals = 6.607D+05 #direct =  0.0% #cached =100.0%




          %%%%% MacroIteration   1 %%%%%


          Number of sigma calls:       19
                       o<<<<< (aa):             0.00
                       o<<<<< (bb):             0.00
                       o<<<<< (ab):             0.06
                       o<<<<< (total)           0.06
                       o<<<<< (aa) ff           0.00
                       o<<<<< (aa) gop          0.00
                       o<<<<< (aa) dot          0.00
                       o<<<<< (ab) str          0.00
                       o<<<<< (ab) gath         0.00
                       o<<<<< (ab) dotab        0.00
                       o<<<<< (ab) scat         0.00
                       o<<<<< (ab) sync         0.00
                       o<<<<< Density           0.01
                       o<<<<< Density one       0.00
                       o<<<<< Density two       0.00
                       o<<<<< Density ab        0.01
                       o<<<<< Spin adapt        0.25
                       o<<<<< Symm adapt        0.00

                       o<<<<< (ab) max sync:      0.00

           >>>| Valence CI:            -83.465363801767
           >>>| MCSCF energy:          -76.050695740133
           >>>| Gradient norm:          0.873006559D-02

                              ----- Line search ------

        step       energy         lsg     num-lsg   num-lsh   lsrat    time
      ------- ---------------- --------- --------- --------- ------- --------
       0.0000     -76.05069574 -1.21D-05  0.00D+00  0.00D+00 0.0D+00      1.0

          Number of sigma calls:       16
                       o<<<<< (aa):             0.00
                       o<<<<< (bb):             0.00
                       o<<<<< (ab):             0.04
                       o<<<<< (total)           0.05
                       o<<<<< (aa) ff           0.00
                       o<<<<< (aa) gop          0.00
                       o<<<<< (aa) dot          0.00
                       o<<<<< (ab) str          0.00
                       o<<<<< (ab) gath         0.00
                       o<<<<< (ab) dotab        0.00
                       o<<<<< (ab) scat         0.00
                       o<<<<< (ab) sync         0.00
                       o<<<<< Density           0.01
                       o<<<<< Density one       0.00
                       o<<<<< Density two       0.00
                       o<<<<< Density ab        0.00
                       o<<<<< Spin adapt        0.22
                       o<<<<< Symm adapt        0.00

                       o<<<<< (ab) max sync:      0.00
       1.0000     -76.05070263 -1.66D-06 -1.66D-06  1.05D-05 1.4D-01      1.3

          Number of sigma calls:       14
                       o<<<<< (aa):             0.00
                       o<<<<< (bb):             0.00
                       o<<<<< (ab):             0.04
                       o<<<<< (total)           0.05
                       o<<<<< (aa) ff           0.00
                       o<<<<< (aa) gop          0.00
                       o<<<<< (aa) dot          0.00
                       o<<<<< (ab) str          0.00
                       o<<<<< (ab) gath         0.00
                       o<<<<< (ab) dotab        0.00
                       o<<<<< (ab) scat         0.00
                       o<<<<< (ab) sync         0.00
                       o<<<<< Density           0.01
                       o<<<<< Density one       0.00
                       o<<<<< Density two       0.00
                       o<<<<< Density ab        0.00
                       o<<<<< Spin adapt        0.23
                       o<<<<< Symm adapt        0.00

                       o<<<<< (ab) max sync:      0.00
       1.1585     -76.05070276  9.44D-10  9.14D-10  1.05D-05 7.8D-05      1.7
     --- Orbitals canonicalized ---



          %%%%% MacroIteration   2 %%%%%


          Number of sigma calls:       17
                       o<<<<< (aa):             0.00
                       o<<<<< (bb):             0.00
                       o<<<<< (ab):             0.05
                       o<<<<< (total)           0.05
                       o<<<<< (aa) ff           0.00
                       o<<<<< (aa) gop          0.00
                       o<<<<< (aa) dot          0.00
                       o<<<<< (ab) str          0.00
                       o<<<<< (ab) gath         0.00
                       o<<<<< (ab) dotab        0.00
                       o<<<<< (ab) scat         0.00
                       o<<<<< (ab) sync         0.00
                       o<<<<< Density           0.01
                       o<<<<< Density one       0.00
                       o<<<<< Density two       0.00
                       o<<<<< Density ab        0.01
                       o<<<<< Spin adapt        0.27
                       o<<<<< Symm adapt        0.00

                       o<<<<< (ab) max sync:      0.00

           >>>| Valence CI:            -83.465370821382
           >>>| MCSCF energy:          -76.050702759748
           >>>| Gradient norm:          0.156574230D-02
     --- Warning:    3 Hessian diagonals < 0.05 ---
     --- Conjugacy reset ---

                              ----- Line search ------

        step       energy         lsg     num-lsg   num-lsh   lsrat    time
      ------- ---------------- --------- --------- --------- ------- --------
       0.0000     -76.05070276 -5.14D-07  0.00D+00  0.00D+00 0.0D+00      2.1

          Number of sigma calls:       14
                       o<<<<< (aa):             0.00
                       o<<<<< (bb):             0.00
                       o<<<<< (ab):             0.04
                       o<<<<< (total)           0.05
                       o<<<<< (aa) ff           0.00
                       o<<<<< (aa) gop          0.00
                       o<<<<< (aa) dot          0.00
                       o<<<<< (ab) str          0.00
                       o<<<<< (ab) gath         0.00
                       o<<<<< (ab) dotab        0.00
                       o<<<<< (ab) scat         0.00
                       o<<<<< (ab) sync         0.00
                       o<<<<< Density           0.01
                       o<<<<< Density one       0.00
                       o<<<<< Density two       0.00
                       o<<<<< Density ab        0.01
                       o<<<<< Spin adapt        0.24
                       o<<<<< Symm adapt        0.00

                       o<<<<< (ab) max sync:      0.00
       1.0000     -76.05070309 -1.48D-07 -1.48D-07  3.66D-07 2.9D-01      2.5

          Number of sigma calls:       12
                       o<<<<< (aa):             0.00
                       o<<<<< (bb):             0.00
                       o<<<<< (ab):             0.03
                       o<<<<< (total)           0.03
                       o<<<<< (aa) ff           0.00
                       o<<<<< (aa) gop          0.00
                       o<<<<< (aa) dot          0.00
                       o<<<<< (ab) str          0.00
                       o<<<<< (ab) gath         0.00
                       o<<<<< (ab) dotab        0.00
                       o<<<<< (ab) scat         0.00
                       o<<<<< (ab) sync         0.00
                       o<<<<< Density           0.01
                       o<<<<< Density one       0.00
                       o<<<<< Density two       0.00
                       o<<<<< Density ab        0.01
                       o<<<<< Spin adapt        0.15
                       o<<<<< Symm adapt        0.00

                       o<<<<< (ab) max sync:      0.00
       1.4035     -76.05070312  2.65D-10  2.54D-10  3.67D-07 5.2D-04      2.8



          %%%%% MacroIteration   3 %%%%%


          Number of sigma calls:        1
                       o<<<<< (aa):             0.00
                       o<<<<< (bb):             0.00
                       o<<<<< (ab):             0.00
                       o<<<<< (total)           0.00
                       o<<<<< (aa) ff           0.00
                       o<<<<< (aa) gop          0.00
                       o<<<<< (aa) dot          0.00
                       o<<<<< (ab) str          0.00
                       o<<<<< (ab) gath         0.00
                       o<<<<< (ab) dotab        0.00
                       o<<<<< (ab) scat         0.00
                       o<<<<< (ab) sync         0.00
                       o<<<<< Density           0.00
                       o<<<<< Density one       0.00
                       o<<<<< Density two       0.00
                       o<<<<< Density ab        0.00
                       o<<<<< Spin adapt        0.00
                       o<<<<< Symm adapt        0.00

                       o<<<<< (ab) max sync:      0.00

           >>>| Valence CI:            -83.465371181852
           >>>| MCSCF energy:          -76.050703120218
           >>>| Gradient norm:          0.493741299D-03
     --- Warning:    3 Hessian diagonals < 0.05 ---

                              ----- Line search ------

        step       energy         lsg     num-lsg   num-lsh   lsrat    time
      ------- ---------------- --------- --------- --------- ------- --------
       0.0000     -76.05070312 -3.81D-08  0.00D+00  0.00D+00 0.0D+00      2.9

          Number of sigma calls:       12
                       o<<<<< (aa):             0.00
                       o<<<<< (bb):             0.00
                       o<<<<< (ab):             0.04
                       o<<<<< (total)           0.04
                       o<<<<< (aa) ff           0.00
                       o<<<<< (aa) gop          0.00
                       o<<<<< (aa) dot          0.00
                       o<<<<< (ab) str          0.00
                       o<<<<< (ab) gath         0.00
                       o<<<<< (ab) dotab        0.00
                       o<<<<< (ab) scat         0.00
                       o<<<<< (ab) sync         0.00
                       o<<<<< Density           0.01
                       o<<<<< Density one       0.00
                       o<<<<< Density two       0.00
                       o<<<<< Density ab        0.01
                       o<<<<< Spin adapt        0.23
                       o<<<<< Symm adapt        0.00

                       o<<<<< (ab) max sync:      0.00
       1.0000     -76.05070314 -5.43D-09 -5.43D-09  3.27D-08 1.4D-01      3.3

          Number of sigma calls:       10
                       o<<<<< (aa):             0.00
                       o<<<<< (bb):             0.00
                       o<<<<< (ab):             0.03
                       o<<<<< (total)           0.03
                       o<<<<< (aa) ff           0.00
                       o<<<<< (aa) gop          0.00
                       o<<<<< (aa) dot          0.00
                       o<<<<< (ab) str          0.00
                       o<<<<< (ab) gath         0.00
                       o<<<<< (ab) dotab        0.00
                       o<<<<< (ab) scat         0.00
                       o<<<<< (ab) sync         0.00
                       o<<<<< Density           0.01
                       o<<<<< Density one       0.00
                       o<<<<< Density two       0.00
                       o<<<<< Density ab        0.01
                       o<<<<< Spin adapt        0.23
                       o<<<<< Symm adapt        0.00

                       o<<<<< (ab) max sync:      0.00
       1.1659     -76.05070314  2.17D-13 -3.54D-12  3.27D-08 5.7D-06      3.6



          %%%%% MacroIteration   4 %%%%%


          Number of sigma calls:        1
                       o<<<<< (aa):             0.00
                       o<<<<< (bb):             0.00
                       o<<<<< (ab):             0.00
                       o<<<<< (total)           0.00
                       o<<<<< (aa) ff           0.00
                       o<<<<< (aa) gop          0.00
                       o<<<<< (aa) dot          0.00
                       o<<<<< (ab) str          0.00
                       o<<<<< (ab) gath         0.00
                       o<<<<< (ab) dotab        0.00
                       o<<<<< (ab) scat         0.00
                       o<<<<< (ab) sync         0.00
                       o<<<<< Density           0.01
                       o<<<<< Density one       0.00
                       o<<<<< Density two       0.00
                       o<<<<< Density ab        0.01
                       o<<<<< Spin adapt        0.00
                       o<<<<< Symm adapt        0.00

                       o<<<<< (ab) max sync:      0.00

           >>>| Valence CI:            -83.465371204080
           >>>| MCSCF energy:          -76.050703142447
           >>>| Gradient norm:          0.976188698D-04




     ==============================
            MCSCF Converged
     ==============================



          Canonical Eigenvalues

              1      
    1  -20.5812
    2   -1.2914
    3   -0.6597
    4   -0.5237
    5   -0.5192
    6   -0.0622
    7   -0.0262
    8   -0.0146
    9    0.3152
   10    0.3484
   11    0.6063
   12    0.7690
   13    0.7915
   14    0.8530
   15    0.9577
   16    1.0282
   17    1.0335
   18    1.2989
   19    1.4026
   20    1.8016
   21    2.0087
   22    2.0540
   23    2.1570
   24    2.1937
   25    2.7029
   26    2.7793
   27    3.3609
   28    3.3745
   29    3.4250
   30    3.4287
   31    3.4966
   32    3.5760
   33    3.6376
   34    3.7575
   35    3.8517
   36    3.9193
   37    3.9812
   38    4.0340
   39    4.1039
   40    4.1451
   41    4.4275
   42    4.4311
   43    4.7748
   44    4.9166
   45    5.3258
   46    5.6756
   47    5.7679
   48    5.8787
   49    6.1641
   50    6.8468
   51    6.8764
   52    6.8973
   53    6.9176
   54    7.0781
   55    7.0883
   56    7.4262
   57    7.6547
   58   10.9137


          Converged CI vector

   Index           Coefficient          Config. Occupation
         1          0.94834874          1  2  3  4  5  1  2  3  4  5
         2          0.08134511          1  2  3  4  5  1  2  3  4  6
        23          0.07229810          1  2  3  4  5  1  2  3  5  8
         9          0.04326115          1  2  3  4  5  1  2  4  5  7
        41          0.02420143          1  2  3  4  5  1  2  5  7  8
        57          0.08134511          1  2  3  4  6  1  2  3  4  5
        58         -0.19102079          1  2  3  4  6  1  2  3  4  6
        79         -0.02937586          1  2  3  4  6  1  2  3  5  8
        60          0.06134215          1  2  3  4  6  1  2  4  5  6
        65         -0.02221013          1  2  3  4  6  1  2  4  5  7
        61          0.02130948          1  2  3  4  6  1  3  4  5  6
      1233          0.07229810          1  2  3  5  8  1  2  3  4  5
      1234         -0.02937586          1  2  3  5  8  1  2  3  4  6
      1255         -0.05146479          1  2  3  5  8  1  2  3  5  8
      1241         -0.03116006          1  2  3  5  8  1  2  4  5  7
       170          0.06134215          1  2  4  5  6  1  2  3  4  6
       172         -0.03109162          1  2  4  5  6  1  2  4  5  6
       449          0.04326115          1  2  4  5  7  1  2  3  4  5
       450         -0.02221013          1  2  4  5  7  1  2  3  4  6
       471         -0.03116006          1  2  4  5  7  1  2  3  5  8
       457         -0.06410677          1  2  4  5  7  1  2  4  5  7
       458          0.02786070          1  2  4  5  7  1  3  4  5  7
      2241          0.02420143          1  2  5  7  8  1  2  3  4  5
       226          0.02130948          1  3  4  5  6  1  2  3  4  6
       229         -0.02071293          1  3  4  5  6  1  3  4  5  6
       513          0.02786070          1  3  4  5  7  1  2  4  5  7
       514         -0.02638614          1  3  4  5  7  1  3  4  5  7

          Number of sigma calls:        1
                       o<<<<< (aa):             0.00
                       o<<<<< (bb):             0.00
                       o<<<<< (ab):             0.00
                       o<<<<< (total)           0.00
                       o<<<<< (aa) ff           0.00
                       o<<<<< (aa) gop          0.00
                       o<<<<< (aa) dot          0.00
                       o<<<<< (ab) str          0.00
                       o<<<<< (ab) gath         0.00
                       o<<<<< (ab) dotab        0.00
                       o<<<<< (ab) scat         0.00
                       o<<<<< (ab) sync         0.00
                       o<<<<< Density           0.00
                       o<<<<< Density one       0.00
                       o<<<<< Density two       0.00
                       o<<<<< Density ab        0.00
                       o<<<<< Spin adapt        0.00
                       o<<<<< Symm adapt        0.00

                       o<<<<< (ab) max sync:      0.00



          Natural orbital occupation numbers

              1      
    1    2.0000
    2    1.9980
    3    1.9806
    4    1.9739
    5    1.8890
    6    0.1129
    7    0.0269
    8    0.0187


          Number of sigma calls:       19
                       o<<<<< (aa):             0.00
                       o<<<<< (bb):             0.00
                       o<<<<< (ab):             0.06
                       o<<<<< (total)           0.06
                       o<<<<< (aa) ff           0.00
                       o<<<<< (aa) gop          0.00
                       o<<<<< (aa) dot          0.00
                       o<<<<< (ab) str          0.00
                       o<<<<< (ab) gath         0.00
                       o<<<<< (ab) dotab        0.00
                       o<<<<< (ab) scat         0.00
                       o<<<<< (ab) sync         0.00
                       o<<<<< Density           0.00
                       o<<<<< Density one       0.00
                       o<<<<< Density two       0.00
                       o<<<<< Density ab        0.00
                       o<<<<< Spin adapt        0.22
                       o<<<<< Symm adapt        0.00

                       o<<<<< (ab) max sync:      0.00


       Final MCSCF results 
       ------------------- 

       Total MCSCF energy =    -76.050703142447
            Gradient norm =      9.8D-05

    CPU time for solution =      4.0s
   Wall time for solution =      8.1s



                        Analysis of MCSCF natural orbitals
                        ----------------------------------

 Vector    1  Occ=1.999990D+00  E=-2.058123D+01  Symmetry=a
              MO Center= -9.1D-02, -1.2D-01, -3.0D-12, r^2= 1.5D-02
   Bfn.  Coefficient  Atom+Function         Bfn.  Coefficient  Atom+Function  
  ----- ------------  ---------------      ----- ------------  ---------------
     1      0.974769  1 O  s          

 Vector    2  Occ=1.998021D+00  E=-1.291396D+00  Symmetry=a
              MO Center= -2.8D-01, -1.6D-01,  1.8D-09, r^2= 4.2D-01
   Bfn.  Coefficient  Atom+Function         Bfn.  Coefficient  Atom+Function  
  ----- ------------  ---------------      ----- ------------  ---------------
     2      0.543214  1 O  s                  4      0.400095  1 O  s          
     3      0.150795  1 O  s          

 Vector    3  Occ=1.980626D+00  E=-6.597468D-01  Symmetry=a
              MO Center= -6.2D-02, -1.1D-01, -1.8D-09, r^2= 6.4D-01
   Bfn.  Coefficient  Atom+Function         Bfn.  Coefficient  Atom+Function  
  ----- ------------  ---------------      ----- ------------  ---------------
    10      0.437583  1 O  pz                13      0.392457  1 O  pz         
     7      0.365489  1 O  pz         

 Vector    4  Occ=1.973889D+00  E=-5.237162D-01  Symmetry=a
              MO Center=  3.4D-01, -2.4D-01, -3.2D-12, r^2= 6.0D-01
   Bfn.  Coefficient  Atom+Function         Bfn.  Coefficient  Atom+Function  
  ----- ------------  ---------------      ----- ------------  ---------------
     8      0.343311  1 O  px                 5      0.286685  1 O  px         
    46      0.270342  3 H  s                 11      0.200662  1 O  px         
    45      0.185898  3 H  s          

 Vector    5  Occ=1.889011D+00  E=-5.191839D-01  Symmetry=a
              MO Center= -4.7D-02,  5.2D-01, -6.8D-12, r^2= 1.1D+00
   Bfn.  Coefficient  Atom+Function         Bfn.  Coefficient  Atom+Function  
  ----- ------------  ---------------      ----- ------------  ---------------
     9      0.327299  1 O  py                32      0.285737  2 H  s          
     6      0.258692  1 O  py                12      0.220920  1 O  py         
    33      0.180874  2 H  s          

 Vector    6  Occ=1.128750D-01  E=-6.215906D-02  Symmetry=a
              MO Center= -6.1D-02,  7.7D-01, -2.5D-11, r^2= 1.1D+00
   Bfn.  Coefficient  Atom+Function         Bfn.  Coefficient  Atom+Function  
  ----- ------------  ---------------      ----- ------------  ---------------
    32      0.490117  2 H  s                  9     -0.435895  1 O  py         
     6     -0.362021  1 O  py                31      0.224474  2 H  s          
    33      0.218348  2 H  s          

 Vector    7  Occ=2.691209D-02  E=-2.620782D-02  Symmetry=a
              MO Center=  5.2D-01, -3.0D-01, -1.2D-10, r^2= 6.5D-01
   Bfn.  Coefficient  Atom+Function         Bfn.  Coefficient  Atom+Function  
  ----- ------------  ---------------      ----- ------------  ---------------
    46      0.661818  3 H  s                  5     -0.501652  1 O  px         
     8     -0.435553  1 O  px                45      0.309476  3 H  s          
     2     -0.284989  1 O  s                  4     -0.223568  1 O  s          

 Vector    8  Occ=1.867389D-02  E=-1.461957D-02  Symmetry=a
              MO Center=  7.4D-03, -9.9D-02, -2.3D-09, r^2= 1.3D+00
   Bfn.  Coefficient  Atom+Function         Bfn.  Coefficient  Atom+Function  
  ----- ------------  ---------------      ----- ------------  ---------------
    13      0.843779  1 O  pz                 7     -0.612932  1 O  pz         
    10     -0.331230  1 O  pz         

 Vector    9  Occ=0.000000D+00  E= 3.152323D-01  Symmetry=a
              MO Center=  1.0D+00, -6.7D-01,  6.6D-10, r^2= 3.6D+00
   Bfn.  Coefficient  Atom+Function         Bfn.  Coefficient  Atom+Function  
  ----- ------------  ---------------      ----- ------------  ---------------
    47      2.002590  3 H  s                  4     -1.447262  1 O  s          
    11     -0.709456  1 O  px                51     -0.498055  3 H  px         
    52      0.191677  3 H  py                32     -0.167550  2 H  s          

 Vector   10  Occ=0.000000D+00  E= 3.484368D-01  Symmetry=a
              MO Center= -1.3D-01,  1.7D+00,  1.7D-11, r^2= 3.6D+00
   Bfn.  Coefficient  Atom+Function         Bfn.  Coefficient  Atom+Function  
  ----- ------------  ---------------      ----- ------------  ---------------
    33      1.939817  2 H  s                 32     -1.100774  2 H  s          
    47     -0.770993  3 H  s                 12     -0.392590  1 O  py         
     4     -0.287899  1 O  s                 46      0.275288  3 H  s          

 Vector   11  Occ=0.000000D+00  E= 6.063297D-01  Symmetry=a
              MO Center= -2.8D-01,  4.8D-01, -1.2D-10, r^2= 2.0D+00
   Bfn.  Coefficient  Atom+Function         Bfn.  Coefficient  Atom+Function  
  ----- ------------  ---------------      ----- ------------  ---------------
    46      2.403590  3 H  s                  4     -1.913426  1 O  s          
    11     -1.845977  1 O  px                51     -0.698125  3 H  px         
    12      0.492430  1 O  py                37     -0.390833  2 H  px         
    47      0.272175  3 H  s                 33     -0.223648  2 H  s          
    32      0.210943  2 H  s                  9      0.162411  1 O  py         

 Vector   12  Occ=0.000000D+00  E= 7.689686D-01  Symmetry=a
              MO Center=  1.3D-01, -3.7D-01,  3.4D-13, r^2= 2.2D+00
   Bfn.  Coefficient  Atom+Function         Bfn.  Coefficient  Atom+Function  
  ----- ------------  ---------------      ----- ------------  ---------------
    46      1.496811  3 H  s                 12      1.472174  1 O  py         
     4     -1.233549  1 O  s                 11     -1.155402  1 O  px         
    52      0.644893  3 H  py                47      0.560645  3 H  s          
     9     -0.488994  1 O  py                32     -0.444185  2 H  s          
    33     -0.429492  2 H  s                 51     -0.387523  3 H  px         

 Vector   13  Occ=0.000000D+00  E= 7.915356D-01  Symmetry=a
              MO Center=  1.6D-01,  8.4D-01,  7.5D-11, r^2= 1.9D+00
   Bfn.  Coefficient  Atom+Function         Bfn.  Coefficient  Atom+Function  
  ----- ------------  ---------------      ----- ------------  ---------------
    39      0.878283  2 H  pz                53     -0.612657  3 H  pz         

 Vector   14  Occ=0.000000D+00  E= 8.529958D-01  Symmetry=a
              MO Center= -3.4D-01,  2.7D-02, -1.2D-10, r^2= 2.5D+00
   Bfn.  Coefficient  Atom+Function         Bfn.  Coefficient  Atom+Function  
  ----- ------------  ---------------      ----- ------------  ---------------
    11      1.283604  1 O  px                46     -1.222756  3 H  s          
    12      1.054384  1 O  py                37     -0.747609  2 H  px         
     4      0.713458  1 O  s                 52     -0.712113  3 H  py         
    32     -0.631424  2 H  s                 38      0.364663  2 H  py         
     9     -0.335919  1 O  py                47      0.332159  3 H  s          

 Vector   15  Occ=0.000000D+00  E= 9.577001D-01  Symmetry=a
              MO Center=  2.8D-01,  1.4D-02, -2.3D-10, r^2= 2.3D+00
   Bfn.  Coefficient  Atom+Function         Bfn.  Coefficient  Atom+Function  
  ----- ------------  ---------------      ----- ------------  ---------------
    53     -1.125295  3 H  pz                13      1.023925  1 O  pz         
    39     -0.645763  2 H  pz         

 Vector   16  Occ=0.000000D+00  E= 1.028197D+00  Symmetry=a
              MO Center=  2.9D-01,  1.3D-01,  1.4D-10, r^2= 2.5D+00
   Bfn.  Coefficient  Atom+Function         Bfn.  Coefficient  Atom+Function  
  ----- ------------  ---------------      ----- ------------  ---------------
     4      1.741724  1 O  s                 46     -1.714172  3 H  s          
    12     -1.252587  1 O  py                11      1.042995  1 O  px         
    51      0.974914  3 H  px                52      0.759662  3 H  py         
    37     -0.747662  2 H  px                32      0.367844  2 H  s          
    47     -0.331340  3 H  s                  8      0.193296  1 O  px         

 Vector   17  Occ=0.000000D+00  E= 1.033520D+00  Symmetry=a
              MO Center=  1.1D-02,  1.2D+00,  7.7D-10, r^2= 1.7D+00
   Bfn.  Coefficient  Atom+Function         Bfn.  Coefficient  Atom+Function  
  ----- ------------  ---------------      ----- ------------  ---------------
    38     -1.157234  2 H  py                 4      1.090202  1 O  s          
    46     -0.804162  3 H  s                 11      0.608433  1 O  px         
     2     -0.561894  1 O  s                 47     -0.547104  3 H  s          
    33      0.543029  2 H  s                 12     -0.413628  1 O  py         
     9     -0.251169  1 O  py                32     -0.239851  2 H  s          

 Vector   18  Occ=0.000000D+00  E= 1.298880D+00  Symmetry=a
              MO Center=  1.0D-02,  1.0D-01,  1.2D-09, r^2= 2.2D+00
   Bfn.  Coefficient  Atom+Function         Bfn.  Coefficient  Atom+Function  
  ----- ------------  ---------------      ----- ------------  ---------------
     4      5.221705  1 O  s                 46     -3.039687  3 H  s          
    51      1.811924  3 H  px                11      1.382185  1 O  px         
    52     -1.120119  3 H  py                38      0.976991  2 H  py         
     8      0.956617  1 O  px                 2     -0.782533  1 O  s          
    47     -0.745758  3 H  s                 32     -0.629715  2 H  s          


 Wrote Lagrangian and 1- and 2-particle density matrices to ./H2O.mcpdm


     Multipole analysis of the density
     ---------------------------------

     L   x y z        total        nuclear
     -   - - -        -----        -------
     0   0 0 0     -0.000000     10.000000

     1   1 0 0      0.547842     -0.000000
     1   0 1 0      0.351213      0.000000
     1   0 0 1      0.000000      0.000000

     2   2 0 0     -4.434424      2.679864
     2   1 1 0     -0.831720     -1.497167
     2   1 0 1     -0.000000      0.000000
     2   0 2 0     -3.023325      8.000362
     2   0 1 1     -0.000000      0.000000
     2   0 0 2     -5.849562      0.000000


  Mulliken analysis of the total density
  --------------------------------------

    Atom       Charge   Shell Charges
 -----------   ------   -------------------------------------------------------
    1 O    8     8.42   1.95  1.03  0.24  0.64  1.23  1.99  1.33  0.00  0.01  0.00
    2 H    1     0.82   0.15  0.43  0.21  0.00  0.03  0.00
    3 H    1     0.76   0.25  0.38  0.04  0.02  0.06  0.01

    Mulliken analysis of the active space density
    ---------------------------------------------

    Atom       Charge   Shell Charges
 -----------   ------   -------------------------------------------------------
    1 O    8     8.42   1.95  1.03  0.24  0.64  1.23  1.99  1.33  0.00  0.01  0.00
    2 H    1     0.82   0.15  0.43  0.21  0.00  0.03  0.00
    3 H    1     0.76   0.25  0.38  0.04  0.02  0.06  0.01

 Parallel integral file used      16 records with       0 large values


 Task  times  cpu:        4.1s     wall:        8.1s


                                NWChem Input Module
                                -------------------


                                 NWChem SCF Module
                                 -----------------


                                        H2O



  ao basis        = "ao basis"
  functions       =    58
  atoms           =     3
  closed shells   =     5
  open shells     =     0
  charge          =   0.00
  wavefunction    = RHF 
  input vectors   = ./h2o.mos
  output vectors  = ./h2o-trash.mos
  use symmetry    = F
  symmetry adapt  = F


 Summary of "ao basis" -> "ao basis" (spherical)
 ------------------------------------------------------------------------------
       Tag                 Description            Shells   Functions and Types
 ---------------- ------------------------------  ------  ---------------------
 O                          cc-pVTZ                 10       30   4s3p2d1f
 H                          cc-pVTZ                  6       14   3s2p1d



 Forming initial guess at       8.1s


 Loading old vectors from job with title :

H2O


 Starting SCF solution at       8.1s



 ----------------------------------------------
         Quadratically convergent ROHF

 Convergence threshold     :          1.000E-04
 Maximum no. of iterations :           30
 Final Fock-matrix accuracy:          1.000E-07
 ----------------------------------------------


 Integral file          = ./H2O.aoints.0
 Record size in doubles =  65536        No. of integs per rec  =  43688
 Max. records in memory =     49        Max. records in file   = 250698
 No. of bits per label  =      8        No. of bits per value  =     64


 #quartets = 3.213D+04 #integrals = 6.606D+05 #direct =  0.0% #cached =100.0%



       Final RHF  results 
       ------------------ 

         Total SCF energy =    -75.924588543870
      One-electron energy =   -119.650014425413
      Two-electron energy =     36.310757819910
 Nuclear repulsion energy =      7.414668061633

        Time for solution =      0.1s


             Final eigenvalues
             -----------------

              1      
    1  -20.5812
    2   -1.2914
    3   -0.6597
    4   -0.5237
    5   -0.5192
    6   -0.0622
    7   -0.0262
    8   -0.0146
    9    0.3152
   10    0.3484
   11    0.6063
   12    0.7690
   13    0.7915
   14    0.8530
   15    0.9577

                       ROHF Final Molecular Orbital Analysis
                       -------------------------------------

 Vector    2  Occ=2.000000D+00  E=-1.291396D+00
              MO Center= -2.8D-01, -1.6D-01,  1.8D-09, r^2= 4.2D-01
   Bfn.  Coefficient  Atom+Function         Bfn.  Coefficient  Atom+Function  
  ----- ------------  ---------------      ----- ------------  ---------------
     2      0.543214  1 O  s                  4      0.400095  1 O  s          
     3      0.150795  1 O  s          

 Vector    3  Occ=2.000000D+00  E=-6.597468D-01
              MO Center= -6.2D-02, -1.1D-01, -1.8D-09, r^2= 6.4D-01
   Bfn.  Coefficient  Atom+Function         Bfn.  Coefficient  Atom+Function  
  ----- ------------  ---------------      ----- ------------  ---------------
    10      0.437583  1 O  pz                13      0.392457  1 O  pz         
     7      0.365489  1 O  pz         

 Vector    4  Occ=2.000000D+00  E=-5.237162D-01
              MO Center=  3.4D-01, -2.4D-01, -3.2D-12, r^2= 6.0D-01
   Bfn.  Coefficient  Atom+Function         Bfn.  Coefficient  Atom+Function  
  ----- ------------  ---------------      ----- ------------  ---------------
     8      0.343311  1 O  px                 5      0.286685  1 O  px         
    46      0.270342  3 H  s                 11      0.200662  1 O  px         
    45      0.185898  3 H  s          

 Vector    5  Occ=2.000000D+00  E=-5.191839D-01
              MO Center= -4.7D-02,  5.2D-01, -6.8D-12, r^2= 1.1D+00
   Bfn.  Coefficient  Atom+Function         Bfn.  Coefficient  Atom+Function  
  ----- ------------  ---------------      ----- ------------  ---------------
     9      0.327299  1 O  py                32      0.285737  2 H  s          
     6      0.258692  1 O  py                12      0.220920  1 O  py         
    33      0.180874  2 H  s          

 Vector    6  Occ=0.000000D+00  E=-6.215906D-02
              MO Center= -6.1D-02,  7.7D-01, -2.5D-11, r^2= 1.1D+00
   Bfn.  Coefficient  Atom+Function         Bfn.  Coefficient  Atom+Function  
  ----- ------------  ---------------      ----- ------------  ---------------
    32      0.490117  2 H  s                  9     -0.435895  1 O  py         
     6     -0.362021  1 O  py                31      0.224474  2 H  s          
    33      0.218348  2 H  s          

 Vector    7  Occ=0.000000D+00  E=-2.620782D-02
              MO Center=  5.2D-01, -3.0D-01, -1.2D-10, r^2= 6.5D-01
   Bfn.  Coefficient  Atom+Function         Bfn.  Coefficient  Atom+Function  
  ----- ------------  ---------------      ----- ------------  ---------------
    46      0.661818  3 H  s                  5     -0.501652  1 O  px         
     8     -0.435553  1 O  px                45      0.309476  3 H  s          
     2     -0.284989  1 O  s                  4     -0.223568  1 O  s          

 Vector    8  Occ=0.000000D+00  E=-1.461957D-02
              MO Center=  7.4D-03, -9.9D-02, -2.3D-09, r^2= 1.3D+00
   Bfn.  Coefficient  Atom+Function         Bfn.  Coefficient  Atom+Function  
  ----- ------------  ---------------      ----- ------------  ---------------
    13      0.843779  1 O  pz                 7     -0.612932  1 O  pz         
    10     -0.331230  1 O  pz         

 Vector    9  Occ=0.000000D+00  E= 3.152323D-01
              MO Center=  1.0D+00, -6.7D-01,  6.6D-10, r^2= 3.6D+00
   Bfn.  Coefficient  Atom+Function         Bfn.  Coefficient  Atom+Function  
  ----- ------------  ---------------      ----- ------------  ---------------
    47      2.002590  3 H  s                  4     -1.447262  1 O  s          
    11     -0.709456  1 O  px                51     -0.498055  3 H  px         
    52      0.191677  3 H  py                32     -0.167550  2 H  s          

 Vector   10  Occ=0.000000D+00  E= 3.484368D-01
              MO Center= -1.3D-01,  1.7D+00,  1.7D-11, r^2= 3.6D+00
   Bfn.  Coefficient  Atom+Function         Bfn.  Coefficient  Atom+Function  
  ----- ------------  ---------------      ----- ------------  ---------------
    33      1.939817  2 H  s                 32     -1.100774  2 H  s          
    47     -0.770993  3 H  s                 12     -0.392590  1 O  py         
     4     -0.287899  1 O  s                 46      0.275288  3 H  s          

 Vector   11  Occ=0.000000D+00  E= 6.063297D-01
              MO Center= -2.8D-01,  4.8D-01, -1.2D-10, r^2= 2.0D+00
   Bfn.  Coefficient  Atom+Function         Bfn.  Coefficient  Atom+Function  
  ----- ------------  ---------------      ----- ------------  ---------------
    46      2.403590  3 H  s                  4     -1.913426  1 O  s          
    11     -1.845977  1 O  px                51     -0.698125  3 H  px         
    12      0.492430  1 O  py                37     -0.390833  2 H  px         
    47      0.272175  3 H  s                 33     -0.223648  2 H  s          
    32      0.210943  2 H  s                  9      0.162411  1 O  py         

 Vector   12  Occ=0.000000D+00  E= 7.689686D-01
              MO Center=  1.3D-01, -3.7D-01,  3.4D-13, r^2= 2.2D+00
   Bfn.  Coefficient  Atom+Function         Bfn.  Coefficient  Atom+Function  
  ----- ------------  ---------------      ----- ------------  ---------------
    46      1.496811  3 H  s                 12      1.472174  1 O  py         
     4     -1.233549  1 O  s                 11     -1.155402  1 O  px         
    52      0.644893  3 H  py                47      0.560645  3 H  s          
     9     -0.488994  1 O  py                32     -0.444185  2 H  s          
    33     -0.429492  2 H  s                 51     -0.387523  3 H  px         

 Vector   13  Occ=0.000000D+00  E= 7.915356D-01
              MO Center=  1.6D-01,  8.4D-01,  7.5D-11, r^2= 1.9D+00
   Bfn.  Coefficient  Atom+Function         Bfn.  Coefficient  Atom+Function  
  ----- ------------  ---------------      ----- ------------  ---------------
    39      0.878283  2 H  pz                53     -0.612657  3 H  pz         

 Vector   14  Occ=0.000000D+00  E= 8.529958D-01
              MO Center= -3.4D-01,  2.7D-02, -1.2D-10, r^2= 2.5D+00
   Bfn.  Coefficient  Atom+Function         Bfn.  Coefficient  Atom+Function  
  ----- ------------  ---------------      ----- ------------  ---------------
    11      1.283604  1 O  px                46     -1.222756  3 H  s          
    12      1.054384  1 O  py                37     -0.747609  2 H  px         
     4      0.713458  1 O  s                 52     -0.712113  3 H  py         
    32     -0.631424  2 H  s                 38      0.364663  2 H  py         
     9     -0.335919  1 O  py                47      0.332159  3 H  s          

 Vector   15  Occ=0.000000D+00  E= 9.577001D-01
              MO Center=  2.8D-01,  1.4D-02, -2.3D-10, r^2= 2.3D+00
   Bfn.  Coefficient  Atom+Function         Bfn.  Coefficient  Atom+Function  
  ----- ------------  ---------------      ----- ------------  ---------------
    53     -1.125295  3 H  pz                13      1.023925  1 O  pz         
    39     -0.645763  2 H  pz         


 center of mass
 --------------
 x =  -0.07599894 y =  -0.09646697 z =   0.00000000

 moments of inertia (a.u.)
 ------------------
           8.275910937008           1.341118515072           0.000000000000
           1.341118515072           2.833002082974           0.000000000000
           0.000000000000           0.000000000000          11.108913019982

  Mulliken analysis of the total density
  --------------------------------------

    Atom       Charge   Shell Charges
 -----------   ------   -------------------------------------------------------
    1 O    8     8.44   1.95  1.03  0.24  0.64  1.21  2.00  1.35  0.00  0.01  0.00
    2 H    1     0.81   0.15  0.42  0.21  0.00  0.03  0.00
    3 H    1     0.75   0.25  0.38  0.04  0.02  0.06  0.01

       Multipole analysis of the density wrt the origin
       ------------------------------------------------

     L   x y z        total         open         nuclear
     -   - - -        -----         ----         -------
     0   0 0 0     -0.000000      0.000000     10.000000

     1   1 0 0      0.558169      0.000000     -0.000000
     1   0 1 0      0.404624      0.000000      0.000000
     1   0 0 1      0.000000      0.000000      0.000000

     2   2 0 0     -4.420330      0.000000      2.679864
     2   1 1 0     -0.859162      0.000000     -1.497167
     2   1 0 1     -0.000000      0.000000      0.000000
     2   0 2 0     -2.851697      0.000000      8.000362
     2   0 1 1     -0.000000      0.000000      0.000000
     2   0 0 2     -5.838999      0.000000      0.000000


 Parallel integral file used      16 records with       0 large values

 ------------------------------------
     Number of active orbitals      8
     Number of active alpha electrons      5
     Number of active beta electrons       5
 ------------------------------------
                   NWChem Extensible Many-Electron Theory Module
                   ---------------------------------------------

              ======================================================
                   This portion of the program was automatically
                  generated by a Tensor Contraction Engine (TCE).
                  The development of this portion of the program
                 and TCE was supported by US Department of Energy,
                Office of Science, Office of Basic Energy Science.
                      TCE is a product of Battelle and PNNL.
              Please cite: S.Hirata, J.Phys.Chem.A 107, 9887 (2003).
              ======================================================

                                        H2O


            General Information
            -------------------
      Number of processors :     1
         Wavefunction type : Restricted Hartree-Fock
          No. of electrons :    10
           Alpha electrons :     5
            Beta electrons :     5
           No. of orbitals :   116
            Alpha orbitals :    58
             Beta orbitals :    58
        Alpha frozen cores :     0
         Beta frozen cores :     0
     Alpha frozen virtuals :    50
      Beta frozen virtuals :    50
         Spin multiplicity : singlet 
    Number of AO functions :    58
       Number of AO shells :    22
        Use of symmetry is : off
      Symmetry adaption is : off
         Schwarz screening : 0.10D-09

          Correlation Information
          -----------------------
          Calculation type : Coupled-cluster singles & doubles                           
   Perturbative correction : none                                                        
            Max iterations :      300
        Residual threshold : 0.10D-06
     T(0) DIIS level shift : 0.00D+00
     L(0) DIIS level shift : 0.00D+00
     T(1) DIIS level shift : 0.00D+00
     L(1) DIIS level shift : 0.00D+00
     T(R) DIIS level shift : 0.00D+00
     T(I) DIIS level shift : 0.00D+00
   CC-T/L Amplitude update :  5-th order DIIS
                I/O scheme : Global Array Library
        L-threshold :  0.10D-06
        EOM-threshold :  0.10D-06
 no EOMCCSD initial starts read in
 TCE RESTART OPTIONS
 READ_INT:   F
 WRITE_INT:  F
 READ_TA:    F
 WRITE_TA:   F
 READ_XA:    F
 WRITE_XA:   F
 READ_IN3:   F
 WRITE_IN3:  F
 SLICE:      F
 D4D5:       F
 quantumc:   T
 qrotation:  F
 pwtce:      F
 qducc:      F
 nacto:                         0
 nrotv:                         0
 nrot:                          0

            Memory Information
            ------------------
          Available GA space size is    1610609372 doubles
          Available MA space size is    1610609772 doubles

 Maximum block size supplied by input
 Maximum block size         1 doubles

 tile_dim =      1

 Block   Spin    Irrep     Size     Offset   Alpha
 -------------------------------------------------
   1    alpha     a      1 doubles       0       1
   2    alpha     a      1 doubles       1       2
   3    alpha     a      1 doubles       2       3
   4    alpha     a      1 doubles       3       4
   5    alpha     a      1 doubles       4       5
   6    beta      a      1 doubles       5       1
   7    beta      a      1 doubles       6       2
   8    beta      a      1 doubles       7       3
   9    beta      a      1 doubles       8       4
  10    beta      a      1 doubles       9       5
  11    alpha     a      1 doubles      10      11
  12    alpha     a      1 doubles      11      12
  13    alpha     a      1 doubles      12      13
  14    beta      a      1 doubles      13      11
  15    beta      a      1 doubles      14      12
  16    beta      a      1 doubles      15      13

 Global array virtual files algorithm will be used

 Parallel file system coherency ......... OK

 Integral file          = ./H2O.aoints.0
 Record size in doubles =  65536        No. of integs per rec  =  43688
 Max. records in memory =     49        Max. records in file   = 250698
 No. of bits per label  =      8        No. of bits per value  =     64


 #quartets = 3.213D+04 #integrals = 6.608D+05 #direct =  0.0% #cached =100.0%


 Fock matrix recomputed
 1-e file size   =               64
 1-e file name   = ./H2O.f1
 Cpu & wall time / sec            0.1            0.1
 4-electron integrals stored in orbital form

 v2    file size   =              666
 4-index algorithm nr.  13 is used
 imaxsize =       30
 imaxsize ichop =        0
 begin_one_electron_integrals
    1    1       -32.8121607645
    2    1        -0.7058797704
    3    1        -0.0000000009
    4    1         0.1250605367
    5    1         0.0176683211
    6    1        -0.1385141616
    7    1        -0.2049568071
    8    1         0.0000000016
    1    2        -0.7058797704
    2    2        -7.7171766204
    3    2         0.0000000020
    4    2        -0.2612738881
    5    2         0.0042223961
    6    2         0.2614775225
    7    2         0.1099161809
    8    2         0.0000000006
    1    3        -0.0000000009
    2    3         0.0000000020
    3    3        -6.9073564358
    4    3         0.0000000007
    6    3        -0.0000000007
    7    3        -0.0000000009
    8    3         2.1567420151
    1    4         0.1250605367
    2    4        -0.2612738881
    3    4         0.0000000007
    4    4        -6.6977994027
    5    4        -0.0807262015
    6    4         0.0291516297
    7    4         1.9918499571
    8    4         0.0000000015
    1    5         0.0176683211
    2    5         0.0042223961
    4    5        -0.0807262015
    5    5        -5.6905139893
    6    5         2.0939520982
    7    5        -0.0310846731
    8    5         0.0000000013
    1    6        -0.1385141616
    2    6         0.2614775225
    3    6        -0.0000000007
    4    6         0.0291516297
    5    6         2.0939520982
    6    6        -5.4917962282
    7    6         0.0381776786
    8    6         0.0000000001
    1    7        -0.2049568071
    2    7         0.1099161809
    3    7        -0.0000000009
    4    7         1.9918499571
    5    7        -0.0310846731
    6    7         0.0381776786
    7    7        -5.9902563619
    1    8         0.0000000016
    2    8         0.0000000006
    3    8         2.1567420151
    4    8         0.0000000015
    5    8         0.0000000013
    6    8         0.0000000001
    8    8        -5.2824836452
 end_one_electron_integrals
 begin_two_electron_integrals
    1    1    1    1        4.8148813621
    2    1    1    1       -0.2652521773
    2    1    2    1        0.0352579903
    3    1    1    1        0.0000000011
    3    1    3    1        0.0282932492
    3    1    2    2        0.0000000002
    4    1    1    1       -0.0882682301
    4    1    2    1        0.0031054118
    4    1    4    1        0.0213760032
    4    1    2    2       -0.0142782453
    4    1    3    3       -0.0022187470
    5    1    1    1       -0.0154043553
    5    1    2    1       -0.0008842236
    5    1    4    1        0.0013746890
    5    1    5    1        0.0156040482
    5    1    2    2       -0.0048833740
    5    1    4    2        0.0002921733
    5    1    3    3        0.0002442209
    5    1    4    4        0.0003136331
    6    1    1    1        0.1011008189
    6    1    2    1       -0.0072559028
    6    1    4    1       -0.0026167308
    6    1    5    1       -0.0206130053
    6    1    6    1        0.0294336696
    6    1    2    2        0.0100607678
    6    1    4    2        0.0010462319
    6    1    5    2       -0.0200094306
    6    1    3    3        0.0036775618
    6    1    4    4        0.0037807497
    6    1    5    4       -0.0036482000
    6    1    5    5       -0.0031079908
    7    1    1    1        0.1668472239
    7    1    2    1       -0.0087422363
    7    1    4    1       -0.0334834784
    7    1    5    1       -0.0006756167
    7    1    6    1        0.0030533290
    7    1    7    1        0.0531623855
    7    1    2    2        0.0222683279
    7    1    4    2       -0.0265102002
    7    1    5    2        0.0008705439
    7    1    6    2       -0.0046265401
    7    1    3    3        0.0034535626
    7    1    4    4       -0.0152577972
    7    1    5    4       -0.0006858554
    7    1    6    4        0.0038281717
    7    1    5    5        0.0028901280
    7    1    6    5       -0.0021528000
    7    1    6    6        0.0049436983
    8    1    1    1       -0.0000000013
    8    1    3    1       -0.0387327464
    8    1    8    1        0.0533325282
    8    1    2    2       -0.0000000002
    8    1    3    2       -0.0371210850
    8    1    3    3        0.0000000002
    8    1    4    3       -0.0073846315
    8    1    5    3       -0.0019957869
    8    1    6    3        0.0066177951
    8    1    7    3        0.0098486353
    2    2    1    1        1.0826482041
    2    2    2    1        0.0059801676
    2    2    2    2        0.8297690045
    3    2    1    1       -0.0000000001
    3    2    3    1        0.0258759525
    3    2    2    2        0.0000000005
    3    2    3    2        0.1396288259
    4    2    1    1       -0.0050038846
    4    2    2    1       -0.0044379766
    4    2    4    1        0.0167781622
    4    2    2    2       -0.0548357452
    4    2    3    2        0.0000000002
    4    2    4    2        0.0909507208
    4    2    3    3        0.0101785891
    5    2    1    1       -0.0291517021
    5    2    2    1       -0.0020259601
    5    2    4    1        0.0005913139
    5    2    5    1        0.0144005750
    5    2    2    2       -0.0381839576
    5    2    4    2       -0.0037586538
    5    2    5    2        0.0894224472
    5    2    3    3       -0.0092923850
    5    2    4    4       -0.0152491234
    6    2    1    1       -0.0562981341
    6    2    2    1        0.0018490030
    6    2    4    1        0.0018164928
    6    2    5    1       -0.0151281030
    6    2    6    1        0.0197215035
    6    2    2    2       -0.0108318573
    6    2    4    2        0.0101730854
    6    2    5    2       -0.0712506557
    6    2    6    2        0.0689111481
    6    2    3    3       -0.0289760423
    6    2    5    3        0.0000000001
    6    2    4    4       -0.0149648213
    6    2    5    4       -0.0112925135
    6    2    5    5       -0.0313786895
    7    2    1    1       -0.0244994215
    7    2    2    1        0.0050112823
    7    2    4    1       -0.0161650494
    7    2    5    1        0.0012733213
    7    2    6    1       -0.0032894207
    7    2    7    1        0.0242531662
    7    2    2    2        0.0256128426
    7    2    3    2       -0.0000000002
    7    2    4    2       -0.0583724055
    7    2    5    2        0.0087743991
    7    2    6    2       -0.0130846793
    7    2    7    2        0.0511832505
    7    2    3    3       -0.0168440811
    7    2    4    3        0.0000000001
    7    2    4    4       -0.0342091638
    7    2    5    4       -0.0009414511
    7    2    6    4        0.0068527094
    7    2    5    5       -0.0072535067
    7    2    6    5        0.0109147792
    7    2    6    6       -0.0073987751
    8    2    3    1       -0.0203445097
    8    2    8    1        0.0262687950
    8    2    2    2       -0.0000000003
    8    2    3    2       -0.0528198371
    8    2    8    2        0.0434499604
    8    2    3    3        0.0000000002
    8    2    4    3       -0.0051946949
    8    2    5    3       -0.0004543644
    8    2    6    3        0.0096046517
    8    2    7    3        0.0117949691
    3    3    1    1        1.0368358005
    3    3    2    1        0.0033966949
    3    3    3    1       -0.0000000001
    3    3    2    2        0.7330080022
    3    3    3    2       -0.0000000007
    3    3    3    3        0.7485219099
    4    3    3    1        0.0053087960
    4    3    2    2        0.0000000003
    4    3    3    2        0.0223720040
    4    3    4    2       -0.0000000001
    4    3    3    3       -0.0000000001
    4    3    4    3        0.0358990917
    5    3    3    1        0.0013317714
    5    3    2    2        0.0000000001
    5    3    3    2        0.0059920694
    5    3    5    2       -0.0000000002
    5    3    4    3        0.0024038639
    5    3    5    3        0.0243931711
    6    3    1    1        0.0000000002
    6    3    3    1       -0.0049314631
    6    3    3    2       -0.0168672810
    6    3    5    2        0.0000000001
    6    3    6    2       -0.0000000001
    6    3    3    3        0.0000000002
    6    3    4    3       -0.0030844762
    6    3    5    3       -0.0194662495
    6    3    6    3        0.0218008975
    7    3    1    1        0.0000000002
    7    3    3    1       -0.0075907519
    7    3    2    2       -0.0000000001
    7    3    3    2       -0.0197395134
    7    3    4    2        0.0000000001
    7    3    3    3        0.0000000002
    7    3    4    3       -0.0197411560
    7    3    5    3       -0.0002955628
    7    3    6    3        0.0027726777
    7    3    7    3        0.0244208019
    7    3    4    4        0.0000000001
    8    3    1    1       -0.5330138697
    8    3    2    1       -0.0006445057
    8    3    4    1        0.0034798756
    8    3    5    1        0.0000719378
    8    3    6    1       -0.0038316454
    8    3    7    1       -0.0061110329
    8    3    8    1       -0.0000000001
    8    3    2    2       -0.2181085453
    8    3    3    2        0.0000000003
    8    3    4    2        0.0050911581
    8    3    5    2        0.0077419483
    8    3    6    2        0.0169975227
    8    3    7    2        0.0081360357
    8    3    8    2       -0.0000000002
    8    3    3    3       -0.2123833481
    8    3    7    3       -0.0000000001
    8    3    8    3        0.1639994678
    8    3    4    4       -0.1478023330
    8    3    5    4       -0.0044456895
    8    3    6    4        0.0021281163
    8    3    7    4        0.1246604909
    8    3    5    5       -0.1189155974
    8    3    6    5        0.1093026655
    8    3    7    5       -0.0016845180
    8    3    6    6       -0.1397435431
    8    3    7    6        0.0034855932
    8    3    7    7       -0.1737477843
    4    4    1    1        0.9037806631
    4    4    2    1        0.0006036993
    4    4    4    1        0.0090303817
    4    4    2    2        0.6350382256
    4    4    4    2        0.0799622901
    4    4    3    3        0.6305659532
    4    4    4    3       -0.0000000002
    4    4    4    4        0.7647906914
    5    4    1    1        0.0184669365
    5    4    2    1       -0.0004774374
    5    4    4    1        0.0007386012
    5    4    5    1        0.0029386038
    5    4    2    2        0.0022385925
    5    4    4    2       -0.0004263948
    5    4    5    2        0.0108220739
    5    4    3    3        0.0084104123
    5    4    4    4        0.0057078408
    5    4    5    4        0.0225276959
    6    4    1    1       -0.0083809120
    6    4    2    1        0.0014052292
    6    4    4    1       -0.0029079917
    6    4    5    1       -0.0032747595
    6    4    6    1        0.0040810466
    6    4    2    2        0.0088178335
    6    4    4    2       -0.0061039025
    6    4    5    2       -0.0131687730
    6    4    6    2        0.0099303710
    6    4    3    3       -0.0028662783
    6    4    4    4       -0.0022622387
    6    4    5    4       -0.0181178954
    6    4    6    4        0.0191049784
    6    4    5    5       -0.0114084628
    7    4    1    1       -0.4803394765
    7    4    2    1        0.0012067747
    7    4    4    1       -0.0044095603
    7    4    5    1       -0.0001721271
    7    4    6    1       -0.0032699733
    7    4    7    1        0.0037626254
    7    4    2    2       -0.2119885626
    7    4    4    2        0.0113350294
    7    4    5    2        0.0017999921
    7    4    6    2        0.0171992999
    7    4    7    2        0.0186518025
    7    4    3    3       -0.1847904314
    7    4    4    4       -0.1087989747
    7    4    5    4       -0.0078836702
    7    4    6    4        0.0082430294
    7    4    7    4        0.2089859430
    7    4    5    5       -0.1254161867
    7    4    6    5        0.0975964735
    7    4    6    6       -0.1440804562
    8    4    1    1       -0.0000000003
    8    4    3    1       -0.0029306572
    8    4    8    1        0.0033566026
    8    4    2    2       -0.0000000002
    8    4    3    2        0.0012543970
    8    4    8    2        0.0038867521
    8    4    3    3       -0.0000000001
    8    4    4    3       -0.0038222651
    8    4    5    3       -0.0003083901
    8    4    6    3        0.0012293273
    8    4    7    3        0.0162942453
    8    4    4    4       -0.0000000002
    8    4    8    4        0.0168668328
    8    4    7    7       -0.0000000002
    5    5    1    1        0.7560386220
    5    5    2    1        0.0019278947
    5    5    4    1       -0.0014615127
    5    5    5    1        0.0029241613
    5    5    2    2        0.5744021594
    5    5    4    2        0.0001285028
    5    5    5    2        0.0366987414
    5    5    3    3        0.5413192343
    5    5    5    3       -0.0000000001
    5    5    4    4        0.5024887524
    5    5    5    4        0.0094485081
    5    5    5    5        0.5749988712
    6    5    1    1       -0.4379781799
    6    5    2    1       -0.0013532862
    6    5    4    1        0.0013258479
    6    5    5    1       -0.0029127613
    6    5    6    1       -0.0002412815
    6    5    2    2       -0.2341403323
    6    5    4    2       -0.0089870257
    6    5    5    2        0.0230243502
    6    5    6    2        0.0163704106
    6    5    3    3       -0.2080191819
    6    5    4    4       -0.1886638109
    6    5    5    4       -0.0069533527
    6    5    6    4       -0.0025883283
    6    5    5    5       -0.0789235969
    6    5    6    5        0.2137231700
    7    5    1    1        0.0055985499
    7    5    2    1        0.0009993213
    7    5    4    1       -0.0010933039
    7    5    5    1       -0.0042675754
    7    5    6    1        0.0054824665
    7    5    7    1        0.0012868690
    7    5    2    2        0.0109902093
    7    5    4    2       -0.0023347094
    7    5    5    2       -0.0124193273
    7    5    6    2        0.0112370365
    7    5    7    2       -0.0004835876
    7    5    3    3        0.0033273363
    7    5    4    4       -0.0030717230
    7    5    5    4       -0.0110159074
    7    5    6    4        0.0135558711
    7    5    7    4       -0.0033194645
    7    5    5    5       -0.0015645116
    7    5    6    5       -0.0025478596
    7    5    7    5        0.0147567214
    7    5    6    6       -0.0038087081
    8    5    1    1       -0.0000000003
    8    5    3    1       -0.0006402277
    8    5    8    1        0.0005720697
    8    5    2    2       -0.0000000001
    8    5    3    2        0.0040899224
    8    5    8    2        0.0011719949
    8    5    3    3       -0.0000000001
    8    5    4    3        0.0001428650
    8    5    5    3       -0.0035074918
    8    5    6    3        0.0098691453
    8    5    7    3        0.0002569532
    8    5    8    4        0.0011099336
    8    5    5    5       -0.0000000001
    8    5    8    5        0.0133581721
    6    6    1    1        0.8377098716
    6    6    2    1        0.0007893229
    6    6    4    1       -0.0023947865
    6    6    5    1        0.0061146027
    6    6    6    1       -0.0062643516
    6    6    2    2        0.5701137404
    6    6    4    2       -0.0016908175
    6    6    5    2        0.0427961773
    6    6    6    2       -0.0400800710
    6    6    3    3        0.5403366181
    6    6    5    3       -0.0000000001
    6    6    6    3        0.0000000001
    6    6    4    4        0.4946558460
    6    6    5    4        0.0082971276
    6    6    6    4       -0.0136069717
    6    6    5    5        0.5849168026
    6    6    6    5       -0.0599135330
    6    6    6    6        0.6290272815
    7    6    1    1       -0.0094874205
    7    6    2    1       -0.0021777980
    7    6    4    1        0.0038993211
    7    6    5    1        0.0051333017
    7    6    6    1       -0.0062983207
    7    6    7    1       -0.0054827560
    7    6    2    2       -0.0214205869
    7    6    4    2        0.0138421236
    7    6    5    2        0.0141768896
    7    6    6    2       -0.0125801631
    7    6    7    2       -0.0077747588
    7    6    3    3       -0.0028246035
    7    6    4    4        0.0110840678
    7    6    5    4        0.0162552989
    7    6    6    4       -0.0171539324
    7    6    7    4        0.0063485994
    7    6    5    5       -0.0017910932
    7    6    6    5       -0.0020478399
    7    6    7    5       -0.0157794668
    7    6    6    6       -0.0027464811
    7    6    7    6        0.0215203041
    8    6    3    1        0.0047532598
    8    6    8    1       -0.0066419194
    8    6    3    2        0.0176915939
    8    6    8    2       -0.0066285670
    8    6    3    3       -0.0000000001
    8    6    4    3        0.0036921690
    8    6    5    3        0.0146922313
    8    6    6    3       -0.0144833847
    8    6    7    3       -0.0020253727
    8    6    8    4        0.0000224021
    8    6    8    5       -0.0058441390
    8    6    8    6        0.0163419566
    7    7    1    1        1.0549156006
    7    7    2    1       -0.0032785397
    7    7    4    1        0.0093348239
    7    7    5    1       -0.0000459783
    7    7    6    1        0.0063705238
    7    7    7    1       -0.0146769426
    7    7    2    2        0.6291562202
    7    7    4    2        0.0712270571
    7    7    5    2       -0.0164792709
    7    7    6    2       -0.0168654455
    7    7    7    2       -0.0342644608
    7    7    3    3        0.6285636293
    7    7    4    3       -0.0000000002
    7    7    7    3        0.0000000002
    7    7    4    4        0.7448784344
    7    7    5    4        0.0045340040
    7    7    6    4       -0.0002115923
    7    7    7    4       -0.1129852441
    7    7    5    5        0.4943592290
    7    7    6    5       -0.1990234482
    7    7    7    5       -0.0024804518
    7    7    6    6        0.4975101373
    7    7    7    6        0.0103890802
    7    7    7    7        0.7826888491
    8    7    3    1        0.0076326459
    8    7    8    1       -0.0104245025
    8    7    2    2        0.0000000002
    8    7    3    2        0.0251605668
    8    7    8    2       -0.0081249948
    8    7    3    3       -0.0000000002
    8    7    4    3        0.0276183490
    8    7    5    3        0.0015803076
    8    7    6    3       -0.0025862104
    8    7    7    3       -0.0172486312
    8    7    8    4       -0.0046572696
    8    7    8    5        0.0008254204
    8    7    8    6        0.0039527095
    8    7    8    7        0.0296241700
    8    8    1    1        1.0170070561
    8    8    2    1       -0.0011938316
    8    8    4    1       -0.0039760050
    8    8    5    1        0.0001744768
    8    8    6    1        0.0047295651
    8    8    7    1        0.0064737919
    8    8    8    1        0.0000000001
    8    8    2    2        0.6252765641
    8    8    3    2       -0.0000000005
    8    8    4    2        0.0087900949
    8    8    5    2       -0.0060511186
    8    8    6    2       -0.0236304501
    8    8    7    2       -0.0118506771
    8    8    8    2        0.0000000002
    8    8    3    3        0.6415054878
    8    8    6    3        0.0000000001
    8    8    7    3        0.0000000001
    8    8    8    3       -0.1806104302
    8    8    4    4        0.5582443263
    8    8    5    4        0.0072545965
    8    8    6    4       -0.0024118281
    8    8    7    4       -0.1497720393
    8    8    8    4       -0.0000000001
    8    8    5    5        0.4834719933
    8    8    6    5       -0.1678790098
    8    8    7    5        0.0021368145
    8    8    8    5       -0.0000000001
    8    8    6    6        0.4887618700
    8    8    7    6       -0.0013745652
    8    8    7    7        0.5740996936
    8    8    8    7       -0.0000000001
    8    8    8    8        0.5907550528
 end_two_electron_integrals
 enrep_tce =    7.4146680616333906     
  EHF(A)             =       -75.92458854
  EHF(total)         =       -75.92458854
  Shift (HFtot-HFA)  =        -0.00000000
 Cpu & wall time / sec            1.0            1.0
 T1-number-of-tasks                   15

 t1 file size   =               15
 t1 file name   = ./H2O.t1
 t1 file handle =       -998
 T2-number-of-boxes                  315

 t2 file size   =              315
 t2 file name   = ./H2O.t2
 t2 file handle =       -996
CCSD iterations
 ---------------------------------------------------------
 Iter          Residuum       Correlation     Cpu    Wall 
 ---------------------------------------------------------
NEW TASK SCHEDULING
CCSD_T1_NTS --- OK
CCSD_T2_NTS --- OK
    1   0.6546864814394  -0.2465897644732     1.7     2.7
    2   1.0031895483559   0.0625625708195     1.7     2.6
    3   1.5688352604825  -0.4124811785387     1.8     2.6
    4   2.4380637298775   0.3121097061070     1.7     2.6
    5   3.8326666004137  -0.8030820285294     1.9     2.6
 MICROCYCLE DIIS UPDATE:                    5                    5
    6   0.0169971130215  -0.1251246927288     1.8     2.6
    7   0.0224468003732  -0.1243952032789     1.9     2.6
    8   0.0388035813647  -0.1256806404785     1.9     2.6
    9   0.0731983466001  -0.1246273461722     1.9     2.7
   10   0.1419934997040  -0.1255104061592     1.8     2.6
 MICROCYCLE DIIS UPDATE:                   10                    5
   11   0.0005626515843  -0.1251978902117     1.8     2.6
   12   0.0004700031764  -0.1251738067474     1.8     2.6
   13   0.0005927662960  -0.1251556155140     1.8     2.6
   14   0.0008613964936  -0.1251974086363     1.7     2.6
   15   0.0013243993738  -0.1251219072202     1.9     2.6
 MICROCYCLE DIIS UPDATE:                   15                    5
   16   0.0000457498065  -0.1251705190512     1.6     2.6
   17   0.0000308581614  -0.1251706930878     1.8     2.6
   18   0.0000404563946  -0.1251735723901     1.7     2.6
   19   0.0000687431497  -0.1251702202778     1.8     2.6
   20   0.0001252189253  -0.1251754012585     1.9     2.6
 MICROCYCLE DIIS UPDATE:                   20                    5
   21   0.0000019791468  -0.1251724407263     1.8     2.6
   22   0.0000017870317  -0.1251724196335     1.8     2.6
   23   0.0000028801309  -0.1251722862598     1.7     2.6
   24   0.0000053190954  -0.1251725137614     1.7     2.6
   25   0.0000101417455  -0.1251721446638     1.8     2.6
 MICROCYCLE DIIS UPDATE:                   25                    5
   26   0.0000002032811  -0.1251723751770     1.8     2.6
   27   0.0000001441364  -0.1251723744307     1.9     2.6
   28   0.0000001876752  -0.1251723915837     1.7     2.6
   29   0.0000003112415  -0.1251723702669     1.8     2.6
   30   0.0000005472546  -0.1251724033038     1.7     2.6
 MICROCYCLE DIIS UPDATE:                   30                    5
   31   0.0000000104987  -0.1251723840531     1.9     2.6
 -----------------------------------------------------------------
 Iterations converged
 CCSD correlation energy / hartree =        -0.125172384053079
 CCSD total energy / hartree       =       -76.049760927922748

 Singles contributions

 Doubles contributions
     6a   (alpha)     7a   (alpha) ---     4a   (alpha)     5a   (alpha)        0.0201614143
     6a   (alpha)     8a   (alpha) ---     3a   (alpha)     5a   (alpha)        0.0286289589
     6a   (alpha)     6a   (beta ) ---     2a   (alpha)     2a   (beta )       -0.0207519972
     6a   (alpha)     6a   (beta ) ---     5a   (alpha)     5a   (beta )       -0.2299889640
     6a   (alpha)     7a   (beta ) ---     5a   (alpha)     4a   (beta )       -0.0358167500
     6a   (alpha)     8a   (beta ) ---     5a   (alpha)     3a   (beta )       -0.0402699813
     7a   (alpha)     8a   (alpha) ---     3a   (alpha)     4a   (alpha)        0.0309956563
     7a   (alpha)     6a   (beta ) ---     4a   (alpha)     5a   (beta )       -0.0358167500
     7a   (alpha)     7a   (beta ) ---     4a   (alpha)     4a   (beta )       -0.0888289153
     7a   (alpha)     8a   (beta ) ---     4a   (alpha)     3a   (beta )       -0.0413093682
     8a   (alpha)     6a   (beta ) ---     3a   (alpha)     5a   (beta )       -0.0402699813
     8a   (alpha)     7a   (beta ) ---     3a   (alpha)     4a   (beta )       -0.0413093682
     8a   (alpha)     8a   (beta ) ---     3a   (alpha)     3a   (beta )       -0.0587546947
 Ground state specification:
 exp(T)|Ref>~(1+T)|Ref>
 ------- a(p)+/a(q) strings ----------

 singles norm

 doubles norm

 Reference string
  0.97455753598259942      :(1a)+ (2a)+ (3a)+ (4a)+ (5a)+ (1b)+ (2b)+ (3b)+ (4b)+ (5b)+ |0>

 Singles strings

 Doubles strings
 -0.22413747803418435      :(6a)+ (6b)+ (5b)  (5a)  (1a)+ (2a)+ (3a)+ (4a)+ (5a)+ (1b)+ (2b)+ (3b)+ (4b)+ (5b)+ |0>
 -------------------------------------

 Parallel integral file used      16 records with       0 large values


 Task  times  cpu:       57.2s     wall:       83.1s


                                NWChem Input Module
                                -------------------


 Summary of allocated global arrays
-----------------------------------
  No active global arrays


MA_summarize_allocated_blocks: starting scan ...
MA_summarize_allocated_blocks: scan completed: 0 heap blocks, 0 stack blocks
MA usage statistics:

	allocation statistics:
					      heap	     stack
					      ----	     -----
	current number of blocks	         0	         0
	maximum number of blocks	        18	        42
	current total bytes		         0	         0
	maximum total bytes		  25775960	  38234456
	maximum total K-bytes		     25776	     38235
	maximum total M-bytes		        26	        39


                                     CITATION
                                     --------
                Please cite the following reference when publishing
                           results obtained with NWChem:

          E. Apra, E. J. Bylaska, W. A. de Jong, N. Govind, K. Kowalski,
       T. P. Straatsma, M. Valiev, H. J. J. van Dam, Y. Alexeev, J. Anchell,
       V. Anisimov, F. W. Aquino, R. Atta-Fynn, J. Autschbach, N. P. Bauman,
     J. C. Becca, D. E. Bernholdt, K. Bhaskaran-Nair, S. Bogatko, P. Borowski,
         J. Boschen, J. Brabec, A. Bruner, E. Cauet, Y. Chen, G. N. Chuev,
      C. J. Cramer, J. Daily, M. J. O. Deegan, T. H. Dunning Jr., M. Dupuis,
   K. G. Dyall, G. I. Fann, S. A. Fischer, A. Fonari, H. Fruchtl, L. Gagliardi,
      J. Garza, N. Gawande, S. Ghosh, K. Glaesemann, A. W. Gotz, J. Hammond,
       V. Helms, E. D. Hermes, K. Hirao, S. Hirata, M. Jacquelin, L. Jensen,
   B. G. Johnson, H. Jonsson, R. A. Kendall, M. Klemm, R. Kobayashi, V. Konkov,
      S. Krishnamoorthy, M. Krishnan, Z. Lin, R. D. Lins, R. J. Littlefield,
      A. J. Logsdail, K. Lopata, W. Ma, A. V. Marenich, J. Martin del Campo,
   D. Mejia-Rodriguez, J. E. Moore, J. M. Mullin, T. Nakajima, D. R. Nascimento,
    J. A. Nichols, P. J. Nichols, J. Nieplocha, A. Otero-de-la-Roza, B. Palmer,
    A. Panyala, T. Pirojsirikul, B. Peng, R. Peverati, J. Pittner, L. Pollack,
   R. M. Richard, P. Sadayappan, G. C. Schatz, W. A. Shelton, D. W. Silverstein,
   D. M. A. Smith, T. A. Soares, D. Song, M. Swart, H. L. Taylor, G. S. Thomas,
            V. Tipparaju, D. G. Truhlar, K. Tsemekhman, T. Van Voorhis,
      A. Vazquez-Mayagoitia, P. Verma, O. Villa, A. Vishnu, K. D. Vogiatzis,
        D. Wang, J. H. Weare, M. J. Williamson, T. L. Windus, K. Wolinski,
        A. T. Wong, Q. Wu, C. Yang, Q. Yu, M. Zacharias, Z. Zhang, Y. Zhao,
                                and R. J. Harrison
                        "NWChem: Past, present, and future
                         J. Chem. Phys. 152, 184102 (2020)
                               doi:10.1063/5.0004997

                                      AUTHORS
                                      -------
  E. Apra, E. J. Bylaska, N. Govind, K. Kowalski, M. Valiev, D. Mejia-Rodriguez,
       A. Kunitsa, N. P. Bauman, A. Panyala, W. A. de Jong, T. P. Straatsma,
        H. J. J. van Dam, D. Wang, T. L. Windus, J. Hammond, J. Autschbach,
    K. Bhaskaran-Nair, J. Brabec, K. Lopata, S. A. Fischer, S. Krishnamoorthy,
     M. Jacquelin, W. Ma, M. Klemm, O. Villa, Y. Chen, V. Anisimov, F. Aquino,
    S. Hirata, M. T. Hackler, Eric Hermes, L. Jensen, J. E. Moore, J. C. Becca,
      V. Konjkov, T. Risthaus, M. Malagoli, A. Marenich, A. Otero-de-la-Roza,
        J. Mullin, P. Nichols, R. Peverati, J. Pittner, Y. Zhao, P.-D. Fan,
        A. Fonari, M. J. Williamson, R. J. Harrison, J. R. Rehr, M. Dupuis,
     D. Silverstein, D. M. A. Smith, J. Nieplocha, V. Tipparaju, M. Krishnan,
     B. E. Van Kuiken, A. Vazquez-Mayagoitia, M. Swart, Q. Wu, T. Van Voorhis,
     A. A. Auer, M. Nooijen, L. D. Crosby, E. Brown, G. Cisneros, G. I. Fann,
   H. Fruchtl, J. Garza, K. Hirao, R. A. Kendall, J. A. Nichols, K. Tsemekhman,
    K. Wolinski, J. Anchell, D. E. Bernholdt, P. Borowski, T. Clark, D. Clerc,
   H. Dachsel, M. J. O. Deegan, K. Dyall, D. Elwood, E. Glendening, M. Gutowski,
   A. C. Hess, J. Jaffe, B. G. Johnson, J. Ju, R. Kobayashi, R. Kutteh, Z. Lin,
   R. Littlefield, X. Long, B. Meng, T. Nakajima, S. Niu, L. Pollack, M. Rosing,
   K. Glaesemann, G. Sandrone, M. Stave, H. Taylor, G. Thomas, J. H. van Lenthe,
                               A. T. Wong, Z. Zhang.

 Total times  cpu:       61.3s     wall:       91.2s
