 argument  1 = input.nw
  NWChem w/ OpenMP: maximum threads =    1



============================== echo of input deck ==============================
 echo
 start H2O
 title "H2O"

 memory total 24 gb

 geometry units bohr
 symmetry c1
        O  0.00000000  0.00000000  0.00000000
        H  0.00000000  3.355079  0.00000000
        H  1.72558000 -0.64860000  0.00000000
 end

 basis spherical
   * library cc-pVTZ
 end

 mcscf
   active  8
   actelec 10
   multiplicity 1
   maxiter 40
   vectors input h2o.mos
   vectors output h2o.mos
 end

 task mcscf

 scf
   vectors input h2o.mos
   vectors output h2o-trash.mos
   noscf
 end

 tce
   2eorb
   2emet 13
   ccsd
   maxiter 300
 end

 set tce:print_integrals T
 set tce:qorb 8
 set tce:qela 5
 set tce:qelb 5

# set tce:qducc T
# set tce:nactv 3
# set tce:nonhf T
# set tce:ducc_model 6

 set tce:printtol 0.02

 task tce
================================================================================


                                         
                                         


             Northwest Computational Chemistry Package (NWChem) 7.0.1
             --------------------------------------------------------


                    Environmental Molecular Sciences Laboratory
                       Pacific Northwest National Laboratory
                                Richland, WA 99352

                              Copyright (c) 1994-2020
                       Pacific Northwest National Laboratory
                            Battelle Memorial Institute

             NWChem is an open-source computational chemistry package
                        distributed under the terms of the
                      Educational Community License (ECL) 2.0
             A copy of the license is included with this distribution
                              in the LICENSE.TXT file

                                  ACKNOWLEDGMENT
                                  --------------

            This software and its documentation were developed at the
            EMSL at Pacific Northwest National Laboratory, a multiprogram
            national laboratory, operated for the U.S. Department of Energy
            by Battelle under Contract Number DE-AC05-76RL01830. Support
            for this work was provided by the Department of Energy Office
            of Biological and Environmental Research, Office of Basic
            Energy Sciences, and the Office of Advanced Scientific Computing.


           Job information
           ---------------

    hostname        = WE46210
    program         = /home/baum612/code/nwchem/bin/LINUX64/nwchem
    date            = Thu May  2 11:31:52 2024

    compiled        = Tue_Apr_30_12:43:26_2024
    source          = /home/baum612/code/nwchem
    nwchem branch   = 7.0.0
    nwchem revision = nwchem_on_git-4191-g39d87d64de
    ga revision     = 5.8.1
    use scalapack   = F
    input           = input.nw
    prefix          = H2O.
    data base       = ./H2O.db
    status          = startup
    nproc           =        1
    time left       =     -1s



           Memory information
           ------------------

    heap     =  805306362 doubles =   6144.0 Mbytes
    stack    =  805306367 doubles =   6144.0 Mbytes
    global   = 1610612736 doubles =  12288.0 Mbytes (distinct from heap & stack)
    total    = 3221225465 doubles =  24576.0 Mbytes
    verify   = yes
    hardfail = no 


           Directory information
           ---------------------

  0 permanent = .
  0 scratch   = .




                                NWChem Input Module
                                -------------------


                                        H2O
                                        ---
 Turning off AUTOSYM since
 SYMMETRY directive was detected!


          ------
          auto-z
          ------
  autoz: The atoms group into disjoint clusters
 cluster   1:    1    3
 cluster   2:    2
 Connecting clusters   1   2 via atoms    1    2 r = 1.78
  autoz: regenerating connections with new bonds
  no constraints, skipping    0.0000000000000000     
  no constraints, skipping    0.0000000000000000     


                             Geometry "geometry" -> ""
                             -------------------------

 Output coordinates in a.u. (scale by  1.000000000 to convert to a.u.)

  No.       Tag          Charge          X              Y              Z
 ---- ---------------- ---------- -------------- -------------- --------------
    1 O                    8.0000    -0.17255800    -0.27064790     0.00000000
    2 H                    1.0000    -0.17255800     3.08443110     0.00000000
    3 H                    1.0000     1.55302200    -0.91924790     0.00000000

      Atomic Mass 
      ----------- 

      O                 15.994910
      H                  1.007825


 Effective nuclear repulsion energy (a.u.)       6.9535065681

            Nuclear Dipole moment (a.u.) 
            ----------------------------
        X                 Y               Z
 ---------------- ---------------- ----------------
    -0.0000000000     0.0000000000     0.0000000000



                                Z-matrix (autoz)
                                -------- 

 Units are Angstrom for bonds and degrees for angles

      Type          Name      I     J     K     L     M      Value
      ----------- --------  ----- ----- ----- ----- ----- ----------
    1 Stretch                  1     2                       1.77543
    2 Stretch                  1     3                       0.97551
    3 Bend                     2     1     3               110.59992


            XYZ format geometry
            -------------------
     3
 geometry
 O                    -0.09131377    -0.14322071     0.00000000
 H                    -0.09131377     1.63221076     0.00000000
 H                     0.82182391    -0.48644507     0.00000000

 ==============================================================================
                                internuclear distances
 ------------------------------------------------------------------------------
       center one      |      center two      | atomic units |       a.u.
 ------------------------------------------------------------------------------
    3 H                |   1 O                |     1.84345  |     1.84345
 ------------------------------------------------------------------------------
                         number of included internuclear distances:          1
 ==============================================================================





 Summary of "ao basis" -> "" (spherical)
 ------------------------------------------------------------------------------
       Tag                 Description            Shells   Functions and Types
 ---------------- ------------------------------  ------  ---------------------
 *                          cc-pVTZ                   on all atoms 


                      Basis "ao basis" -> "ao basis" (spherical)
                      -----
  O (Oxygen)
  ----------
            Exponent  Coefficients 
       -------------- ---------------------------------------------------------
  1 S  1.53300000E+04  0.000508
  1 S  2.29900000E+03  0.003929
  1 S  5.22400000E+02  0.020243
  1 S  1.47300000E+02  0.079181
  1 S  4.75500000E+01  0.230687
  1 S  1.67600000E+01  0.433118
  1 S  6.20700000E+00  0.350260
  1 S  6.88200000E-01 -0.008154

  2 S  1.53300000E+04 -0.000115
  2 S  2.29900000E+03 -0.000895
  2 S  5.22400000E+02 -0.004636
  2 S  1.47300000E+02 -0.018724
  2 S  4.75500000E+01 -0.058463
  2 S  1.67600000E+01 -0.136463
  2 S  6.20700000E+00 -0.175740
  2 S  6.88200000E-01  0.603418

  3 S  1.75200000E+00  1.000000

  4 S  2.38400000E-01  1.000000

  5 P  3.44600000E+01  0.015928
  5 P  7.74900000E+00  0.099740
  5 P  2.28000000E+00  0.310492

  6 P  7.15600000E-01  1.000000

  7 P  2.14000000E-01  1.000000

  8 D  2.31400000E+00  1.000000

  9 D  6.45000000E-01  1.000000

 10 F  1.42800000E+00  1.000000

  H (Hydrogen)
  ------------
            Exponent  Coefficients 
       -------------- ---------------------------------------------------------
  1 S  3.38700000E+01  0.006068
  1 S  5.09500000E+00  0.045308
  1 S  1.15900000E+00  0.202822

  2 S  3.25800000E-01  1.000000

  3 S  1.02700000E-01  1.000000

  4 P  1.40700000E+00  1.000000

  5 P  3.88000000E-01  1.000000

  6 D  1.05700000E+00  1.000000



 Summary of "ao basis" -> "ao basis" (spherical)
 ------------------------------------------------------------------------------
       Tag                 Description            Shells   Functions and Types
 ---------------- ------------------------------  ------  ---------------------
 O                          cc-pVTZ                 10       30   4s3p2d1f
 H                          cc-pVTZ                  6       14   3s2p1d



                            NWChem Direct MCSCF Module
                            --------------------------


                                        H2O


     -----------------------------------
       Basis functions:             58
       Inactive shells:              0
       Active shells:                8
       Active electrons:            10
       Symmetry:                    a       
       Multiplicity:                 1
       Orbital rotations:          400
     -----------------------------------

     -----------------------------------
       E2 extrapolation:             F
       Conjugacy:                    T
       Micro CI relax:               T
       Canonical orbitals:           T
       Maximum iterations:          40
       Converge threshold:    1.00E-04
       Conjugacy resets:            20
       Initial levelshift:        0.10
     -----------------------------------

 Loading old vectors from job with title :

H2O


   input molecular orbitals = ./h2o.mos
  output molecular orbtials = ./h2o.mos

       No. of determinants:          3136


  Starting Orbital Energies
   -20.598275    -1.296825    -0.662223    -0.535245    -0.470759    -0.100166
    -0.026298    -0.013788     0.305847     0.367712     0.609059     0.775666
     0.792400     0.871073     0.927421     0.941191     0.983295     1.322359
     1.380501     1.752698     1.927928     2.044885     2.049431     2.179637
     2.652766     2.785682     3.386807     3.408815     3.434396     3.435970
     3.465741     3.567708     3.592828     3.655656     3.835671     3.888216
     3.964714     3.972352     4.062757     4.069755     4.299442     4.410834
     4.578777     4.760940     5.172310     5.580495     5.634917     5.818119
     5.889492     6.765053     6.832465     6.847186     6.853229     7.034297
     7.069556     7.226557     7.575222    10.880186

  Orbital Symmetry Irreps
a    a    a    a    a    a    a    a    a    a    a    a    a    a    a   
a    a    a    a    a    a    a    a    a    a    a    a    a    a    a   
a    a    a    a    a    a    a    a    a    a    a    a    a    a    a   
a    a    a    a    a    a    a    a    a    a    a    a    a   

 Integral file          = ./H2O.aoints.0
 Record size in doubles =  65536        No. of integs per rec  =  43688
 Max. records in memory =     49        Max. records in file   = 250656
 No. of bits per label  =      8        No. of bits per value  =     64


 #quartets = 3.212D+04 #integrals = 6.593D+05 #direct =  0.0% #cached =100.0%




          %%%%% MacroIteration   1 %%%%%


          Number of sigma calls:       21
                       o<<<<< (aa):             0.00
                       o<<<<< (bb):             0.00
                       o<<<<< (ab):             0.06
                       o<<<<< (total)           0.07
                       o<<<<< (aa) ff           0.00
                       o<<<<< (aa) gop          0.00
                       o<<<<< (aa) dot          0.00
                       o<<<<< (ab) str          0.00
                       o<<<<< (ab) gath         0.00
                       o<<<<< (ab) dotab        0.00
                       o<<<<< (ab) scat         0.00
                       o<<<<< (ab) sync         0.00
                       o<<<<< Density           0.01
                       o<<<<< Density one       0.00
                       o<<<<< Density two       0.00
                       o<<<<< Density ab        0.01
                       o<<<<< Spin adapt        0.28
                       o<<<<< Symm adapt        0.00

                       o<<<<< (ab) max sync:      0.00

           >>>| Valence CI:            -82.962344735137
           >>>| MCSCF energy:          -76.008838167025
           >>>| Gradient norm:          0.536687022D-02

                              ----- Line search ------

        step       energy         lsg     num-lsg   num-lsh   lsrat    time
      ------- ---------------- --------- --------- --------- ------- --------
       0.0000     -76.00883817 -5.57D-06  0.00D+00  0.00D+00 0.0D+00      0.9

          Number of sigma calls:       19
                       o<<<<< (aa):             0.00
                       o<<<<< (bb):             0.00
                       o<<<<< (ab):             0.05
                       o<<<<< (total)           0.05
                       o<<<<< (aa) ff           0.00
                       o<<<<< (aa) gop          0.00
                       o<<<<< (aa) dot          0.00
                       o<<<<< (ab) str          0.00
                       o<<<<< (ab) gath         0.00
                       o<<<<< (ab) dotab        0.00
                       o<<<<< (ab) scat         0.00
                       o<<<<< (ab) sync         0.00
                       o<<<<< Density           0.00
                       o<<<<< Density one       0.00
                       o<<<<< Density two       0.00
                       o<<<<< Density ab        0.00
                       o<<<<< Spin adapt        0.22
                       o<<<<< Symm adapt        0.00

                       o<<<<< (ab) max sync:      0.00
       1.0000     -76.00884142 -9.34D-07 -9.35D-07  4.63D-06 1.7D-01      1.3

          Number of sigma calls:       16
                       o<<<<< (aa):             0.00
                       o<<<<< (bb):             0.00
                       o<<<<< (ab):             0.05
                       o<<<<< (total)           0.05
                       o<<<<< (aa) ff           0.00
                       o<<<<< (aa) gop          0.00
                       o<<<<< (aa) dot          0.00
                       o<<<<< (ab) str          0.00
                       o<<<<< (ab) gath         0.00
                       o<<<<< (ab) dotab        0.00
                       o<<<<< (ab) scat         0.00
                       o<<<<< (ab) sync         0.00
                       o<<<<< Density           0.01
                       o<<<<< Density one       0.00
                       o<<<<< Density two       0.00
                       o<<<<< Density ab        0.01
                       o<<<<< Spin adapt        0.27
                       o<<<<< Symm adapt        0.00

                       o<<<<< (ab) max sync:      0.00
       1.2015     -76.00884151  1.25D-09  1.22D-09  4.64D-06 2.3D-04      1.7
     --- Orbitals canonicalized ---



          %%%%% MacroIteration   2 %%%%%


          Number of sigma calls:       20
                       o<<<<< (aa):             0.00
                       o<<<<< (bb):             0.00
                       o<<<<< (ab):             0.06
                       o<<<<< (total)           0.07
                       o<<<<< (aa) ff           0.00
                       o<<<<< (aa) gop          0.00
                       o<<<<< (aa) dot          0.00
                       o<<<<< (ab) str          0.00
                       o<<<<< (ab) gath         0.00
                       o<<<<< (ab) dotab        0.00
                       o<<<<< (ab) scat         0.00
                       o<<<<< (ab) sync         0.00
                       o<<<<< Density           0.01
                       o<<<<< Density one       0.00
                       o<<<<< Density two       0.00
                       o<<<<< Density ab        0.01
                       o<<<<< Spin adapt        0.30
                       o<<<<< Symm adapt        0.00

                       o<<<<< (ab) max sync:      0.00

           >>>| Valence CI:            -82.962348080675
           >>>| MCSCF energy:          -76.008841512563
           >>>| Gradient norm:          0.102606673D-02
     --- Warning:    4 Hessian diagonals < 0.05 ---
     --- Conjugacy reset ---

                              ----- Line search ------

        step       energy         lsg     num-lsg   num-lsh   lsrat    time
      ------- ---------------- --------- --------- --------- ------- --------
       0.0000     -76.00884151 -2.40D-07  0.00D+00  0.00D+00 0.0D+00      2.3

          Number of sigma calls:       16
                       o<<<<< (aa):             0.00
                       o<<<<< (bb):             0.00
                       o<<<<< (ab):             0.05
                       o<<<<< (total)           0.05
                       o<<<<< (aa) ff           0.00
                       o<<<<< (aa) gop          0.00
                       o<<<<< (aa) dot          0.00
                       o<<<<< (ab) str          0.00
                       o<<<<< (ab) gath         0.00
                       o<<<<< (ab) dotab        0.00
                       o<<<<< (ab) scat         0.00
                       o<<<<< (ab) sync         0.00
                       o<<<<< Density           0.01
                       o<<<<< Density one       0.00
                       o<<<<< Density two       0.00
                       o<<<<< Density ab        0.00
                       o<<<<< Spin adapt        0.20
                       o<<<<< Symm adapt        0.00

                       o<<<<< (ab) max sync:      0.00
       1.0000     -76.00884166 -5.13D-08 -5.14D-08  1.89D-07 2.1D-01      2.6

          Number of sigma calls:       13
                       o<<<<< (aa):             0.00
                       o<<<<< (bb):             0.00
                       o<<<<< (ab):             0.04
                       o<<<<< (total)           0.05
                       o<<<<< (aa) ff           0.00
                       o<<<<< (aa) gop          0.00
                       o<<<<< (aa) dot          0.00
                       o<<<<< (ab) str          0.00
                       o<<<<< (ab) gath         0.00
                       o<<<<< (ab) dotab        0.00
                       o<<<<< (ab) scat         0.00
                       o<<<<< (ab) sync         0.00
                       o<<<<< Density           0.01
                       o<<<<< Density one       0.00
                       o<<<<< Density two       0.00
                       o<<<<< Density ab        0.01
                       o<<<<< Spin adapt        0.22
                       o<<<<< Symm adapt        0.00

                       o<<<<< (ab) max sync:      0.00
       1.2713     -76.00884167  4.23D-11  4.03D-11  1.89D-07 1.8D-04      3.0



          %%%%% MacroIteration   3 %%%%%


          Number of sigma calls:        1
                       o<<<<< (aa):             0.00
                       o<<<<< (bb):             0.00
                       o<<<<< (ab):             0.00
                       o<<<<< (total)           0.00
                       o<<<<< (aa) ff           0.00
                       o<<<<< (aa) gop          0.00
                       o<<<<< (aa) dot          0.00
                       o<<<<< (ab) str          0.00
                       o<<<<< (ab) gath         0.00
                       o<<<<< (ab) dotab        0.00
                       o<<<<< (ab) scat         0.00
                       o<<<<< (ab) sync         0.00
                       o<<<<< Density           0.01
                       o<<<<< Density one       0.00
                       o<<<<< Density two       0.00
                       o<<<<< Density ab        0.01
                       o<<<<< Spin adapt        0.00
                       o<<<<< Symm adapt        0.00

                       o<<<<< (ab) max sync:      0.00

           >>>| Valence CI:            -82.962348233558
           >>>| MCSCF energy:          -76.008841665446
           >>>| Gradient norm:          0.258499758D-03
     --- Warning:    4 Hessian diagonals < 0.05 ---

                              ----- Line search ------

        step       energy         lsg     num-lsg   num-lsh   lsrat    time
      ------- ---------------- --------- --------- --------- ------- --------
       0.0000     -76.00884167 -1.38D-08  0.00D+00  0.00D+00 0.0D+00      3.1

          Number of sigma calls:       13
                       o<<<<< (aa):             0.00
                       o<<<<< (bb):             0.00
                       o<<<<< (ab):             0.04
                       o<<<<< (total)           0.04
                       o<<<<< (aa) ff           0.00
                       o<<<<< (aa) gop          0.00
                       o<<<<< (aa) dot          0.00
                       o<<<<< (ab) str          0.00
                       o<<<<< (ab) gath         0.00
                       o<<<<< (ab) dotab        0.00
                       o<<<<< (ab) scat         0.00
                       o<<<<< (ab) sync         0.00
                       o<<<<< Density           0.01
                       o<<<<< Density one       0.00
                       o<<<<< Density two       0.00
                       o<<<<< Density ab        0.01
                       o<<<<< Spin adapt        0.27
                       o<<<<< Symm adapt        0.00

                       o<<<<< (ab) max sync:      0.00
       1.0000     -76.00884167 -2.32D-09 -2.32D-09  1.15D-08 1.7D-01      3.5

          Number of sigma calls:       11
                       o<<<<< (aa):             0.00
                       o<<<<< (bb):             0.00
                       o<<<<< (ab):             0.03
                       o<<<<< (total)           0.04
                       o<<<<< (aa) ff           0.00
                       o<<<<< (aa) gop          0.00
                       o<<<<< (aa) dot          0.00
                       o<<<<< (ab) str          0.00
                       o<<<<< (ab) gath         0.00
                       o<<<<< (ab) dotab        0.00
                       o<<<<< (ab) scat         0.00
                       o<<<<< (ab) sync         0.00
                       o<<<<< Density           0.00
                       o<<<<< Density one       0.00
                       o<<<<< Density two       0.00
                       o<<<<< Density ab        0.00
                       o<<<<< Spin adapt        0.20
                       o<<<<< Symm adapt        0.00

                       o<<<<< (ab) max sync:      0.00
       1.2014     -76.00884167  2.32D-15  5.52D-13  1.15D-08 1.7D-07      3.8



          %%%%% MacroIteration   4 %%%%%


          Number of sigma calls:        1
                       o<<<<< (aa):             0.00
                       o<<<<< (bb):             0.00
                       o<<<<< (ab):             0.00
                       o<<<<< (total)           0.00
                       o<<<<< (aa) ff           0.00
                       o<<<<< (aa) gop          0.00
                       o<<<<< (aa) dot          0.00
                       o<<<<< (ab) str          0.00
                       o<<<<< (ab) gath         0.00
                       o<<<<< (ab) dotab        0.00
                       o<<<<< (ab) scat         0.00
                       o<<<<< (ab) sync         0.00
                       o<<<<< Density           0.00
                       o<<<<< Density one       0.00
                       o<<<<< Density two       0.00
                       o<<<<< Density ab        0.00
                       o<<<<< Spin adapt        0.00
                       o<<<<< Symm adapt        0.00

                       o<<<<< (ab) max sync:      0.00

           >>>| Valence CI:            -82.962348241867
           >>>| MCSCF energy:          -76.008841673755
           >>>| Gradient norm:          0.554071511D-04




     ==============================
            MCSCF Converged
     ==============================



          Canonical Eigenvalues

              1      
    1  -20.5988
    2   -1.2971
    3   -0.6625
    4   -0.5357
    5   -0.4688
    6   -0.1019
    7   -0.0263
    8   -0.0138
    9    0.3053
   10    0.3685
   11    0.6093
   12    0.7753
   13    0.7928
   14    0.8712
   15    0.9241
   16    0.9405
   17    0.9821
   18    1.3227
   19    1.3795
   20    1.7515
   21    1.9233
   22    2.0433
   23    2.0491
   24    2.1794
   25    2.6508
   26    2.7855
   27    3.3890
   28    3.4103
   29    3.4350
   30    3.4366
   31    3.4659
   32    3.5669
   33    3.5880
   34    3.6554
   35    3.8337
   36    3.8877
   37    3.9623
   38    3.9721
   39    4.0606
   40    4.0702
   41    4.2952
   42    4.4103
   43    4.5705
   44    4.7583
   45    5.1690
   46    5.5784
   47    5.6317
   48    5.8171
   49    5.8852
   50    6.7625
   51    6.8302
   52    6.8466
   53    6.8518
   54    7.0325
   55    7.0691
   56    7.2188
   57    7.5727
   58   10.8789


          Converged CI vector

   Index           Coefficient          Config. Occupation
         1          0.90859088          1  2  3  4  5  1  2  3  4  5
         2          0.12185198          1  2  3  4  5  1  2  3  4  6
        23          0.06312154          1  2  3  4  5  1  2  3  5  8
         9          0.03966523          1  2  3  4  5  1  2  4  5  7
        41          0.02491311          1  2  3  4  5  1  2  5  7  8
        57          0.12185198          1  2  3  4  6  1  2  3  4  5
        58         -0.32296752          1  2  3  4  6  1  2  3  4  6
        79         -0.02169602          1  2  3  4  6  1  2  3  5  8
        83         -0.02678672          1  2  3  4  6  1  2  3  6  8
        60          0.04357183          1  2  3  4  6  1  2  4  5  6
      1233          0.06312154          1  2  3  5  8  1  2  3  4  5
      1234         -0.02169602          1  2  3  5  8  1  2  3  4  6
      1255         -0.05019881          1  2  3  5  8  1  2  3  5  8
      1241         -0.03122514          1  2  3  5  8  1  2  4  5  7
      1458         -0.02678672          1  2  3  6  8  1  2  3  4  6
      1483          0.02132597          1  2  3  6  8  1  2  3  6  8
       170          0.04357183          1  2  4  5  6  1  2  3  4  6
       449          0.03966523          1  2  4  5  7  1  2  3  4  5
       471         -0.03122514          1  2  4  5  7  1  2  3  5  8
       457         -0.06606340          1  2  4  5  7  1  2  4  5  7
       458          0.02799503          1  2  4  5  7  1  3  4  5  7
       685          0.02621627          1  2  4  6  7  1  2  4  6  7
      2241          0.02491311          1  2  5  7  8  1  2  3  4  5
       513          0.02799503          1  3  4  5  7  1  2  4  5  7
       514         -0.02634332          1  3  4  5  7  1  3  4  5  7

          Number of sigma calls:        1
                       o<<<<< (aa):             0.00
                       o<<<<< (bb):             0.00
                       o<<<<< (ab):             0.00
                       o<<<<< (total)           0.00
                       o<<<<< (aa) ff           0.00
                       o<<<<< (aa) gop          0.00
                       o<<<<< (aa) dot          0.00
                       o<<<<< (ab) str          0.00
                       o<<<<< (ab) gath         0.00
                       o<<<<< (ab) dotab        0.00
                       o<<<<< (ab) scat         0.00
                       o<<<<< (ab) sync         0.00
                       o<<<<< Density           0.01
                       o<<<<< Density one       0.00
                       o<<<<< Density two       0.00
                       o<<<<< Density ab        0.01
                       o<<<<< Spin adapt        0.00
                       o<<<<< Symm adapt        0.00

                       o<<<<< (ab) max sync:      0.00



          Natural orbital occupation numbers

              1      
    1    2.0000
    2    1.9982
    3    1.9824
    4    1.9739
    5    1.7517
    6    0.2498
    7    0.0270
    8    0.0170


          Number of sigma calls:       21
                       o<<<<< (aa):             0.00
                       o<<<<< (bb):             0.00
                       o<<<<< (ab):             0.07
                       o<<<<< (total)           0.07
                       o<<<<< (aa) ff           0.00
                       o<<<<< (aa) gop          0.00
                       o<<<<< (aa) dot          0.00
                       o<<<<< (ab) str          0.00
                       o<<<<< (ab) gath         0.00
                       o<<<<< (ab) dotab        0.00
                       o<<<<< (ab) scat         0.00
                       o<<<<< (ab) sync         0.00
                       o<<<<< Density           0.01
                       o<<<<< Density one       0.00
                       o<<<<< Density two       0.00
                       o<<<<< Density ab        0.01
                       o<<<<< Spin adapt        0.26
                       o<<<<< Symm adapt        0.00

                       o<<<<< (ab) max sync:      0.00


       Final MCSCF results 
       ------------------- 

       Total MCSCF energy =    -76.008841673755
            Gradient norm =      5.5D-05

    CPU time for solution =      4.3s
   Wall time for solution =      8.4s



                        Analysis of MCSCF natural orbitals
                        ----------------------------------

 Vector    1  Occ=1.999991D+00  E=-2.059881D+01  Symmetry=a
              MO Center= -9.1D-02, -1.4D-01, -1.3D-13, r^2= 1.5D-02
   Bfn.  Coefficient  Atom+Function         Bfn.  Coefficient  Atom+Function  
  ----- ------------  ---------------      ----- ------------  ---------------
     1      0.974824  1 O  s          

 Vector    2  Occ=1.998160D+00  E=-1.297132D+00  Symmetry=a
              MO Center= -2.8D-01, -1.3D-01,  8.6D-11, r^2= 4.3D-01
   Bfn.  Coefficient  Atom+Function         Bfn.  Coefficient  Atom+Function  
  ----- ------------  ---------------      ----- ------------  ---------------
     2      0.549344  1 O  s                  4      0.403011  1 O  s          
     3      0.152849  1 O  s          

 Vector    3  Occ=1.982407D+00  E=-6.625118D-01  Symmetry=a
              MO Center= -6.2D-02, -1.5D-01, -8.5D-11, r^2= 6.3D-01
   Bfn.  Coefficient  Atom+Function         Bfn.  Coefficient  Atom+Function  
  ----- ------------  ---------------      ----- ------------  ---------------
    10      0.442953  1 O  pz                13      0.385960  1 O  pz         
     7      0.368432  1 O  pz         

 Vector    4  Occ=1.973911D+00  E=-5.356994D-01  Symmetry=a
              MO Center=  3.3D-01, -2.8D-01, -1.9D-12, r^2= 5.9D-01
   Bfn.  Coefficient  Atom+Function         Bfn.  Coefficient  Atom+Function  
  ----- ------------  ---------------      ----- ------------  ---------------
     8      0.340267  1 O  px                 5      0.284008  1 O  px         
    46      0.275526  3 H  s                 11      0.191521  1 O  px         
    45      0.187446  3 H  s          

 Vector    5  Occ=1.751658D+00  E=-4.688091D-01  Symmetry=a
              MO Center= -5.5D-02,  6.4D-01, -3.6D-13, r^2= 1.4D+00
   Bfn.  Coefficient  Atom+Function         Bfn.  Coefficient  Atom+Function  
  ----- ------------  ---------------      ----- ------------  ---------------
     9      0.315651  1 O  py                32      0.297959  2 H  s          
     6      0.248052  1 O  py                33      0.227176  2 H  s          
    12      0.221463  1 O  py         

 Vector    6  Occ=2.498304D-01  E=-1.018897D-01  Symmetry=a
              MO Center= -7.0D-02,  8.6D-01, -1.1D-12, r^2= 1.4D+00
   Bfn.  Coefficient  Atom+Function         Bfn.  Coefficient  Atom+Function  
  ----- ------------  ---------------      ----- ------------  ---------------
    32      0.452245  2 H  s                  9     -0.400079  1 O  py         
     6     -0.312706  1 O  py                33      0.255761  2 H  s          
    31      0.204858  2 H  s                 12     -0.151033  1 O  py         

 Vector    7  Occ=2.700421D-02  E=-2.629785D-02  Symmetry=a
              MO Center=  5.2D-01, -3.4D-01, -2.4D-12, r^2= 6.2D-01
   Bfn.  Coefficient  Atom+Function         Bfn.  Coefficient  Atom+Function  
  ----- ------------  ---------------      ----- ------------  ---------------
    46      0.678658  3 H  s                  5     -0.492090  1 O  px         
     8     -0.429912  1 O  px                45      0.327289  3 H  s          
     2     -0.285702  1 O  s                  4     -0.239865  1 O  s          

 Vector    8  Occ=1.703852D-02  E=-1.375815D-02  Symmetry=a
              MO Center=  2.5D-02, -1.6D-01, -1.3D-10, r^2= 1.2D+00
   Bfn.  Coefficient  Atom+Function         Bfn.  Coefficient  Atom+Function  
  ----- ------------  ---------------      ----- ------------  ---------------
    13      0.838981  1 O  pz                 7     -0.622159  1 O  pz         
    10     -0.311635  1 O  pz         

 Vector    9  Occ=0.000000D+00  E= 3.052822D-01  Symmetry=a
              MO Center=  1.1D+00, -7.1D-01,  4.2D-11, r^2= 3.6D+00
   Bfn.  Coefficient  Atom+Function         Bfn.  Coefficient  Atom+Function  
  ----- ------------  ---------------      ----- ------------  ---------------
    47      2.020630  3 H  s                  4     -1.328333  1 O  s          
    11     -0.631423  1 O  px                51     -0.460612  3 H  px         
    46     -0.215998  3 H  s                 52      0.179981  3 H  py         
    12      0.169904  1 O  py         

 Vector   10  Occ=0.000000D+00  E= 3.684800D-01  Symmetry=a
              MO Center= -1.4D-01,  1.9D+00,  6.7D-13, r^2= 3.2D+00
   Bfn.  Coefficient  Atom+Function         Bfn.  Coefficient  Atom+Function  
  ----- ------------  ---------------      ----- ------------  ---------------
    33      1.837266  2 H  s                 32     -1.243645  2 H  s          
    47     -0.497742  3 H  s                 12     -0.333344  1 O  py         
     4     -0.308587  1 O  s                 46      0.261915  3 H  s          

 Vector   11  Occ=0.000000D+00  E= 6.093248D-01  Symmetry=a
              MO Center= -3.8D-01,  5.3D-01, -3.5D-12, r^2= 2.1D+00
   Bfn.  Coefficient  Atom+Function         Bfn.  Coefficient  Atom+Function  
  ----- ------------  ---------------      ----- ------------  ---------------
    46      2.445554  3 H  s                  4     -1.967687  1 O  s          
    11     -1.941987  1 O  px                51     -0.735884  3 H  px         
    12      0.587950  1 O  py                37     -0.419756  2 H  px         
    47      0.322214  3 H  s                 33     -0.196964  2 H  s          
    23     -0.162113  1 O  d  2              52      0.159453  3 H  py         

 Vector   12  Occ=0.000000D+00  E= 7.752758D-01  Symmetry=a
              MO Center=  9.4D-02,  1.1D+00,  1.9D-12, r^2= 1.9D+00
   Bfn.  Coefficient  Atom+Function         Bfn.  Coefficient  Atom+Function  
  ----- ------------  ---------------      ----- ------------  ---------------
    39      0.902819  2 H  pz                53     -0.566642  3 H  pz         
    13      0.171671  1 O  pz         

 Vector   13  Occ=0.000000D+00  E= 7.927972D-01  Symmetry=a
              MO Center=  1.6D-01, -1.8D-01,  1.5D-12, r^2= 2.4D+00
   Bfn.  Coefficient  Atom+Function         Bfn.  Coefficient  Atom+Function  
  ----- ------------  ---------------      ----- ------------  ---------------
    46      1.490536  3 H  s                  4     -1.348326  1 O  s          
    12      1.096075  1 O  py                11     -1.066372  1 O  px         
    52      0.730757  3 H  py                 9     -0.497109  1 O  py         
    47      0.371724  3 H  s                 37      0.367094  2 H  px         
    51     -0.343308  3 H  px                33     -0.258673  2 H  s          

 Vector   14  Occ=0.000000D+00  E= 8.712034D-01  Symmetry=a
              MO Center= -3.2D-01,  3.9D-01, -4.4D-12, r^2= 2.6D+00
   Bfn.  Coefficient  Atom+Function         Bfn.  Coefficient  Atom+Function  
  ----- ------------  ---------------      ----- ------------  ---------------
    11      1.096761  1 O  px                46     -0.912041  3 H  s          
    12      0.788013  1 O  py                37     -0.759746  2 H  px         
    52     -0.429664  3 H  py                 9     -0.412544  1 O  py         
    32     -0.373750  2 H  s                  4      0.270608  1 O  s          
    47      0.261711  3 H  s                  2      0.253602  1 O  s          

 Vector   15  Occ=0.000000D+00  E= 9.240789D-01  Symmetry=a
              MO Center=  8.4D-02,  1.1D+00, -9.6D-12, r^2= 2.1D+00
   Bfn.  Coefficient  Atom+Function         Bfn.  Coefficient  Atom+Function  
  ----- ------------  ---------------      ----- ------------  ---------------
    38     -0.935113  2 H  py                 4      0.863050  1 O  s          
    47     -0.534936  3 H  s                 33      0.489183  2 H  s          
     2     -0.454198  1 O  s                 52     -0.432795  3 H  py         
    46     -0.333372  3 H  s                 32     -0.318627  2 H  s          
    11      0.290898  1 O  px                12     -0.205425  1 O  py         

 Vector   16  Occ=0.000000D+00  E= 9.405449D-01  Symmetry=a
              MO Center=  3.2D-01,  2.8D-02,  1.8D-11, r^2= 2.4D+00
   Bfn.  Coefficient  Atom+Function         Bfn.  Coefficient  Atom+Function  
  ----- ------------  ---------------      ----- ------------  ---------------
    53      1.134555  3 H  pz                13     -0.950382  1 O  pz         
    39      0.572677  2 H  pz         

 Vector   17  Occ=0.000000D+00  E= 9.821330D-01  Symmetry=a
              MO Center=  2.3D-01, -9.7D-02,  3.1D-11, r^2= 2.7D+00
   Bfn.  Coefficient  Atom+Function         Bfn.  Coefficient  Atom+Function  
  ----- ------------  ---------------      ----- ------------  ---------------
     4      2.211768  1 O  s                 46     -1.766218  3 H  s          
    12     -1.397699  1 O  py                51      1.035848  3 H  px         
    11      0.965096  1 O  px                52      0.690144  3 H  py         
    47     -0.586499  3 H  s                 37     -0.544043  2 H  px         
     2     -0.429253  1 O  s                 38     -0.393185  2 H  py         

 Vector   18  Occ=0.000000D+00  E= 1.322730D+00  Symmetry=a
              MO Center=  7.0D-03,  1.8D-01,  5.4D-11, r^2= 2.2D+00
   Bfn.  Coefficient  Atom+Function         Bfn.  Coefficient  Atom+Function  
  ----- ------------  ---------------      ----- ------------  ---------------
     4      4.523337  1 O  s                 46     -2.715431  3 H  s          
    51      1.635029  3 H  px                11      1.291952  1 O  px         
    52     -1.065430  3 H  py                 8      0.855899  1 O  px         
    38      0.805554  2 H  py                 2     -0.764157  1 O  s          
    47     -0.720800  3 H  s                 12      0.551941  1 O  py         


 Wrote Lagrangian and 1- and 2-particle density matrices to ./H2O.mcpdm


     Multipole analysis of the density
     ---------------------------------

     L   x y z        total        nuclear
     -   - - -        -----        -------
     0   0 0 0     -0.000000     10.000000

     1   1 0 0      0.555708     -0.000000
     1   0 1 0      0.148236      0.000000
     1   0 0 1      0.000000      0.000000

     2   2 0 0     -4.480865      2.679864
     2   1 1 0     -0.753301     -1.586236
     2   1 0 1     -0.000000      0.000000
     2   0 2 0     -3.328886     10.944734
     2   0 1 1     -0.000000      0.000000
     2   0 0 2     -5.919960      0.000000


  Mulliken analysis of the total density
  --------------------------------------

    Atom       Charge   Shell Charges
 -----------   ------   -------------------------------------------------------
    1 O    8     8.34   1.95  1.05  0.25  0.64  1.22  1.96  1.26  0.00  0.01  0.00
    2 H    1     0.90   0.15  0.45  0.29  0.00  0.01  0.00
    3 H    1     0.76   0.25  0.39  0.04  0.02  0.06  0.01

    Mulliken analysis of the active space density
    ---------------------------------------------

    Atom       Charge   Shell Charges
 -----------   ------   -------------------------------------------------------
    1 O    8     8.34   1.95  1.05  0.25  0.64  1.22  1.96  1.26  0.00  0.01  0.00
    2 H    1     0.90   0.15  0.45  0.29  0.00  0.01  0.00
    3 H    1     0.76   0.25  0.39  0.04  0.02  0.06  0.01

 Parallel integral file used      16 records with       0 large values


 Task  times  cpu:        4.3s     wall:        8.4s


                                NWChem Input Module
                                -------------------


                                 NWChem SCF Module
                                 -----------------


                                        H2O



  ao basis        = "ao basis"
  functions       =    58
  atoms           =     3
  closed shells   =     5
  open shells     =     0
  charge          =   0.00
  wavefunction    = RHF 
  input vectors   = ./h2o.mos
  output vectors  = ./h2o-trash.mos
  use symmetry    = F
  symmetry adapt  = F


 Summary of "ao basis" -> "ao basis" (spherical)
 ------------------------------------------------------------------------------
       Tag                 Description            Shells   Functions and Types
 ---------------- ------------------------------  ------  ---------------------
 O                          cc-pVTZ                 10       30   4s3p2d1f
 H                          cc-pVTZ                  6       14   3s2p1d



 Forming initial guess at       8.4s


 Loading old vectors from job with title :

H2O


 Starting SCF solution at       8.4s



 ----------------------------------------------
         Quadratically convergent ROHF

 Convergence threshold     :          1.000E-04
 Maximum no. of iterations :           30
 Final Fock-matrix accuracy:          1.000E-07
 ----------------------------------------------


 Integral file          = ./H2O.aoints.0
 Record size in doubles =  65536        No. of integs per rec  =  43688
 Max. records in memory =     49        Max. records in file   = 250694
 No. of bits per label  =      8        No. of bits per value  =     64


 #quartets = 3.212D+04 #integrals = 6.580D+05 #direct =  0.0% #cached =100.0%



       Final RHF  results 
       ------------------ 

         Total SCF energy =    -75.855462735024
      One-electron energy =   -118.597816513739
      Two-electron energy =     35.788847210603
 Nuclear repulsion energy =      6.953506568112

        Time for solution =      0.1s


             Final eigenvalues
             -----------------

              1      
    1  -20.5988
    2   -1.2971
    3   -0.6625
    4   -0.5357
    5   -0.4688
    6   -0.1019
    7   -0.0263
    8   -0.0138
    9    0.3053
   10    0.3685
   11    0.6093
   12    0.7753
   13    0.7928
   14    0.8712
   15    0.9241

                       ROHF Final Molecular Orbital Analysis
                       -------------------------------------

 Vector    2  Occ=2.000000D+00  E=-1.297132D+00
              MO Center= -2.8D-01, -1.3D-01,  8.6D-11, r^2= 4.3D-01
   Bfn.  Coefficient  Atom+Function         Bfn.  Coefficient  Atom+Function  
  ----- ------------  ---------------      ----- ------------  ---------------
     2      0.549344  1 O  s                  4      0.403011  1 O  s          
     3      0.152849  1 O  s          

 Vector    3  Occ=2.000000D+00  E=-6.625118D-01
              MO Center= -6.2D-02, -1.5D-01, -8.5D-11, r^2= 6.3D-01
   Bfn.  Coefficient  Atom+Function         Bfn.  Coefficient  Atom+Function  
  ----- ------------  ---------------      ----- ------------  ---------------
    10      0.442953  1 O  pz                13      0.385960  1 O  pz         
     7      0.368432  1 O  pz         

 Vector    4  Occ=2.000000D+00  E=-5.356994D-01
              MO Center=  3.3D-01, -2.8D-01, -1.9D-12, r^2= 5.9D-01
   Bfn.  Coefficient  Atom+Function         Bfn.  Coefficient  Atom+Function  
  ----- ------------  ---------------      ----- ------------  ---------------
     8      0.340267  1 O  px                 5      0.284008  1 O  px         
    46      0.275526  3 H  s                 11      0.191521  1 O  px         
    45      0.187446  3 H  s          

 Vector    5  Occ=2.000000D+00  E=-4.688091D-01
              MO Center= -5.5D-02,  6.4D-01, -3.6D-13, r^2= 1.4D+00
   Bfn.  Coefficient  Atom+Function         Bfn.  Coefficient  Atom+Function  
  ----- ------------  ---------------      ----- ------------  ---------------
     9      0.315651  1 O  py                32      0.297959  2 H  s          
     6      0.248052  1 O  py                33      0.227176  2 H  s          
    12      0.221463  1 O  py         

 Vector    6  Occ=0.000000D+00  E=-1.018897D-01
              MO Center= -7.0D-02,  8.6D-01, -1.1D-12, r^2= 1.4D+00
   Bfn.  Coefficient  Atom+Function         Bfn.  Coefficient  Atom+Function  
  ----- ------------  ---------------      ----- ------------  ---------------
    32      0.452245  2 H  s                  9     -0.400079  1 O  py         
     6     -0.312706  1 O  py                33      0.255761  2 H  s          
    31      0.204858  2 H  s                 12     -0.151033  1 O  py         

 Vector    7  Occ=0.000000D+00  E=-2.629785D-02
              MO Center=  5.2D-01, -3.4D-01, -2.4D-12, r^2= 6.2D-01
   Bfn.  Coefficient  Atom+Function         Bfn.  Coefficient  Atom+Function  
  ----- ------------  ---------------      ----- ------------  ---------------
    46      0.678658  3 H  s                  5     -0.492090  1 O  px         
     8     -0.429912  1 O  px                45      0.327289  3 H  s          
     2     -0.285702  1 O  s                  4     -0.239865  1 O  s          

 Vector    8  Occ=0.000000D+00  E=-1.375815D-02
              MO Center=  2.5D-02, -1.6D-01, -1.3D-10, r^2= 1.2D+00
   Bfn.  Coefficient  Atom+Function         Bfn.  Coefficient  Atom+Function  
  ----- ------------  ---------------      ----- ------------  ---------------
    13      0.838981  1 O  pz                 7     -0.622159  1 O  pz         
    10     -0.311635  1 O  pz         

 Vector    9  Occ=0.000000D+00  E= 3.052822D-01
              MO Center=  1.1D+00, -7.1D-01,  4.2D-11, r^2= 3.6D+00
   Bfn.  Coefficient  Atom+Function         Bfn.  Coefficient  Atom+Function  
  ----- ------------  ---------------      ----- ------------  ---------------
    47      2.020630  3 H  s                  4     -1.328333  1 O  s          
    11     -0.631423  1 O  px                51     -0.460612  3 H  px         
    46     -0.215998  3 H  s                 52      0.179981  3 H  py         
    12      0.169904  1 O  py         

 Vector   10  Occ=0.000000D+00  E= 3.684800D-01
              MO Center= -1.4D-01,  1.9D+00,  6.7D-13, r^2= 3.2D+00
   Bfn.  Coefficient  Atom+Function         Bfn.  Coefficient  Atom+Function  
  ----- ------------  ---------------      ----- ------------  ---------------
    33      1.837266  2 H  s                 32     -1.243645  2 H  s          
    47     -0.497742  3 H  s                 12     -0.333344  1 O  py         
     4     -0.308587  1 O  s                 46      0.261915  3 H  s          

 Vector   11  Occ=0.000000D+00  E= 6.093248D-01
              MO Center= -3.8D-01,  5.3D-01, -3.5D-12, r^2= 2.1D+00
   Bfn.  Coefficient  Atom+Function         Bfn.  Coefficient  Atom+Function  
  ----- ------------  ---------------      ----- ------------  ---------------
    46      2.445554  3 H  s                  4     -1.967687  1 O  s          
    11     -1.941987  1 O  px                51     -0.735884  3 H  px         
    12      0.587950  1 O  py                37     -0.419756  2 H  px         
    47      0.322214  3 H  s                 33     -0.196964  2 H  s          
    23     -0.162113  1 O  d  2              52      0.159453  3 H  py         

 Vector   12  Occ=0.000000D+00  E= 7.752758D-01
              MO Center=  9.4D-02,  1.1D+00,  1.9D-12, r^2= 1.9D+00
   Bfn.  Coefficient  Atom+Function         Bfn.  Coefficient  Atom+Function  
  ----- ------------  ---------------      ----- ------------  ---------------
    39      0.902819  2 H  pz                53     -0.566642  3 H  pz         
    13      0.171671  1 O  pz         

 Vector   13  Occ=0.000000D+00  E= 7.927972D-01
              MO Center=  1.6D-01, -1.8D-01,  1.5D-12, r^2= 2.4D+00
   Bfn.  Coefficient  Atom+Function         Bfn.  Coefficient  Atom+Function  
  ----- ------------  ---------------      ----- ------------  ---------------
    46      1.490536  3 H  s                  4     -1.348326  1 O  s          
    12      1.096075  1 O  py                11     -1.066372  1 O  px         
    52      0.730757  3 H  py                 9     -0.497109  1 O  py         
    47      0.371724  3 H  s                 37      0.367094  2 H  px         
    51     -0.343308  3 H  px                33     -0.258673  2 H  s          

 Vector   14  Occ=0.000000D+00  E= 8.712034D-01
              MO Center= -3.2D-01,  3.9D-01, -4.4D-12, r^2= 2.6D+00
   Bfn.  Coefficient  Atom+Function         Bfn.  Coefficient  Atom+Function  
  ----- ------------  ---------------      ----- ------------  ---------------
    11      1.096761  1 O  px                46     -0.912041  3 H  s          
    12      0.788013  1 O  py                37     -0.759746  2 H  px         
    52     -0.429664  3 H  py                 9     -0.412544  1 O  py         
    32     -0.373750  2 H  s                  4      0.270608  1 O  s          
    47      0.261711  3 H  s                  2      0.253602  1 O  s          

 Vector   15  Occ=0.000000D+00  E= 9.240789D-01
              MO Center=  8.4D-02,  1.1D+00, -9.6D-12, r^2= 2.1D+00
   Bfn.  Coefficient  Atom+Function         Bfn.  Coefficient  Atom+Function  
  ----- ------------  ---------------      ----- ------------  ---------------
    38     -0.935113  2 H  py                 4      0.863050  1 O  s          
    47     -0.534936  3 H  s                 33      0.489183  2 H  s          
     2     -0.454198  1 O  s                 52     -0.432795  3 H  py         
    46     -0.333372  3 H  s                 32     -0.318627  2 H  s          
    11      0.290898  1 O  px                12     -0.205425  1 O  py         


 center of mass
 --------------
 x =  -0.07599894 y =  -0.11920024 z =   0.00000000

 moments of inertia (a.u.)
 ------------------
          11.355514131583           1.391349018462           0.000000000000
           1.391349018462           2.833002082974           0.000000000000
           0.000000000000           0.000000000000          14.188516214557

  Mulliken analysis of the total density
  --------------------------------------

    Atom       Charge   Shell Charges
 -----------   ------   -------------------------------------------------------
    1 O    8     8.37   1.95  1.05  0.25  0.64  1.20  1.97  1.30  0.00  0.01  0.00
    2 H    1     0.87   0.14  0.43  0.29  0.00  0.01  0.00
    3 H    1     0.75   0.25  0.38  0.04  0.02  0.06  0.01

       Multipole analysis of the density wrt the origin
       ------------------------------------------------

     L   x y z        total         open         nuclear
     -   - - -        -----         ----         -------
     0   0 0 0     -0.000000      0.000000     10.000000

     1   1 0 0      0.562245      0.000000     -0.000000
     1   0 1 0      0.252452      0.000000      0.000000
     1   0 0 1      0.000000      0.000000      0.000000

     2   2 0 0     -4.489774      0.000000      2.679864
     2   1 1 0     -0.813294      0.000000     -1.586236
     2   1 0 1     -0.000000      0.000000      0.000000
     2   0 2 0     -2.920614      0.000000     10.944734
     2   0 1 1     -0.000000      0.000000      0.000000
     2   0 0 2     -5.928555      0.000000      0.000000


 Parallel integral file used      16 records with       0 large values

 ------------------------------------
     Number of active orbitals      8
     Number of active alpha electrons      5
     Number of active beta electrons       5
 ------------------------------------
                   NWChem Extensible Many-Electron Theory Module
                   ---------------------------------------------

              ======================================================
                   This portion of the program was automatically
                  generated by a Tensor Contraction Engine (TCE).
                  The development of this portion of the program
                 and TCE was supported by US Department of Energy,
                Office of Science, Office of Basic Energy Science.
                      TCE is a product of Battelle and PNNL.
              Please cite: S.Hirata, J.Phys.Chem.A 107, 9887 (2003).
              ======================================================

                                        H2O


            General Information
            -------------------
      Number of processors :     1
         Wavefunction type : Restricted Hartree-Fock
          No. of electrons :    10
           Alpha electrons :     5
            Beta electrons :     5
           No. of orbitals :   116
            Alpha orbitals :    58
             Beta orbitals :    58
        Alpha frozen cores :     0
         Beta frozen cores :     0
     Alpha frozen virtuals :    50
      Beta frozen virtuals :    50
         Spin multiplicity : singlet 
    Number of AO functions :    58
       Number of AO shells :    22
        Use of symmetry is : off
      Symmetry adaption is : off
         Schwarz screening : 0.10D-09

          Correlation Information
          -----------------------
          Calculation type : Coupled-cluster singles & doubles                           
   Perturbative correction : none                                                        
            Max iterations :      300
        Residual threshold : 0.10D-06
     T(0) DIIS level shift : 0.00D+00
     L(0) DIIS level shift : 0.00D+00
     T(1) DIIS level shift : 0.00D+00
     L(1) DIIS level shift : 0.00D+00
     T(R) DIIS level shift : 0.00D+00
     T(I) DIIS level shift : 0.00D+00
   CC-T/L Amplitude update :  5-th order DIIS
                I/O scheme : Global Array Library
        L-threshold :  0.10D-06
        EOM-threshold :  0.10D-06
 no EOMCCSD initial starts read in
 TCE RESTART OPTIONS
 READ_INT:   F
 WRITE_INT:  F
 READ_TA:    F
 WRITE_TA:   F
 READ_XA:    F
 WRITE_XA:   F
 READ_IN3:   F
 WRITE_IN3:  F
 SLICE:      F
 D4D5:       F
 quantumc:   T
 qrotation:  F
 pwtce:      F
 qducc:      F
 nacto:                         0
 nrotv:                         0
 nrot:                          0

            Memory Information
            ------------------
          Available GA space size is    1610609372 doubles
          Available MA space size is    1610609772 doubles

 Maximum block size supplied by input
 Maximum block size         1 doubles

 tile_dim =      1

 Block   Spin    Irrep     Size     Offset   Alpha
 -------------------------------------------------
   1    alpha     a      1 doubles       0       1
   2    alpha     a      1 doubles       1       2
   3    alpha     a      1 doubles       2       3
   4    alpha     a      1 doubles       3       4
   5    alpha     a      1 doubles       4       5
   6    beta      a      1 doubles       5       1
   7    beta      a      1 doubles       6       2
   8    beta      a      1 doubles       7       3
   9    beta      a      1 doubles       8       4
  10    beta      a      1 doubles       9       5
  11    alpha     a      1 doubles      10      11
  12    alpha     a      1 doubles      11      12
  13    alpha     a      1 doubles      12      13
  14    beta      a      1 doubles      13      11
  15    beta      a      1 doubles      14      12
  16    beta      a      1 doubles      15      13

 Global array virtual files algorithm will be used

 Parallel file system coherency ......... OK

 Integral file          = ./H2O.aoints.0
 Record size in doubles =  65536        No. of integs per rec  =  43688
 Max. records in memory =     49        Max. records in file   = 250694
 No. of bits per label  =      8        No. of bits per value  =     64


 #quartets = 3.213D+04 #integrals = 6.607D+05 #direct =  0.0% #cached =100.0%


 Fock matrix recomputed
 1-e file size   =               64
 1-e file name   = ./H2O.f1
 Cpu & wall time / sec            0.1            0.1
 4-electron integrals stored in orbital form

 v2    file size   =              666
 4-index algorithm nr.  13 is used
 imaxsize =       30
 imaxsize ichop =        0
 begin_one_electron_integrals
    1    1       -32.7617532695
    2    1        -0.6396650518
    4    1         0.1253477033
    5    1        -0.0207324104
    6    1        -0.0939143532
    7    1        -0.2065494726
    1    2        -0.6396650518
    2    2        -7.6826518523
    4    2        -0.2641122867
    5    2         0.1028931136
    6    2         0.2672989712
    7    2         0.1164197670
    3    3        -6.8947449542
    8    3         2.1358686491
    1    4         0.1253477033
    2    4        -0.2641122867
    4    4        -6.6732229222
    5    4        -0.0654027415
    6    4        -0.0094523473
    7    4         1.9577534447
    1    5        -0.0207324104
    2    5         0.1028931136
    4    5        -0.0654027415
    5    5        -5.2865352587
    6    5         2.1344631083
    7    5        -0.0034045365
    1    6        -0.0939143532
    2    6         0.2672989712
    4    6        -0.0094523473
    5    6         2.1344631083
    6    6        -5.1622342275
    7    6         0.0264642536
    1    7        -0.2065494726
    2    7         0.1164197670
    4    7         1.9577534447
    5    7        -0.0034045365
    6    7         0.0264642536
    7    7        -5.9453896350
    3    8         2.1358686491
    8    8        -5.2451953811
 end_one_electron_integrals
 begin_two_electron_integrals
    1    1    1    1        4.8130907947
    2    1    1    1       -0.2780994563
    2    1    2    1        0.0371217241
    3    1    3    1        0.0288424271
    4    1    1    1       -0.0882506100
    4    1    2    1        0.0033823606
    4    1    4    1        0.0215697108
    4    1    2    2       -0.0145331516
    4    1    3    3       -0.0022283969
    5    1    1    1        0.0110322175
    5    1    2    1       -0.0023494140
    5    1    4    1        0.0006930285
    5    1    5    1        0.0147833313
    5    1    2    2       -0.0014227746
    5    1    4    2        0.0006140426
    5    1    3    3        0.0012269189
    5    1    4    4        0.0012532322
    6    1    1    1        0.0657881790
    6    1    2    1       -0.0056097021
    6    1    4    1       -0.0013958977
    6    1    5    1       -0.0173514454
    6    1    6    1        0.0224244737
    6    1    2    2        0.0055394944
    6    1    4    2        0.0007895441
    6    1    5    2       -0.0175459755
    6    1    3    3        0.0029432935
    6    1    4    4        0.0030190988
    6    1    5    4       -0.0032073997
    6    1    5    5       -0.0003686494
    7    1    1    1        0.1682502676
    7    1    2    1       -0.0093929442
    7    1    4    1       -0.0334743409
    7    1    5    1       -0.0000189485
    7    1    6    1        0.0018373420
    7    1    7    1        0.0526045423
    7    1    2    2        0.0227064209
    7    1    4    2       -0.0264542927
    7    1    5    2       -0.0006385143
    7    1    6    2       -0.0032912403
    7    1    3    3        0.0034784927
    7    1    4    4       -0.0151634248
    7    1    5    4        0.0004465724
    7    1    6    4        0.0024688230
    7    1    5    5        0.0026257087
    7    1    6    5       -0.0014807494
    7    1    6    6        0.0035036102
    8    1    3    1       -0.0394899623
    8    1    8    1        0.0543716082
    8    1    3    2       -0.0379246114
    8    1    4    3       -0.0074516660
    8    1    5    3        0.0001705705
    8    1    6    3        0.0044894038
    8    1    7    3        0.0101564715
    2    2    1    1        1.0864127267
    2    2    2    1        0.0045579189
    2    2    2    2        0.8261650817
    3    2    3    1        0.0267113415
    3    2    3    2        0.1423112031
    4    2    1    1       -0.0042591345
    4    2    2    1       -0.0046367741
    4    2    4    1        0.0171717747
    4    2    2    2       -0.0558532499
    4    2    4    2        0.0908108420
    4    2    3    3        0.0107457087
    5    2    1    1       -0.0392334567
    5    2    2    1       -0.0010978247
    5    2    4    1        0.0010493680
    5    2    5    1        0.0138465326
    5    2    2    2       -0.0331652782
    5    2    4    2        0.0007126582
    5    2    5    2        0.0857329125
    5    2    3    3       -0.0173856724
    5    2    4    4       -0.0175792747
    6    2    1    1       -0.0553716056
    6    2    2    1        0.0008239835
    6    2    4    1        0.0014793453
    6    2    5    1       -0.0147464236
    6    2    6    1        0.0177109309
    6    2    2    2       -0.0218295504
    6    2    4    2        0.0070275088
    6    2    5    2       -0.0731417604
    6    2    6    2        0.0732305693
    6    2    3    3       -0.0286065182
    6    2    4    4       -0.0172865697
    6    2    5    4       -0.0116634001
    6    2    5    5       -0.0236346271
    7    2    1    1       -0.0262349216
    7    2    2    1        0.0053842317
    7    2    4    1       -0.0163774021
    7    2    5    1        0.0002450917
    7    2    6    1       -0.0020574319
    7    2    7    1        0.0240737309
    7    2    2    2        0.0278152707
    7    2    4    2       -0.0595841959
    7    2    5    2        0.0036944201
    7    2    6    2       -0.0088137852
    7    2    7    2        0.0517919454
    7    2    3    3       -0.0179990266
    7    2    4    4       -0.0352311540
    7    2    5    4        0.0009358616
    7    2    6    4        0.0051523457
    7    2    5    5       -0.0084149953
    7    2    6    5        0.0122349469
    7    2    6    6       -0.0094258011
    8    2    3    1       -0.0206288344
    8    2    8    1        0.0265415168
    8    2    3    2       -0.0528563081
    8    2    8    2        0.0436428112
    8    2    4    3       -0.0042724205
    8    2    5    3        0.0013982267
    8    2    6    3        0.0072508856
    8    2    7    3        0.0116568664
    3    3    1    1        1.0447125495
    3    3    2    1        0.0025397810
    3    3    2    2        0.7380622347
    3    3    3    3        0.7559646606
    4    3    3    1        0.0054204405
    4    3    3    2        0.0228055303
    4    3    4    3        0.0362608983
    5    3    3    1       -0.0002148746
    5    3    3    2       -0.0008844621
    5    3    4    3        0.0008902575
    5    3    5    3        0.0214975230
    6    3    3    1       -0.0033109640
    6    3    3    2       -0.0126377878
    6    3    4    3       -0.0019754998
    6    3    5    3       -0.0189645609
    6    3    6    3        0.0205192424
    7    3    3    1       -0.0078764968
    7    3    3    2       -0.0208787066
    7    3    4    3       -0.0202243736
    7    3    5    3        0.0004441167
    7    3    6    3        0.0019107968
    7    3    7    3        0.0248078707
    8    3    1    1       -0.5343816792
    8    3    2    1        0.0003066667
    8    3    4    1        0.0038120354
    8    3    5    1       -0.0010532305
    8    3    6    1       -0.0025092309
    8    3    7    1       -0.0066372426
    8    3    2    2       -0.2182671883
    8    3    4    2        0.0071005044
    8    3    5    2        0.0091910626
    8    3    6    2        0.0168213843
    8    3    7    2        0.0073114646
    8    3    3    3       -0.2129501281
    8    3    8    3        0.1645461333
    8    3    4    4       -0.1445305054
    8    3    5    4       -0.0041645454
    8    3    6    4        0.0002907209
    8    3    7    4        0.1247832036
    8    3    5    5       -0.1095669012
    8    3    6    5        0.1015006831
    8    3    7    5        0.0002046897
    8    3    6    6       -0.1245327900
    8    3    7    6        0.0027980774
    8    3    7    7       -0.1692014760
    4    4    1    1        0.9065303859
    4    4    2    1       -0.0001595519
    4    4    4    1        0.0093789113
    4    4    2    2        0.6355784698
    4    4    4    2        0.0803793359
    4    4    3    3        0.6349362130
    4    4    4    4        0.7701035978
    5    4    1    1        0.0161126937
    5    4    2    1       -0.0000550665
    5    4    4    1       -0.0001660878
    5    4    5    1        0.0027516451
    5    4    2    2        0.0065394140
    5    4    4    2       -0.0022924883
    5    4    5    2        0.0100585544
    5    4    3    3        0.0074280475
    5    4    4    4        0.0045400663
    5    4    5    4        0.0202248924
    6    4    1    1        0.0006352078
    6    4    2    1        0.0008593840
    6    4    4    1       -0.0018697397
    6    4    5    1       -0.0031249236
    6    4    6    1        0.0036852645
    6    4    2    2        0.0084526946
    6    4    4    2       -0.0041638968
    6    4    5    2       -0.0139444997
    6    4    6    2        0.0115720090
    6    4    3    3        0.0012156818
    6    4    4    4        0.0029323153
    6    4    5    4       -0.0181585486
    6    4    6    4        0.0193658506
    6    4    5    5       -0.0073518393
    7    4    1    1       -0.4768949694
    7    4    2    1        0.0019577537
    7    4    4    1       -0.0040936378
    7    4    5    1       -0.0011527957
    7    4    6    1       -0.0022790104
    7    4    7    1        0.0032577619
    7    4    2    2       -0.2126368140
    7    4    4    2        0.0127018671
    7    4    5    2        0.0055039143
    7    4    6    2        0.0163472840
    7    4    7    2        0.0173386334
    7    4    3    3       -0.1846346838
    7    4    4    4       -0.1027613896
    7    4    5    4       -0.0058196272
    7    4    6    4        0.0053371145
    7    4    7    4        0.2112569660
    7    4    5    5       -0.1141931172
    7    4    6    5        0.0917769128
    7    4    6    6       -0.1270664032
    8    4    3    1       -0.0026262265
    8    4    8    1        0.0028476347
    8    4    3    2        0.0035895745
    8    4    8    2        0.0035465750
    8    4    4    3       -0.0024230718
    8    4    5    3       -0.0002872680
    8    4    6    3        0.0006183253
    8    4    7    3        0.0158949001
    8    4    8    4        0.0178486129
    5    5    1    1        0.7056974970
    5    5    2    1        0.0014850346
    5    5    4    1       -0.0015271960
    5    5    5    1        0.0012901506
    5    5    2    2        0.5445742013
    5    5    4    2       -0.0001101034
    5    5    5    2        0.0194101283
    5    5    3    3        0.5077726521
    5    5    4    4        0.4715101796
    5    5    5    4        0.0050579058
    5    5    5    5        0.5186855665
    6    5    1    1       -0.4260670259
    6    5    2    1       -0.0012478751
    6    5    4    1        0.0010373554
    6    5    5    1       -0.0018285801
    6    5    6    1       -0.0013858487
    6    5    2    2       -0.2433365719
    6    5    4    2       -0.0101797024
    6    5    5    2        0.0278322067
    6    5    6    2        0.0112811732
    6    5    3    3       -0.2198499033
    6    5    4    4       -0.2009554342
    6    5    5    4       -0.0064533293
    6    5    6    4       -0.0059337915
    6    5    5    5       -0.0661111364
    6    5    6    5        0.2205142783
    7    5    1    1       -0.0003211329
    7    5    2    1        0.0003194936
    7    5    4    1       -0.0001298416
    7    5    5    1       -0.0042993673
    7    5    6    1        0.0051740994
    7    5    7    1       -0.0000113496
    7    5    2    2        0.0033010913
    7    5    4    2        0.0005593790
    7    5    5    2       -0.0135510953
    7    5    6    2        0.0132685557
    7    5    7    2       -0.0016012880
    7    5    3    3        0.0009420193
    7    5    4    4       -0.0015630309
    7    5    5    4       -0.0108716287
    7    5    6    4        0.0125325999
    7    5    7    4       -0.0002882767
    7    5    5    5       -0.0025544493
    7    5    6    5       -0.0025406920
    7    5    7    5        0.0139568806
    7    5    6    6       -0.0048038871
    8    5    3    1        0.0002961503
    8    5    8    1       -0.0005212527
    8    5    3    2        0.0045016221
    8    5    8    2       -0.0002602217
    8    5    4    3        0.0001878610
    8    5    5    3       -0.0043279989
    8    5    6    3        0.0076287219
    8    5    7    3       -0.0000221818
    8    5    8    4        0.0008324534
    8    5    8    5        0.0111504621
    6    6    1    1        0.7546905089
    6    6    2    1        0.0009427362
    6    6    4    1       -0.0019008300
    6    6    5    1        0.0042862640
    6    6    6    1       -0.0034094089
    6    6    2    2        0.5394963032
    6    6    4    2        0.0002533000
    6    6    5    2        0.0266628234
    6    6    6    2       -0.0322062983
    6    6    3    3        0.5049317041
    6    6    4    4        0.4652326495
    6    6    5    4        0.0039851467
    6    6    6    4       -0.0087110157
    6    6    5    5        0.5297169201
    6    6    6    5       -0.0444121141
    6    6    6    6        0.5632340651
    7    6    1    1       -0.0077065479
    7    6    2    1       -0.0013012664
    7    6    4    1        0.0025922630
    7    6    5    1        0.0049992943
    7    6    6    1       -0.0057578080
    7    6    7    1       -0.0036940612
    7    6    2    2       -0.0144555144
    7    6    4    2        0.0106777784
    7    6    5    2        0.0150744639
    7    6    6    2       -0.0141932216
    7    6    7    2       -0.0060869272
    7    6    3    3       -0.0022152465
    7    6    4    4        0.0086895320
    7    6    5    4        0.0137371981
    7    6    6    4       -0.0151759421
    7    6    7    4        0.0063153401
    7    6    5    5       -0.0028545249
    7    6    6    5       -0.0016844591
    7    6    7    5       -0.0147268565
    7    6    6    6       -0.0026171224
    7    6    7    6        0.0184220341
    8    6    3    1        0.0032296122
    8    6    8    1       -0.0045382862
    8    6    3    2        0.0129507079
    8    6    8    2       -0.0050076919
    8    6    4    3        0.0024093710
    8    6    5    3        0.0101531800
    8    6    6    3       -0.0115297722
    8    6    7    3       -0.0014460886
    8    6    8    4        0.0004287262
    8    6    8    5       -0.0070423011
    8    6    8    6        0.0118252580
    7    7    1    1        1.0496536862
    7    7    2    1       -0.0044232381
    7    7    4    1        0.0094122345
    7    7    5    1        0.0017262731
    7    7    6    1        0.0044624023
    7    7    7    1       -0.0141724955
    7    7    2    2        0.6284067403
    7    7    4    2        0.0711138640
    7    7    5    2       -0.0181338210
    7    7    6    2       -0.0192315152
    7    7    7    2       -0.0346816225
    7    7    3    3        0.6315767289
    7    7    4    4        0.7505779990
    7    7    5    4        0.0044248002
    7    7    6    4        0.0045797523
    7    7    7    4       -0.1020248119
    7    7    5    5        0.4637910803
    7    7    6    5       -0.2070942926
    7    7    7    5       -0.0014596398
    7    7    6    6        0.4641395835
    7    7    7    6        0.0090498339
    7    7    7    7        0.7885626226
    8    7    3    1        0.0076380575
    8    7    8    1       -0.0103264446
    8    7    3    2        0.0249585626
    8    7    8    2       -0.0072364166
    8    7    4    3        0.0276178667
    8    7    5    3        0.0004173199
    8    7    6    3       -0.0017657210
    8    7    7    3       -0.0169475588
    8    7    8    4       -0.0030260775
    8    7    8    5        0.0007442411
    8    7    8    6        0.0027796938
    8    7    8    7        0.0297206154
    8    8    1    1        1.0232929175
    8    8    2    1       -0.0024023296
    8    8    4    1       -0.0041979388
    8    8    5    1        0.0016252218
    8    8    6    1        0.0033855896
    8    8    7    1        0.0067702765
    8    8    2    2        0.6284631503
    8    8    4    2        0.0102056070
    8    8    5    2       -0.0129516298
    8    8    6    2       -0.0233656787
    8    8    7    2       -0.0125219686
    8    8    3    3        0.6469692088
    8    8    8    3       -0.1801952779
    8    8    4    4        0.5643945891
    8    8    5    4        0.0063675471
    8    8    6    4        0.0013261302
    8    8    7    4       -0.1463026548
    8    8    5    5        0.4529585381
    8    8    6    5       -0.1794838328
    8    8    7    5        0.0002348953
    8    8    6    6        0.4528873242
    8    8    7    6       -0.0007482863
    8    8    7    7        0.5789974261
    8    8    8    8        0.5960320030
 end_two_electron_integrals
 enrep_tce =    6.9535065681120143     
  EHF(A)             =       -75.85546274
  EHF(total)         =       -75.85546274
  Shift (HFtot-HFA)  =         0.00000000
 Cpu & wall time / sec            1.0            1.1
 T1-number-of-tasks                   15

 t1 file size   =               15
 t1 file name   = ./H2O.t1
 t1 file handle =       -998
 T2-number-of-boxes                  315

 t2 file size   =              315
 t2 file name   = ./H2O.t2
 t2 file handle =       -996
CCSD iterations
 ---------------------------------------------------------
 Iter          Residuum       Correlation     Cpu    Wall 
 ---------------------------------------------------------
NEW TASK SCHEDULING
CCSD_T1_NTS --- OK
CCSD_T2_NTS --- OK
    1   0.6456158567255  -0.2598905945337     1.9     2.7
    2   0.9870985138415   0.0400079078824     1.8     2.7
    3   1.5296254794393  -0.4399369632329     1.7     2.6
    4   2.3698322069458   0.2855347405557     1.7     2.6
    5   3.6198641767537  -0.8036625619464     1.8     2.6
 MICROCYCLE DIIS UPDATE:                    5                    5
    6   0.0226227018946  -0.1510667582884     1.8     2.6
    7   0.0325467495132  -0.1504785384090     1.9     2.7
    8   0.0566577047592  -0.1533730123690     1.9     2.7
    9   0.1058943745772  -0.1504044772247     1.8     2.6
   10   0.2026400633209  -0.1542944336964     1.9     2.6
 MICROCYCLE DIIS UPDATE:                   10                    5
   11   0.0013822083011  -0.1522804381918     2.0     2.7
   12   0.0012519822689  -0.1523237934193     1.8     2.6
   13   0.0018031224503  -0.1520890153773     1.8     2.6
   14   0.0030236796318  -0.1524353786393     1.8     2.6
   15   0.0052758151871  -0.1519001002048     1.7     2.6
 MICROCYCLE DIIS UPDATE:                   15                    5
   16   0.0001432832852  -0.1522157085865     1.8     2.6
   17   0.0001110613059  -0.1522155480077     1.8     2.7
   18   0.0001540225623  -0.1522536851974     1.8     2.7
   19   0.0002518233753  -0.1522054507359     1.9     2.7
   20   0.0004262275598  -0.1522827400056     1.9     2.7
 MICROCYCLE DIIS UPDATE:                   20                    5
   21   0.0000148119477  -0.1522366207720     2.0     2.7
   22   0.0000157276279  -0.1522383258775     1.9     2.7
   23   0.0000245821306  -0.1522343933553     1.8     2.7
   24   0.0000432282908  -0.1522404224751     1.8     2.6
   25   0.0000787080682  -0.1522309993861     1.8     2.6
 MICROCYCLE DIIS UPDATE:                   25                    5
   26   0.0000015647238  -0.1522366087651     1.7     2.7
   27   0.0000009596016  -0.1522366809772     1.9     2.6
   28   0.0000012596909  -0.1522369812161     1.9     2.6
   29   0.0000021253232  -0.1522366326892     1.7     2.6
   30   0.0000037772909  -0.1522371981184     1.9     2.7
 MICROCYCLE DIIS UPDATE:                   30                    5
   31   0.0000001504757  -0.1522368605868     1.9     2.7
   32   0.0000001562326  -0.1522368842971     1.8     2.7
   33   0.0000002352642  -0.1522368382662     1.9     2.6
   34   0.0000004053362  -0.1522369095945     1.8     2.7
   35   0.0000007299867  -0.1522367980747     1.9     2.7
 MICROCYCLE DIIS UPDATE:                   35                    5
   36   0.0000000164122  -0.1522368652895     1.9     2.7
 -----------------------------------------------------------------
 Iterations converged
 CCSD correlation energy / hartree =        -0.152236865289539
 CCSD total energy / hartree       =       -76.007699600313202

 Singles contributions

 Doubles contributions
     6a   (alpha)     8a   (alpha) ---     3a   (alpha)     5a   (alpha)        0.0217872264
     6a   (alpha)     6a   (beta ) ---     5a   (alpha)     5a   (beta )       -0.3687070754
     6a   (alpha)     7a   (beta ) ---     5a   (alpha)     4a   (beta )       -0.0317233308
     6a   (alpha)     8a   (beta ) ---     5a   (alpha)     3a   (beta )       -0.0331608897
     7a   (alpha)     8a   (alpha) ---     3a   (alpha)     4a   (alpha)        0.0317587622
     7a   (alpha)     6a   (beta ) ---     4a   (alpha)     5a   (beta )       -0.0317233308
     7a   (alpha)     7a   (beta ) ---     4a   (alpha)     4a   (beta )       -0.0910173138
     7a   (alpha)     8a   (beta ) ---     4a   (alpha)     3a   (beta )       -0.0417329825
     8a   (alpha)     6a   (beta ) ---     3a   (alpha)     5a   (beta )       -0.0331608897
     8a   (alpha)     7a   (beta ) ---     3a   (alpha)     4a   (beta )       -0.0417329825
     8a   (alpha)     8a   (beta ) ---     3a   (alpha)     3a   (beta )       -0.0587947095
 Ground state specification:
 exp(T)|Ref>~(1+T)|Ref>
 ------- a(p)+/a(q) strings ----------

 singles norm

 doubles norm

 Reference string
  0.93825603285118309      :(1a)+ (2a)+ (3a)+ (4a)+ (5a)+ (1b)+ (2b)+ (3b)+ (4b)+ (5b)+ |0>

 Singles strings

 Doubles strings
 -0.34594163787893406      :(6a)+ (6b)+ (5b)  (5a)  (1a)+ (2a)+ (3a)+ (4a)+ (5a)+ (1b)+ (2b)+ (3b)+ (4b)+ (5b)+ |0>
 -------------------------------------

 Parallel integral file used      16 records with       0 large values


 Task  times  cpu:       67.6s     wall:       97.7s


                                NWChem Input Module
                                -------------------


 Summary of allocated global arrays
-----------------------------------
  No active global arrays


MA_summarize_allocated_blocks: starting scan ...
MA_summarize_allocated_blocks: scan completed: 0 heap blocks, 0 stack blocks
MA usage statistics:

	allocation statistics:
					      heap	     stack
					      ----	     -----
	current number of blocks	         0	         0
	maximum number of blocks	        18	        42
	current total bytes		         0	         0
	maximum total bytes		  25775960	  38234456
	maximum total K-bytes		     25776	     38235
	maximum total M-bytes		        26	        39


                                     CITATION
                                     --------
                Please cite the following reference when publishing
                           results obtained with NWChem:

          E. Apra, E. J. Bylaska, W. A. de Jong, N. Govind, K. Kowalski,
       T. P. Straatsma, M. Valiev, H. J. J. van Dam, Y. Alexeev, J. Anchell,
       V. Anisimov, F. W. Aquino, R. Atta-Fynn, J. Autschbach, N. P. Bauman,
     J. C. Becca, D. E. Bernholdt, K. Bhaskaran-Nair, S. Bogatko, P. Borowski,
         J. Boschen, J. Brabec, A. Bruner, E. Cauet, Y. Chen, G. N. Chuev,
      C. J. Cramer, J. Daily, M. J. O. Deegan, T. H. Dunning Jr., M. Dupuis,
   K. G. Dyall, G. I. Fann, S. A. Fischer, A. Fonari, H. Fruchtl, L. Gagliardi,
      J. Garza, N. Gawande, S. Ghosh, K. Glaesemann, A. W. Gotz, J. Hammond,
       V. Helms, E. D. Hermes, K. Hirao, S. Hirata, M. Jacquelin, L. Jensen,
   B. G. Johnson, H. Jonsson, R. A. Kendall, M. Klemm, R. Kobayashi, V. Konkov,
      S. Krishnamoorthy, M. Krishnan, Z. Lin, R. D. Lins, R. J. Littlefield,
      A. J. Logsdail, K. Lopata, W. Ma, A. V. Marenich, J. Martin del Campo,
   D. Mejia-Rodriguez, J. E. Moore, J. M. Mullin, T. Nakajima, D. R. Nascimento,
    J. A. Nichols, P. J. Nichols, J. Nieplocha, A. Otero-de-la-Roza, B. Palmer,
    A. Panyala, T. Pirojsirikul, B. Peng, R. Peverati, J. Pittner, L. Pollack,
   R. M. Richard, P. Sadayappan, G. C. Schatz, W. A. Shelton, D. W. Silverstein,
   D. M. A. Smith, T. A. Soares, D. Song, M. Swart, H. L. Taylor, G. S. Thomas,
            V. Tipparaju, D. G. Truhlar, K. Tsemekhman, T. Van Voorhis,
      A. Vazquez-Mayagoitia, P. Verma, O. Villa, A. Vishnu, K. D. Vogiatzis,
        D. Wang, J. H. Weare, M. J. Williamson, T. L. Windus, K. Wolinski,
        A. T. Wong, Q. Wu, C. Yang, Q. Yu, M. Zacharias, Z. Zhang, Y. Zhao,
                                and R. J. Harrison
                        "NWChem: Past, present, and future
                         J. Chem. Phys. 152, 184102 (2020)
                               doi:10.1063/5.0004997

                                      AUTHORS
                                      -------
  E. Apra, E. J. Bylaska, N. Govind, K. Kowalski, M. Valiev, D. Mejia-Rodriguez,
       A. Kunitsa, N. P. Bauman, A. Panyala, W. A. de Jong, T. P. Straatsma,
        H. J. J. van Dam, D. Wang, T. L. Windus, J. Hammond, J. Autschbach,
    K. Bhaskaran-Nair, J. Brabec, K. Lopata, S. A. Fischer, S. Krishnamoorthy,
     M. Jacquelin, W. Ma, M. Klemm, O. Villa, Y. Chen, V. Anisimov, F. Aquino,
    S. Hirata, M. T. Hackler, Eric Hermes, L. Jensen, J. E. Moore, J. C. Becca,
      V. Konjkov, T. Risthaus, M. Malagoli, A. Marenich, A. Otero-de-la-Roza,
        J. Mullin, P. Nichols, R. Peverati, J. Pittner, Y. Zhao, P.-D. Fan,
        A. Fonari, M. J. Williamson, R. J. Harrison, J. R. Rehr, M. Dupuis,
     D. Silverstein, D. M. A. Smith, J. Nieplocha, V. Tipparaju, M. Krishnan,
     B. E. Van Kuiken, A. Vazquez-Mayagoitia, M. Swart, Q. Wu, T. Van Voorhis,
     A. A. Auer, M. Nooijen, L. D. Crosby, E. Brown, G. Cisneros, G. I. Fann,
   H. Fruchtl, J. Garza, K. Hirao, R. A. Kendall, J. A. Nichols, K. Tsemekhman,
    K. Wolinski, J. Anchell, D. E. Bernholdt, P. Borowski, T. Clark, D. Clerc,
   H. Dachsel, M. J. O. Deegan, K. Dyall, D. Elwood, E. Glendening, M. Gutowski,
   A. C. Hess, J. Jaffe, B. G. Johnson, J. Ju, R. Kobayashi, R. Kutteh, Z. Lin,
   R. Littlefield, X. Long, B. Meng, T. Nakajima, S. Niu, L. Pollack, M. Rosing,
   K. Glaesemann, G. Sandrone, M. Stave, H. Taylor, G. Thomas, J. H. van Lenthe,
                               A. T. Wong, Z. Zhang.

 Total times  cpu:       72.0s     wall:      106.2s
