 argument  1 = input.nw
  NWChem w/ OpenMP: maximum threads =    1



============================== echo of input deck ==============================
 echo
 start H2O
 title "H2O"

 memory total 24 gb

 geometry units bohr
 symmetry c1
        O  0.00000000  0.00000000  0.00000000
        H  0.00000000  3.465686  0.00000000
        H  1.72558000 -0.64860000  0.00000000
 end

 basis spherical
   * library cc-pVTZ
 end

 mcscf
   active  8
   actelec 10
   multiplicity 1
   maxiter 40
   vectors input h2o.mos
   vectors output h2o.mos
 end

 task mcscf

 scf
   vectors input h2o.mos
   vectors output h2o-trash.mos
   noscf
 end

 tce
   2eorb
   2emet 13
   ccsd
   maxiter 300
 end

 set tce:print_integrals T
 set tce:qorb 8
 set tce:qela 5
 set tce:qelb 5

# set tce:qducc T
# set tce:nactv 3
# set tce:nonhf T
# set tce:ducc_model 6

 set tce:printtol 0.02

 task tce
================================================================================


                                         
                                         


             Northwest Computational Chemistry Package (NWChem) 7.0.1
             --------------------------------------------------------


                    Environmental Molecular Sciences Laboratory
                       Pacific Northwest National Laboratory
                                Richland, WA 99352

                              Copyright (c) 1994-2020
                       Pacific Northwest National Laboratory
                            Battelle Memorial Institute

             NWChem is an open-source computational chemistry package
                        distributed under the terms of the
                      Educational Community License (ECL) 2.0
             A copy of the license is included with this distribution
                              in the LICENSE.TXT file

                                  ACKNOWLEDGMENT
                                  --------------

            This software and its documentation were developed at the
            EMSL at Pacific Northwest National Laboratory, a multiprogram
            national laboratory, operated for the U.S. Department of Energy
            by Battelle under Contract Number DE-AC05-76RL01830. Support
            for this work was provided by the Department of Energy Office
            of Biological and Environmental Research, Office of Basic
            Energy Sciences, and the Office of Advanced Scientific Computing.


           Job information
           ---------------

    hostname        = WE46210
    program         = /home/baum612/code/nwchem/bin/LINUX64/nwchem
    date            = Thu May  2 11:40:48 2024

    compiled        = Tue_Apr_30_12:43:26_2024
    source          = /home/baum612/code/nwchem
    nwchem branch   = 7.0.0
    nwchem revision = nwchem_on_git-4191-g39d87d64de
    ga revision     = 5.8.1
    use scalapack   = F
    input           = input.nw
    prefix          = H2O.
    data base       = ./H2O.db
    status          = startup
    nproc           =        1
    time left       =     -1s



           Memory information
           ------------------

    heap     =  805306362 doubles =   6144.0 Mbytes
    stack    =  805306367 doubles =   6144.0 Mbytes
    global   = 1610612736 doubles =  12288.0 Mbytes (distinct from heap & stack)
    total    = 3221225465 doubles =  24576.0 Mbytes
    verify   = yes
    hardfail = no 


           Directory information
           ---------------------

  0 permanent = .
  0 scratch   = .




                                NWChem Input Module
                                -------------------


                                        H2O
                                        ---
 Turning off AUTOSYM since
 SYMMETRY directive was detected!


          ------
          auto-z
          ------
  autoz: The atoms group into disjoint clusters
 cluster   1:    1    3
 cluster   2:    2
 Connecting clusters   1   2 via atoms    1    2 r = 1.83
  autoz: regenerating connections with new bonds
  no constraints, skipping    0.0000000000000000     
  no constraints, skipping    0.0000000000000000     


                             Geometry "geometry" -> ""
                             -------------------------

 Output coordinates in a.u. (scale by  1.000000000 to convert to a.u.)

  No.       Tag          Charge          X              Y              Z
 ---- ---------------- ---------- -------------- -------------- --------------
    1 O                    8.0000    -0.17255800    -0.28170860     0.00000000
    2 H                    1.0000    -0.17255800     3.18397740     0.00000000
    3 H                    1.0000     1.55302200    -0.93030860     0.00000000

      Atomic Mass 
      ----------- 

      O                 15.994910
      H                  1.007825


 Effective nuclear repulsion energy (a.u.)       6.8721741219

            Nuclear Dipole moment (a.u.) 
            ----------------------------
        X                 Y               Z
 ---------------- ---------------- ----------------
    -0.0000000000     0.0000000000     0.0000000000



                                Z-matrix (autoz)
                                -------- 

 Units are Angstrom for bonds and degrees for angles

      Type          Name      I     J     K     L     M      Value
      ----------- --------  ----- ----- ----- ----- ----- ----------
    1 Stretch                  1     2                       1.83396
    2 Stretch                  1     3                       0.97551
    3 Bend                     2     1     3               110.59992


            XYZ format geometry
            -------------------
     3
 geometry
 O                    -0.09131377    -0.14907378     0.00000000
 H                    -0.09131377     1.68488840     0.00000000
 H                     0.82182391    -0.49229815     0.00000000

 ==============================================================================
                                internuclear distances
 ------------------------------------------------------------------------------
       center one      |      center two      | atomic units |       a.u.
 ------------------------------------------------------------------------------
    3 H                |   1 O                |     1.84345  |     1.84345
 ------------------------------------------------------------------------------
                         number of included internuclear distances:          1
 ==============================================================================





 Summary of "ao basis" -> "" (spherical)
 ------------------------------------------------------------------------------
       Tag                 Description            Shells   Functions and Types
 ---------------- ------------------------------  ------  ---------------------
 *                          cc-pVTZ                   on all atoms 


                      Basis "ao basis" -> "ao basis" (spherical)
                      -----
  O (Oxygen)
  ----------
            Exponent  Coefficients 
       -------------- ---------------------------------------------------------
  1 S  1.53300000E+04  0.000508
  1 S  2.29900000E+03  0.003929
  1 S  5.22400000E+02  0.020243
  1 S  1.47300000E+02  0.079181
  1 S  4.75500000E+01  0.230687
  1 S  1.67600000E+01  0.433118
  1 S  6.20700000E+00  0.350260
  1 S  6.88200000E-01 -0.008154

  2 S  1.53300000E+04 -0.000115
  2 S  2.29900000E+03 -0.000895
  2 S  5.22400000E+02 -0.004636
  2 S  1.47300000E+02 -0.018724
  2 S  4.75500000E+01 -0.058463
  2 S  1.67600000E+01 -0.136463
  2 S  6.20700000E+00 -0.175740
  2 S  6.88200000E-01  0.603418

  3 S  1.75200000E+00  1.000000

  4 S  2.38400000E-01  1.000000

  5 P  3.44600000E+01  0.015928
  5 P  7.74900000E+00  0.099740
  5 P  2.28000000E+00  0.310492

  6 P  7.15600000E-01  1.000000

  7 P  2.14000000E-01  1.000000

  8 D  2.31400000E+00  1.000000

  9 D  6.45000000E-01  1.000000

 10 F  1.42800000E+00  1.000000

  H (Hydrogen)
  ------------
            Exponent  Coefficients 
       -------------- ---------------------------------------------------------
  1 S  3.38700000E+01  0.006068
  1 S  5.09500000E+00  0.045308
  1 S  1.15900000E+00  0.202822

  2 S  3.25800000E-01  1.000000

  3 S  1.02700000E-01  1.000000

  4 P  1.40700000E+00  1.000000

  5 P  3.88000000E-01  1.000000

  6 D  1.05700000E+00  1.000000



 Summary of "ao basis" -> "ao basis" (spherical)
 ------------------------------------------------------------------------------
       Tag                 Description            Shells   Functions and Types
 ---------------- ------------------------------  ------  ---------------------
 O                          cc-pVTZ                 10       30   4s3p2d1f
 H                          cc-pVTZ                  6       14   3s2p1d



                            NWChem Direct MCSCF Module
                            --------------------------


                                        H2O


     -----------------------------------
       Basis functions:             58
       Inactive shells:              0
       Active shells:                8
       Active electrons:            10
       Symmetry:                    a       
       Multiplicity:                 1
       Orbital rotations:          400
     -----------------------------------

     -----------------------------------
       E2 extrapolation:             F
       Conjugacy:                    T
       Micro CI relax:               T
       Canonical orbitals:           T
       Maximum iterations:          40
       Converge threshold:    1.00E-04
       Conjugacy resets:            20
       Initial levelshift:        0.10
     -----------------------------------

 Loading old vectors from job with title :

H2O


   input molecular orbitals = ./h2o.mos
  output molecular orbtials = ./h2o.mos

       No. of determinants:          3136


  Starting Orbital Energies
   -20.601187    -1.298522    -0.663800    -0.537729    -0.459526    -0.110243
    -0.026298    -0.013641     0.303161     0.372033     0.610158     0.773870
     0.793874     0.870331     0.908258     0.937242     0.976898     1.324123
     1.375259     1.745752     1.900005     2.037330     2.047539     2.178137
     2.640777     2.784153     3.399975     3.416884     3.437804     3.439200
     3.466946     3.562170     3.568733     3.652199     3.820472     3.884897
     3.951892     3.971124     4.051155     4.074520     4.273636     4.408003
     4.531986     4.747585     5.155707     5.569602     5.617047     5.812740
     5.866824     6.750886     6.819529     6.844110     6.845022     7.023599
     7.066895     7.181079     7.561286    10.872112

  Orbital Symmetry Irreps
a    a    a    a    a    a    a    a    a    a    a    a    a    a    a   
a    a    a    a    a    a    a    a    a    a    a    a    a    a    a   
a    a    a    a    a    a    a    a    a    a    a    a    a    a    a   
a    a    a    a    a    a    a    a    a    a    a    a    a   

 Integral file          = ./H2O.aoints.0
 Record size in doubles =  65536        No. of integs per rec  =  43688
 Max. records in memory =     49        Max. records in file   = 250656
 No. of bits per label  =      8        No. of bits per value  =     64


 #quartets = 3.212D+04 #integrals = 6.583D+05 #direct =  0.0% #cached =100.0%




          %%%%% MacroIteration   1 %%%%%


          Number of sigma calls:       21
                       o<<<<< (aa):             0.00
                       o<<<<< (bb):             0.00
                       o<<<<< (ab):             0.05
                       o<<<<< (total)           0.05
                       o<<<<< (aa) ff           0.00
                       o<<<<< (aa) gop          0.00
                       o<<<<< (aa) dot          0.00
                       o<<<<< (ab) str          0.00
                       o<<<<< (ab) gath         0.00
                       o<<<<< (ab) dotab        0.00
                       o<<<<< (ab) scat         0.00
                       o<<<<< (ab) sync         0.00
                       o<<<<< Density           0.01
                       o<<<<< Density one       0.00
                       o<<<<< Density two       0.00
                       o<<<<< Density ab        0.01
                       o<<<<< Spin adapt        0.24
                       o<<<<< Symm adapt        0.00

                       o<<<<< (ab) max sync:      0.00

           >>>| Valence CI:            -82.874634485592
           >>>| MCSCF energy:          -76.002460363703
           >>>| Gradient norm:          0.477619463D-02

                              ----- Line search ------

        step       energy         lsg     num-lsg   num-lsh   lsrat    time
      ------- ---------------- --------- --------- --------- ------- --------
       0.0000     -76.00246036 -4.57D-06  0.00D+00  0.00D+00 0.0D+00      0.9

          Number of sigma calls:       20
                       o<<<<< (aa):             0.00
                       o<<<<< (bb):             0.00
                       o<<<<< (ab):             0.06
                       o<<<<< (total)           0.07
                       o<<<<< (aa) ff           0.00
                       o<<<<< (aa) gop          0.00
                       o<<<<< (aa) dot          0.00
                       o<<<<< (ab) str          0.00
                       o<<<<< (ab) gath         0.00
                       o<<<<< (ab) dotab        0.00
                       o<<<<< (ab) scat         0.00
                       o<<<<< (ab) sync         0.00
                       o<<<<< Density           0.00
                       o<<<<< Density one       0.00
                       o<<<<< Density two       0.00
                       o<<<<< Density ab        0.00
                       o<<<<< Spin adapt        0.27
                       o<<<<< Symm adapt        0.00

                       o<<<<< (ab) max sync:      0.00
       1.0000     -76.00246304 -7.79D-07 -7.80D-07  3.79D-06 1.7D-01      1.3

          Number of sigma calls:       16
                       o<<<<< (aa):             0.00
                       o<<<<< (bb):             0.00
                       o<<<<< (ab):             0.05
                       o<<<<< (total)           0.06
                       o<<<<< (aa) ff           0.00
                       o<<<<< (aa) gop          0.00
                       o<<<<< (aa) dot          0.00
                       o<<<<< (ab) str          0.00
                       o<<<<< (ab) gath         0.00
                       o<<<<< (ab) dotab        0.00
                       o<<<<< (ab) scat         0.00
                       o<<<<< (ab) sync         0.00
                       o<<<<< Density           0.01
                       o<<<<< Density one       0.00
                       o<<<<< Density two       0.00
                       o<<<<< Density ab        0.01
                       o<<<<< Spin adapt        0.28
                       o<<<<< Symm adapt        0.00

                       o<<<<< (ab) max sync:      0.00
       1.2058     -76.00246312  1.10D-09  1.06D-09  3.79D-06 2.4D-04      1.7
     --- Orbitals canonicalized ---



          %%%%% MacroIteration   2 %%%%%


          Number of sigma calls:       20
                       o<<<<< (aa):             0.00
                       o<<<<< (bb):             0.00
                       o<<<<< (ab):             0.06
                       o<<<<< (total)           0.07
                       o<<<<< (aa) ff           0.00
                       o<<<<< (aa) gop          0.00
                       o<<<<< (aa) dot          0.00
                       o<<<<< (ab) str          0.00
                       o<<<<< (ab) gath         0.00
                       o<<<<< (ab) dotab        0.00
                       o<<<<< (ab) scat         0.00
                       o<<<<< (ab) sync         0.00
                       o<<<<< Density           0.00
                       o<<<<< Density one       0.00
                       o<<<<< Density two       0.00
                       o<<<<< Density ab        0.00
                       o<<<<< Spin adapt        0.26
                       o<<<<< Symm adapt        0.00

                       o<<<<< (ab) max sync:      0.00

           >>>| Valence CI:            -82.874637239531
           >>>| MCSCF energy:          -76.002463117643
           >>>| Gradient norm:          0.901804354D-03
     --- Warning:    4 Hessian diagonals < 0.05 ---
     --- Conjugacy reset ---

                              ----- Line search ------

        step       energy         lsg     num-lsg   num-lsh   lsrat    time
      ------- ---------------- --------- --------- --------- ------- --------
       0.0000     -76.00246312 -1.90D-07  0.00D+00  0.00D+00 0.0D+00      2.3

          Number of sigma calls:       16
                       o<<<<< (aa):             0.00
                       o<<<<< (bb):             0.00
                       o<<<<< (ab):             0.05
                       o<<<<< (total)           0.06
                       o<<<<< (aa) ff           0.00
                       o<<<<< (aa) gop          0.00
                       o<<<<< (aa) dot          0.00
                       o<<<<< (ab) str          0.00
                       o<<<<< (ab) gath         0.00
                       o<<<<< (ab) dotab        0.00
                       o<<<<< (ab) scat         0.00
                       o<<<<< (ab) sync         0.00
                       o<<<<< Density           0.00
                       o<<<<< Density one       0.00
                       o<<<<< Density two       0.00
                       o<<<<< Density ab        0.00
                       o<<<<< Spin adapt        0.27
                       o<<<<< Symm adapt        0.00

                       o<<<<< (ab) max sync:      0.00
       1.0000     -76.00246323 -3.80D-08 -3.81D-08  1.52D-07 2.0D-01      2.7

          Number of sigma calls:       13
                       o<<<<< (aa):             0.00
                       o<<<<< (bb):             0.00
                       o<<<<< (ab):             0.04
                       o<<<<< (total)           0.05
                       o<<<<< (aa) ff           0.00
                       o<<<<< (aa) gop          0.00
                       o<<<<< (aa) dot          0.00
                       o<<<<< (ab) str          0.00
                       o<<<<< (ab) gath         0.00
                       o<<<<< (ab) dotab        0.00
                       o<<<<< (ab) scat         0.00
                       o<<<<< (ab) sync         0.00
                       o<<<<< Density           0.01
                       o<<<<< Density one       0.00
                       o<<<<< Density two       0.00
                       o<<<<< Density ab        0.01
                       o<<<<< Spin adapt        0.23
                       o<<<<< Symm adapt        0.00

                       o<<<<< (ab) max sync:      0.00
       1.2502     -76.00246324  3.32D-11  3.04D-11  1.52D-07 1.7D-04      3.1



          %%%%% MacroIteration   3 %%%%%


          Number of sigma calls:        1
                       o<<<<< (aa):             0.00
                       o<<<<< (bb):             0.00
                       o<<<<< (ab):             0.00
                       o<<<<< (total)           0.00
                       o<<<<< (aa) ff           0.00
                       o<<<<< (aa) gop          0.00
                       o<<<<< (aa) dot          0.00
                       o<<<<< (ab) str          0.00
                       o<<<<< (ab) gath         0.00
                       o<<<<< (ab) dotab        0.00
                       o<<<<< (ab) scat         0.00
                       o<<<<< (ab) sync         0.00
                       o<<<<< Density           0.01
                       o<<<<< Density one       0.00
                       o<<<<< Density two       0.00
                       o<<<<< Density ab        0.01
                       o<<<<< Spin adapt        0.00
                       o<<<<< Symm adapt        0.00

                       o<<<<< (ab) max sync:      0.00

           >>>| Valence CI:            -82.874637358345
           >>>| MCSCF energy:          -76.002463236456
           >>>| Gradient norm:          0.218900567D-03
     --- Warning:    4 Hessian diagonals < 0.05 ---

                              ----- Line search ------

        step       energy         lsg     num-lsg   num-lsh   lsrat    time
      ------- ---------------- --------- --------- --------- ------- --------
       0.0000     -76.00246324 -1.05D-08  0.00D+00  0.00D+00 0.0D+00      3.2

          Number of sigma calls:       13
                       o<<<<< (aa):             0.00
                       o<<<<< (bb):             0.00
                       o<<<<< (ab):             0.04
                       o<<<<< (total)           0.04
                       o<<<<< (aa) ff           0.00
                       o<<<<< (aa) gop          0.00
                       o<<<<< (aa) dot          0.00
                       o<<<<< (ab) str          0.00
                       o<<<<< (ab) gath         0.00
                       o<<<<< (ab) dotab        0.00
                       o<<<<< (ab) scat         0.00
                       o<<<<< (ab) sync         0.00
                       o<<<<< Density           0.01
                       o<<<<< Density one       0.00
                       o<<<<< Density two       0.00
                       o<<<<< Density ab        0.01
                       o<<<<< Spin adapt        0.29
                       o<<<<< Symm adapt        0.00

                       o<<<<< (ab) max sync:      0.00
       1.0000     -76.00246324 -1.83D-09 -1.83D-09  8.66D-09 1.7D-01      3.6

          Number of sigma calls:       11
                       o<<<<< (aa):             0.00
                       o<<<<< (bb):             0.00
                       o<<<<< (ab):             0.03
                       o<<<<< (total)           0.03
                       o<<<<< (aa) ff           0.00
                       o<<<<< (aa) gop          0.00
                       o<<<<< (aa) dot          0.00
                       o<<<<< (ab) str          0.00
                       o<<<<< (ab) gath         0.00
                       o<<<<< (ab) dotab        0.00
                       o<<<<< (ab) scat         0.00
                       o<<<<< (ab) sync         0.00
                       o<<<<< Density           0.01
                       o<<<<< Density one       0.00
                       o<<<<< Density two       0.00
                       o<<<<< Density ab        0.01
                       o<<<<< Spin adapt        0.18
                       o<<<<< Symm adapt        0.00

                       o<<<<< (ab) max sync:      0.00
       1.2112     -76.00246324 -3.64D-14  3.29D-12  8.66D-09 3.5D-06      3.9



          %%%%% MacroIteration   4 %%%%%


          Number of sigma calls:        1
                       o<<<<< (aa):             0.00
                       o<<<<< (bb):             0.00
                       o<<<<< (ab):             0.00
                       o<<<<< (total)           0.00
                       o<<<<< (aa) ff           0.00
                       o<<<<< (aa) gop          0.00
                       o<<<<< (aa) dot          0.00
                       o<<<<< (ab) str          0.00
                       o<<<<< (ab) gath         0.00
                       o<<<<< (ab) dotab        0.00
                       o<<<<< (ab) scat         0.00
                       o<<<<< (ab) sync         0.00
                       o<<<<< Density           0.01
                       o<<<<< Density one       0.00
                       o<<<<< Density two       0.00
                       o<<<<< Density ab        0.01
                       o<<<<< Spin adapt        0.00
                       o<<<<< Symm adapt        0.00

                       o<<<<< (ab) max sync:      0.00

           >>>| Valence CI:            -82.874637364699
           >>>| MCSCF energy:          -76.002463242809
           >>>| Gradient norm:          0.474880170D-04




     ==============================
            MCSCF Converged
     ==============================



          Canonical Eigenvalues

              1      
    1  -20.6016
    2   -1.2988
    3   -0.6641
    4   -0.5381
    5   -0.4577
    6   -0.1119
    7   -0.0263
    8   -0.0136
    9    0.3027
   10    0.3727
   11    0.6103
   12    0.7736
   13    0.7940
   14    0.8698
   15    0.9054
   16    0.9366
   17    0.9760
   18    1.3243
   19    1.3744
   20    1.7447
   21    1.8954
   22    2.0364
   23    2.0472
   24    2.1778
   25    2.6388
   26    2.7838
   27    3.4022
   28    3.4181
   29    3.4384
   30    3.4397
   31    3.4673
   32    3.5596
   33    3.5668
   34    3.6513
   35    3.8173
   36    3.8844
   37    3.9502
   38    3.9709
   39    4.0495
   40    4.0757
   41    4.2692
   42    4.4076
   43    4.5251
   44    4.7459
   45    5.1536
   46    5.5681
   47    5.6144
   48    5.8120
   49    5.8637
   50    6.7488
   51    6.8175
   52    6.8436
   53    6.8437
   54    7.0218
   55    7.0665
   56    7.1738
   57    7.5592
   58   10.8707


          Converged CI vector

   Index           Coefficient          Config. Occupation
         1          0.89679979          1  2  3  4  5  1  2  3  4  5
         2          0.13307526          1  2  3  4  5  1  2  3  4  6
        23          0.06086921          1  2  3  4  5  1  2  3  5  8
         9          0.03849051          1  2  3  4  5  1  2  4  5  7
        41          0.02486546          1  2  3  4  5  1  2  5  7  8
        57          0.13307526          1  2  3  4  6  1  2  3  4  5
        58         -0.34908805          1  2  3  4  6  1  2  3  4  6
        83         -0.02823140          1  2  3  4  6  1  2  3  6  8
        60          0.03899362          1  2  3  4  6  1  2  4  5  6
      1233          0.06086921          1  2  3  5  8  1  2  3  4  5
      1255         -0.04970572          1  2  3  5  8  1  2  3  5  8
      1241         -0.03102030          1  2  3  5  8  1  2  4  5  7
      1458         -0.02823140          1  2  3  6  8  1  2  3  4  6
      1483          0.02266305          1  2  3  6  8  1  2  3  6  8
       170          0.03899362          1  2  4  5  6  1  2  3  4  6
       449          0.03849051          1  2  4  5  7  1  2  3  4  5
       471         -0.03102030          1  2  4  5  7  1  2  3  5  8
       457         -0.06572317          1  2  4  5  7  1  2  4  5  7
       458          0.02778387          1  2  4  5  7  1  3  4  5  7
       685          0.02806817          1  2  4  6  7  1  2  4  6  7
      2241          0.02486546          1  2  5  7  8  1  2  3  4  5
       513          0.02778387          1  3  4  5  7  1  2  4  5  7
       514         -0.02613482          1  3  4  5  7  1  3  4  5  7

          Number of sigma calls:        1
                       o<<<<< (aa):             0.00
                       o<<<<< (bb):             0.00
                       o<<<<< (ab):             0.00
                       o<<<<< (total)           0.00
                       o<<<<< (aa) ff           0.00
                       o<<<<< (aa) gop          0.00
                       o<<<<< (aa) dot          0.00
                       o<<<<< (ab) str          0.00
                       o<<<<< (ab) gath         0.00
                       o<<<<< (ab) dotab        0.00
                       o<<<<< (ab) scat         0.00
                       o<<<<< (ab) sync         0.00
                       o<<<<< Density           0.00
                       o<<<<< Density one       0.00
                       o<<<<< Density two       0.00
                       o<<<<< Density ab        0.00
                       o<<<<< Spin adapt        0.00
                       o<<<<< Symm adapt        0.00

                       o<<<<< (ab) max sync:      0.00



          Natural orbital occupation numbers

              1      
    1    2.0000
    2    1.9982
    3    1.9828
    4    1.9740
    5    1.7136
    6    0.2877
    7    0.0269
    8    0.0167


          Number of sigma calls:       21
                       o<<<<< (aa):             0.00
                       o<<<<< (bb):             0.00
                       o<<<<< (ab):             0.06
                       o<<<<< (total)           0.07
                       o<<<<< (aa) ff           0.00
                       o<<<<< (aa) gop          0.00
                       o<<<<< (aa) dot          0.00
                       o<<<<< (ab) str          0.00
                       o<<<<< (ab) gath         0.00
                       o<<<<< (ab) dotab        0.00
                       o<<<<< (ab) scat         0.00
                       o<<<<< (ab) sync         0.00
                       o<<<<< Density           0.01
                       o<<<<< Density one       0.00
                       o<<<<< Density two       0.00
                       o<<<<< Density ab        0.01
                       o<<<<< Spin adapt        0.31
                       o<<<<< Symm adapt        0.00

                       o<<<<< (ab) max sync:      0.00


       Final MCSCF results 
       ------------------- 

       Total MCSCF energy =    -76.002463242809
            Gradient norm =      4.7D-05

    CPU time for solution =      4.5s
   Wall time for solution =      8.4s



                        Analysis of MCSCF natural orbitals
                        ----------------------------------

 Vector    1  Occ=1.999991D+00  E=-2.060163D+01  Symmetry=a
              MO Center= -9.1D-02, -1.5D-01, -9.4D-14, r^2= 1.5D-02
   Bfn.  Coefficient  Atom+Function         Bfn.  Coefficient  Atom+Function  
  ----- ------------  ---------------      ----- ------------  ---------------
     1      0.974775  1 O  s          

 Vector    2  Occ=1.998231D+00  E=-1.298794D+00  Symmetry=a
              MO Center= -2.7D-01, -1.3D-01,  6.7D-11, r^2= 4.3D-01
   Bfn.  Coefficient  Atom+Function         Bfn.  Coefficient  Atom+Function  
  ----- ------------  ---------------      ----- ------------  ---------------
     2      0.550072  1 O  s                  4      0.403278  1 O  s          
     3      0.153126  1 O  s          

 Vector    3  Occ=1.982812D+00  E=-6.640575D-01  Symmetry=a
              MO Center= -6.2D-02, -1.5D-01, -6.8D-11, r^2= 6.3D-01
   Bfn.  Coefficient  Atom+Function         Bfn.  Coefficient  Atom+Function  
  ----- ------------  ---------------      ----- ------------  ---------------
    10      0.443916  1 O  pz                13      0.384645  1 O  pz         
     7      0.368832  1 O  pz         

 Vector    4  Occ=1.973994D+00  E=-5.381165D-01  Symmetry=a
              MO Center=  3.3D-01, -2.9D-01, -6.4D-13, r^2= 5.9D-01
   Bfn.  Coefficient  Atom+Function         Bfn.  Coefficient  Atom+Function  
  ----- ------------  ---------------      ----- ------------  ---------------
     8      0.339384  1 O  px                 5      0.283207  1 O  px         
    46      0.276507  3 H  s                 11      0.189623  1 O  px         
    45      0.187666  3 H  s          

 Vector    5  Occ=1.713642D+00  E=-4.576805D-01  Symmetry=a
              MO Center= -5.7D-02,  6.7D-01, -5.5D-13, r^2= 1.4D+00
   Bfn.  Coefficient  Atom+Function         Bfn.  Coefficient  Atom+Function  
  ----- ------------  ---------------      ----- ------------  ---------------
     9      0.313614  1 O  py                32      0.300506  2 H  s          
     6      0.246309  1 O  py                33      0.234524  2 H  s          
    12      0.220872  1 O  py         

 Vector    6  Occ=2.876995D-01  E=-1.119350D-01  Symmetry=a
              MO Center= -7.2D-02,  8.8D-01, -1.2D-12, r^2= 1.5D+00
   Bfn.  Coefficient  Atom+Function         Bfn.  Coefficient  Atom+Function  
  ----- ------------  ---------------      ----- ------------  ---------------
    32      0.444364  2 H  s                  9     -0.392903  1 O  py         
     6     -0.305841  1 O  py                33      0.260449  2 H  s          
    31      0.201276  2 H  s                 12     -0.163377  1 O  py         

 Vector    7  Occ=2.694913D-02  E=-2.629766D-02  Symmetry=a
              MO Center=  5.2D-01, -3.5D-01, -4.7D-13, r^2= 6.2D-01
   Bfn.  Coefficient  Atom+Function         Bfn.  Coefficient  Atom+Function  
  ----- ------------  ---------------      ----- ------------  ---------------
    46      0.682352  3 H  s                  5     -0.490402  1 O  px         
     8     -0.428509  1 O  px                45      0.330679  3 H  s          
     2     -0.285897  1 O  s                  4     -0.242813  1 O  s          

 Vector    8  Occ=1.668137D-02  E=-1.361914D-02  Symmetry=a
              MO Center=  2.8D-02, -1.8D-01, -9.2D-11, r^2= 1.2D+00
   Bfn.  Coefficient  Atom+Function         Bfn.  Coefficient  Atom+Function  
  ----- ------------  ---------------      ----- ------------  ---------------
    13      0.835228  1 O  pz                 7     -0.625064  1 O  pz         
    10     -0.306049  1 O  pz         

 Vector    9  Occ=0.000000D+00  E= 3.027372D-01  Symmetry=a
              MO Center=  1.1D+00, -7.0D-01,  2.9D-11, r^2= 3.6D+00
   Bfn.  Coefficient  Atom+Function         Bfn.  Coefficient  Atom+Function  
  ----- ------------  ---------------      ----- ------------  ---------------
    47      2.013475  3 H  s                  4     -1.312712  1 O  s          
    11     -0.617273  1 O  px                51     -0.452709  3 H  px         
    46     -0.229044  3 H  s                 52      0.178150  3 H  py         
    12      0.168600  1 O  py         

 Vector   10  Occ=0.000000D+00  E= 3.727325D-01  Symmetry=a
              MO Center= -1.4D-01,  2.0D+00,  8.7D-13, r^2= 3.2D+00
   Bfn.  Coefficient  Atom+Function         Bfn.  Coefficient  Atom+Function  
  ----- ------------  ---------------      ----- ------------  ---------------
    33      1.820914  2 H  s                 32     -1.263415  2 H  s          
    47     -0.476509  3 H  s                 12     -0.327536  1 O  py         
     4     -0.297809  1 O  s                 46      0.264271  3 H  s          

 Vector   11  Occ=0.000000D+00  E= 6.103340D-01  Symmetry=a
              MO Center= -4.0D-01,  5.4D-01, -3.1D-12, r^2= 2.2D+00
   Bfn.  Coefficient  Atom+Function         Bfn.  Coefficient  Atom+Function  
  ----- ------------  ---------------      ----- ------------  ---------------
    46      2.468521  3 H  s                  4     -1.990891  1 O  s          
    11     -1.967954  1 O  px                51     -0.746493  3 H  px         
    12      0.603122  1 O  py                37     -0.421892  2 H  px         
    47      0.328454  3 H  s                 33     -0.192575  2 H  s          
    52      0.174534  3 H  py                23     -0.166102  1 O  d  2       

 Vector   12  Occ=0.000000D+00  E= 7.736427D-01  Symmetry=a
              MO Center=  8.4D-02,  1.2D+00,  1.1D-12, r^2= 1.9D+00
   Bfn.  Coefficient  Atom+Function         Bfn.  Coefficient  Atom+Function  
  ----- ------------  ---------------      ----- ------------  ---------------
    39      0.908146  2 H  pz                53     -0.559878  3 H  pz         
    13      0.194378  1 O  pz         

 Vector   13  Occ=0.000000D+00  E= 7.939522D-01  Symmetry=a
              MO Center=  1.6D-01, -1.0D-01,  1.0D-12, r^2= 2.4D+00
   Bfn.  Coefficient  Atom+Function         Bfn.  Coefficient  Atom+Function  
  ----- ------------  ---------------      ----- ------------  ---------------
    46      1.411005  3 H  s                  4     -1.265611  1 O  s          
    12      1.043534  1 O  py                11     -0.983286  1 O  px         
    52      0.707875  3 H  py                 9     -0.504808  1 O  py         
    37      0.368712  2 H  px                47      0.318469  3 H  s          
    51     -0.315153  3 H  px                 8     -0.215226  1 O  px         

 Vector   14  Occ=0.000000D+00  E= 8.698268D-01  Symmetry=a
              MO Center= -2.9D-01,  6.0D-01, -4.3D-12, r^2= 2.6D+00
   Bfn.  Coefficient  Atom+Function         Bfn.  Coefficient  Atom+Function  
  ----- ------------  ---------------      ----- ------------  ---------------
    11      1.148623  1 O  px                46     -0.985997  3 H  s          
    37     -0.748670  2 H  px                12      0.629356  1 O  py         
     4      0.449003  1 O  s                 52     -0.447536  3 H  py         
     9     -0.394442  1 O  py                32     -0.366995  2 H  s          
     8     -0.193626  1 O  px                 2      0.169053  1 O  s          

 Vector   15  Occ=0.000000D+00  E= 9.054368D-01  Symmetry=a
              MO Center=  1.1D-01,  9.8D-01,  7.8D-13, r^2= 2.4D+00
   Bfn.  Coefficient  Atom+Function         Bfn.  Coefficient  Atom+Function  
  ----- ------------  ---------------      ----- ------------  ---------------
     4      0.903320  1 O  s                 38     -0.881615  2 H  py         
    47     -0.575760  3 H  s                  2     -0.472058  1 O  s          
    33      0.467383  2 H  s                 52     -0.438786  3 H  py         
    12     -0.319410  1 O  py                37      0.302710  2 H  px         
    32     -0.261586  2 H  s                 46     -0.258599  3 H  s          

 Vector   16  Occ=0.000000D+00  E= 9.365793D-01  Symmetry=a
              MO Center=  3.3D-01,  3.1D-02,  2.7D-12, r^2= 2.4D+00
   Bfn.  Coefficient  Atom+Function         Bfn.  Coefficient  Atom+Function  
  ----- ------------  ---------------      ----- ------------  ---------------
    53      1.134847  3 H  pz                13     -0.939720  1 O  pz         
    39      0.560181  2 H  pz         

 Vector   17  Occ=0.000000D+00  E= 9.759932D-01  Symmetry=a
              MO Center=  2.0D-01, -1.9D-01,  2.0D-11, r^2= 2.6D+00
   Bfn.  Coefficient  Atom+Function         Bfn.  Coefficient  Atom+Function  
  ----- ------------  ---------------      ----- ------------  ---------------
     4      2.300160  1 O  s                 46     -1.756544  3 H  s          
    12     -1.429575  1 O  py                51      1.050655  3 H  px         
    11      0.918728  1 O  px                52      0.679575  3 H  py         
    47     -0.627289  3 H  s                 37     -0.484618  2 H  px         
     2     -0.467723  1 O  s                 38     -0.407161  2 H  py         

 Vector   18  Occ=0.000000D+00  E= 1.324270D+00  Symmetry=a
              MO Center= -6.5D-03,  2.2D-01,  4.5D-11, r^2= 2.2D+00
   Bfn.  Coefficient  Atom+Function         Bfn.  Coefficient  Atom+Function  
  ----- ------------  ---------------      ----- ------------  ---------------
     4      4.363056  1 O  s                 46     -2.609643  3 H  s          
    51      1.554098  3 H  px                11      1.252098  1 O  px         
    52     -1.037075  3 H  py                 8      0.821174  1 O  px         
    38      0.793808  2 H  py                 2     -0.771784  1 O  s          
    47     -0.698264  3 H  s                 12      0.557429  1 O  py         


 Wrote Lagrangian and 1- and 2-particle density matrices to ./H2O.mcpdm


     Multipole analysis of the density
     ---------------------------------

     L   x y z        total        nuclear
     -   - - -        -----        -------
     0   0 0 0     -0.000000     10.000000

     1   1 0 0      0.558723     -0.000000
     1   0 1 0      0.102955      0.000000
     1   0 0 1      0.000000      0.000000

     2   2 0 0     -4.482287      2.679864
     2   1 1 0     -0.731683     -1.605322
     2   1 0 1     -0.000000      0.000000
     2   0 2 0     -3.433124     11.638064
     2   0 1 1     -0.000000      0.000000
     2   0 0 2     -5.927425      0.000000


  Mulliken analysis of the total density
  --------------------------------------

    Atom       Charge   Shell Charges
 -----------   ------   -------------------------------------------------------
    1 O    8     8.33   1.95  1.05  0.25  0.64  1.22  1.96  1.25  0.00  0.01  0.00
    2 H    1     0.92   0.16  0.45  0.30  0.00  0.01  0.00
    3 H    1     0.76   0.25  0.39  0.04  0.02  0.06  0.01

    Mulliken analysis of the active space density
    ---------------------------------------------

    Atom       Charge   Shell Charges
 -----------   ------   -------------------------------------------------------
    1 O    8     8.33   1.95  1.05  0.25  0.64  1.22  1.96  1.25  0.00  0.01  0.00
    2 H    1     0.92   0.16  0.45  0.30  0.00  0.01  0.00
    3 H    1     0.76   0.25  0.39  0.04  0.02  0.06  0.01

 Parallel integral file used      16 records with       0 large values


 Task  times  cpu:        4.5s     wall:        8.4s


                                NWChem Input Module
                                -------------------


                                 NWChem SCF Module
                                 -----------------


                                        H2O



  ao basis        = "ao basis"
  functions       =    58
  atoms           =     3
  closed shells   =     5
  open shells     =     0
  charge          =   0.00
  wavefunction    = RHF 
  input vectors   = ./h2o.mos
  output vectors  = ./h2o-trash.mos
  use symmetry    = F
  symmetry adapt  = F


 Summary of "ao basis" -> "ao basis" (spherical)
 ------------------------------------------------------------------------------
       Tag                 Description            Shells   Functions and Types
 ---------------- ------------------------------  ------  ---------------------
 O                          cc-pVTZ                 10       30   4s3p2d1f
 H                          cc-pVTZ                  6       14   3s2p1d



 Forming initial guess at       8.5s


 Loading old vectors from job with title :

H2O


 Starting SCF solution at       8.5s



 ----------------------------------------------
         Quadratically convergent ROHF

 Convergence threshold     :          1.000E-04
 Maximum no. of iterations :           30
 Final Fock-matrix accuracy:          1.000E-07
 ----------------------------------------------


 Integral file          = ./H2O.aoints.0
 Record size in doubles =  65536        No. of integs per rec  =  43688
 Max. records in memory =     49        Max. records in file   = 250694
 No. of bits per label  =      8        No. of bits per value  =     64


 #quartets = 3.209D+04 #integrals = 6.565D+05 #direct =  0.0% #cached =100.0%



       Final RHF  results 
       ------------------ 

         Total SCF energy =    -75.842093024365
      One-electron energy =   -118.406588249058
      Two-electron energy =     35.692321102803
 Nuclear repulsion energy =      6.872174121889

        Time for solution =      0.1s


             Final eigenvalues
             -----------------

              1      
    1  -20.6016
    2   -1.2988
    3   -0.6641
    4   -0.5381
    5   -0.4577
    6   -0.1119
    7   -0.0263
    8   -0.0136
    9    0.3027
   10    0.3727
   11    0.6103
   12    0.7736
   13    0.7940
   14    0.8698
   15    0.9054

                       ROHF Final Molecular Orbital Analysis
                       -------------------------------------

 Vector    2  Occ=2.000000D+00  E=-1.298794D+00
              MO Center= -2.7D-01, -1.3D-01,  6.7D-11, r^2= 4.3D-01
   Bfn.  Coefficient  Atom+Function         Bfn.  Coefficient  Atom+Function  
  ----- ------------  ---------------      ----- ------------  ---------------
     2      0.550072  1 O  s                  4      0.403278  1 O  s          
     3      0.153126  1 O  s          

 Vector    3  Occ=2.000000D+00  E=-6.640575D-01
              MO Center= -6.2D-02, -1.5D-01, -6.8D-11, r^2= 6.3D-01
   Bfn.  Coefficient  Atom+Function         Bfn.  Coefficient  Atom+Function  
  ----- ------------  ---------------      ----- ------------  ---------------
    10      0.443916  1 O  pz                13      0.384645  1 O  pz         
     7      0.368832  1 O  pz         

 Vector    4  Occ=2.000000D+00  E=-5.381165D-01
              MO Center=  3.3D-01, -2.9D-01, -6.4D-13, r^2= 5.9D-01
   Bfn.  Coefficient  Atom+Function         Bfn.  Coefficient  Atom+Function  
  ----- ------------  ---------------      ----- ------------  ---------------
     8      0.339384  1 O  px                 5      0.283207  1 O  px         
    46      0.276507  3 H  s                 11      0.189623  1 O  px         
    45      0.187666  3 H  s          

 Vector    5  Occ=2.000000D+00  E=-4.576805D-01
              MO Center= -5.7D-02,  6.7D-01, -5.5D-13, r^2= 1.4D+00
   Bfn.  Coefficient  Atom+Function         Bfn.  Coefficient  Atom+Function  
  ----- ------------  ---------------      ----- ------------  ---------------
     9      0.313614  1 O  py                32      0.300506  2 H  s          
     6      0.246309  1 O  py                33      0.234524  2 H  s          
    12      0.220872  1 O  py         

 Vector    6  Occ=0.000000D+00  E=-1.119350D-01
              MO Center= -7.2D-02,  8.8D-01, -1.2D-12, r^2= 1.5D+00
   Bfn.  Coefficient  Atom+Function         Bfn.  Coefficient  Atom+Function  
  ----- ------------  ---------------      ----- ------------  ---------------
    32      0.444364  2 H  s                  9     -0.392903  1 O  py         
     6     -0.305841  1 O  py                33      0.260449  2 H  s          
    31      0.201276  2 H  s                 12     -0.163377  1 O  py         

 Vector    7  Occ=0.000000D+00  E=-2.629766D-02
              MO Center=  5.2D-01, -3.5D-01, -4.7D-13, r^2= 6.2D-01
   Bfn.  Coefficient  Atom+Function         Bfn.  Coefficient  Atom+Function  
  ----- ------------  ---------------      ----- ------------  ---------------
    46      0.682352  3 H  s                  5     -0.490402  1 O  px         
     8     -0.428509  1 O  px                45      0.330679  3 H  s          
     2     -0.285897  1 O  s                  4     -0.242813  1 O  s          

 Vector    8  Occ=0.000000D+00  E=-1.361914D-02
              MO Center=  2.8D-02, -1.8D-01, -9.2D-11, r^2= 1.2D+00
   Bfn.  Coefficient  Atom+Function         Bfn.  Coefficient  Atom+Function  
  ----- ------------  ---------------      ----- ------------  ---------------
    13      0.835228  1 O  pz                 7     -0.625064  1 O  pz         
    10     -0.306049  1 O  pz         

 Vector    9  Occ=0.000000D+00  E= 3.027372D-01
              MO Center=  1.1D+00, -7.0D-01,  2.9D-11, r^2= 3.6D+00
   Bfn.  Coefficient  Atom+Function         Bfn.  Coefficient  Atom+Function  
  ----- ------------  ---------------      ----- ------------  ---------------
    47      2.013475  3 H  s                  4     -1.312712  1 O  s          
    11     -0.617273  1 O  px                51     -0.452709  3 H  px         
    46     -0.229044  3 H  s                 52      0.178150  3 H  py         
    12      0.168600  1 O  py         

 Vector   10  Occ=0.000000D+00  E= 3.727325D-01
              MO Center= -1.4D-01,  2.0D+00,  8.7D-13, r^2= 3.2D+00
   Bfn.  Coefficient  Atom+Function         Bfn.  Coefficient  Atom+Function  
  ----- ------------  ---------------      ----- ------------  ---------------
    33      1.820914  2 H  s                 32     -1.263415  2 H  s          
    47     -0.476509  3 H  s                 12     -0.327536  1 O  py         
     4     -0.297809  1 O  s                 46      0.264271  3 H  s          

 Vector   11  Occ=0.000000D+00  E= 6.103340D-01
              MO Center= -4.0D-01,  5.4D-01, -3.1D-12, r^2= 2.2D+00
   Bfn.  Coefficient  Atom+Function         Bfn.  Coefficient  Atom+Function  
  ----- ------------  ---------------      ----- ------------  ---------------
    46      2.468521  3 H  s                  4     -1.990891  1 O  s          
    11     -1.967954  1 O  px                51     -0.746493  3 H  px         
    12      0.603122  1 O  py                37     -0.421892  2 H  px         
    47      0.328454  3 H  s                 33     -0.192575  2 H  s          
    52      0.174534  3 H  py                23     -0.166102  1 O  d  2       

 Vector   12  Occ=0.000000D+00  E= 7.736427D-01
              MO Center=  8.4D-02,  1.2D+00,  1.1D-12, r^2= 1.9D+00
   Bfn.  Coefficient  Atom+Function         Bfn.  Coefficient  Atom+Function  
  ----- ------------  ---------------      ----- ------------  ---------------
    39      0.908146  2 H  pz                53     -0.559878  3 H  pz         
    13      0.194378  1 O  pz         

 Vector   13  Occ=0.000000D+00  E= 7.939522D-01
              MO Center=  1.6D-01, -1.0D-01,  1.0D-12, r^2= 2.4D+00
   Bfn.  Coefficient  Atom+Function         Bfn.  Coefficient  Atom+Function  
  ----- ------------  ---------------      ----- ------------  ---------------
    46      1.411005  3 H  s                  4     -1.265611  1 O  s          
    12      1.043534  1 O  py                11     -0.983286  1 O  px         
    52      0.707875  3 H  py                 9     -0.504808  1 O  py         
    37      0.368712  2 H  px                47      0.318469  3 H  s          
    51     -0.315153  3 H  px                 8     -0.215226  1 O  px         

 Vector   14  Occ=0.000000D+00  E= 8.698268D-01
              MO Center= -2.9D-01,  6.0D-01, -4.3D-12, r^2= 2.6D+00
   Bfn.  Coefficient  Atom+Function         Bfn.  Coefficient  Atom+Function  
  ----- ------------  ---------------      ----- ------------  ---------------
    11      1.148623  1 O  px                46     -0.985997  3 H  s          
    37     -0.748670  2 H  px                12      0.629356  1 O  py         
     4      0.449003  1 O  s                 52     -0.447536  3 H  py         
     9     -0.394442  1 O  py                32     -0.366995  2 H  s          
     8     -0.193626  1 O  px                 2      0.169053  1 O  s          

 Vector   15  Occ=0.000000D+00  E= 9.054368D-01
              MO Center=  1.1D-01,  9.8D-01,  7.8D-13, r^2= 2.4D+00
   Bfn.  Coefficient  Atom+Function         Bfn.  Coefficient  Atom+Function  
  ----- ------------  ---------------      ----- ------------  ---------------
     4      0.903320  1 O  s                 38     -0.881615  2 H  py         
    47     -0.575760  3 H  s                  2     -0.472058  1 O  s          
    33      0.467383  2 H  s                 52     -0.438786  3 H  py         
    12     -0.319410  1 O  py                37      0.302710  2 H  px         
    32     -0.261586  2 H  s                 46     -0.258599  3 H  s          


 center of mass
 --------------
 x =  -0.07599894 y =  -0.12407165 z =   0.00000000

 moments of inertia (a.u.)
 ------------------
          12.081387422499           1.402112697760           0.000000000000
           1.402112697760           2.833002082974           0.000000000000
           0.000000000000           0.000000000000          14.914389505473

  Mulliken analysis of the total density
  --------------------------------------

    Atom       Charge   Shell Charges
 -----------   ------   -------------------------------------------------------
    1 O    8     8.36   1.95  1.05  0.25  0.65  1.20  1.97  1.29  0.00  0.01  0.00
    2 H    1     0.89   0.14  0.43  0.30  0.00  0.01  0.00
    3 H    1     0.75   0.25  0.38  0.04  0.02  0.06  0.01

       Multipole analysis of the density wrt the origin
       ------------------------------------------------

     L   x y z        total         open         nuclear
     -   - - -        -----         ----         -------
     0   0 0 0     -0.000000      0.000000     10.000000

     1   1 0 0      0.564285      0.000000     -0.000000
     1   0 1 0      0.216234      0.000000      0.000000
     1   0 0 1      0.000000      0.000000      0.000000

     2   2 0 0     -4.497257      0.000000      2.679864
     2   1 1 0     -0.799227      0.000000     -1.605322
     2   1 0 1     -0.000000      0.000000      0.000000
     2   0 2 0     -2.966567      0.000000     11.638064
     2   0 1 1     -0.000000      0.000000      0.000000
     2   0 0 2     -5.941114      0.000000      0.000000


 Parallel integral file used      16 records with       0 large values

 ------------------------------------
     Number of active orbitals      8
     Number of active alpha electrons      5
     Number of active beta electrons       5
 ------------------------------------
                   NWChem Extensible Many-Electron Theory Module
                   ---------------------------------------------

              ======================================================
                   This portion of the program was automatically
                  generated by a Tensor Contraction Engine (TCE).
                  The development of this portion of the program
                 and TCE was supported by US Department of Energy,
                Office of Science, Office of Basic Energy Science.
                      TCE is a product of Battelle and PNNL.
              Please cite: S.Hirata, J.Phys.Chem.A 107, 9887 (2003).
              ======================================================

                                        H2O


            General Information
            -------------------
      Number of processors :     1
         Wavefunction type : Restricted Hartree-Fock
          No. of electrons :    10
           Alpha electrons :     5
            Beta electrons :     5
           No. of orbitals :   116
            Alpha orbitals :    58
             Beta orbitals :    58
        Alpha frozen cores :     0
         Beta frozen cores :     0
     Alpha frozen virtuals :    50
      Beta frozen virtuals :    50
         Spin multiplicity : singlet 
    Number of AO functions :    58
       Number of AO shells :    22
        Use of symmetry is : off
      Symmetry adaption is : off
         Schwarz screening : 0.10D-09

          Correlation Information
          -----------------------
          Calculation type : Coupled-cluster singles & doubles                           
   Perturbative correction : none                                                        
            Max iterations :      300
        Residual threshold : 0.10D-06
     T(0) DIIS level shift : 0.00D+00
     L(0) DIIS level shift : 0.00D+00
     T(1) DIIS level shift : 0.00D+00
     L(1) DIIS level shift : 0.00D+00
     T(R) DIIS level shift : 0.00D+00
     T(I) DIIS level shift : 0.00D+00
   CC-T/L Amplitude update :  5-th order DIIS
                I/O scheme : Global Array Library
        L-threshold :  0.10D-06
        EOM-threshold :  0.10D-06
 no EOMCCSD initial starts read in
 TCE RESTART OPTIONS
 READ_INT:   F
 WRITE_INT:  F
 READ_TA:    F
 WRITE_TA:   F
 READ_XA:    F
 WRITE_XA:   F
 READ_IN3:   F
 WRITE_IN3:  F
 SLICE:      F
 D4D5:       F
 quantumc:   T
 qrotation:  F
 pwtce:      F
 qducc:      F
 nacto:                         0
 nrotv:                         0
 nrot:                          0

            Memory Information
            ------------------
          Available GA space size is    1610609372 doubles
          Available MA space size is    1610609772 doubles

 Maximum block size supplied by input
 Maximum block size         1 doubles

 tile_dim =      1

 Block   Spin    Irrep     Size     Offset   Alpha
 -------------------------------------------------
   1    alpha     a      1 doubles       0       1
   2    alpha     a      1 doubles       1       2
   3    alpha     a      1 doubles       2       3
   4    alpha     a      1 doubles       3       4
   5    alpha     a      1 doubles       4       5
   6    beta      a      1 doubles       5       1
   7    beta      a      1 doubles       6       2
   8    beta      a      1 doubles       7       3
   9    beta      a      1 doubles       8       4
  10    beta      a      1 doubles       9       5
  11    alpha     a      1 doubles      10      11
  12    alpha     a      1 doubles      11      12
  13    alpha     a      1 doubles      12      13
  14    beta      a      1 doubles      13      11
  15    beta      a      1 doubles      14      12
  16    beta      a      1 doubles      15      13

 Global array virtual files algorithm will be used

 Parallel file system coherency ......... OK

 Integral file          = ./H2O.aoints.0
 Record size in doubles =  65536        No. of integs per rec  =  43688
 Max. records in memory =     49        Max. records in file   = 250694
 No. of bits per label  =      8        No. of bits per value  =     64


 #quartets = 3.213D+04 #integrals = 6.605D+05 #direct =  0.0% #cached =100.0%


 Fock matrix recomputed
 1-e file size   =               64
 1-e file name   = ./H2O.f1
 Cpu & wall time / sec            0.1            0.1
 4-electron integrals stored in orbital form

 v2    file size   =              666
 4-index algorithm nr.  13 is used
 imaxsize =       30
 imaxsize ichop =        0
 begin_one_electron_integrals
    1    1       -32.7511950518
    2    1        -0.6601162695
    4    1         0.1264763977
    5    1        -0.0246675652
    6    1        -0.0860665380
    7    1        -0.2070167063
    1    2        -0.6601162695
    2    2        -7.6770365226
    4    2        -0.2640459976
    5    2         0.1122452178
    6    2         0.2592006911
    7    2         0.1177717055
    3    3        -6.8917254117
    8    3         2.1326197503
    1    4         0.1264763977
    2    4        -0.2640459976
    4    4        -6.6685413870
    5    4        -0.0636598381
    6    4        -0.0156829773
    7    4         1.9515421160
    1    5        -0.0246675652
    2    5         0.1122452178
    4    5        -0.0636598381
    5    5        -5.2147957515
    6    5         2.1479929293
    7    5         0.0011832827
    1    6        -0.0860665380
    2    6         0.2592006911
    4    6        -0.0156829773
    5    6         2.1479929293
    6    6        -5.1089958151
    7    6         0.0246278892
    1    7        -0.2070167063
    2    7         0.1177717055
    4    7         1.9515421160
    5    7         0.0011832827
    6    7         0.0246278892
    7    7        -5.9387902103
    3    8         2.1326197503
    8    8        -5.2425609941
 end_one_electron_integrals
 begin_two_electron_integrals
    1    1    1    1        4.8140935991
    2    1    1    1       -0.2754800648
    2    1    2    1        0.0367172756
    3    1    3    1        0.0288601303
    4    1    1    1       -0.0883733325
    4    1    2    1        0.0033423662
    4    1    4    1        0.0215630723
    4    1    2    2       -0.0145126145
    4    1    3    3       -0.0022531488
    5    1    1    1        0.0137723318
    5    1    2    1       -0.0024432981
    5    1    4    1        0.0005936162
    5    1    5    1        0.0146641580
    5    1    2    2       -0.0009507478
    5    1    4    2        0.0006350060
    5    1    3    3        0.0013317471
    5    1    4    4        0.0013594148
    6    1    1    1        0.0597515547
    6    1    2    1       -0.0051547188
    6    1    4    1       -0.0012022494
    6    1    5    1       -0.0169435714
    6    1    6    1        0.0214786236
    6    1    2    2        0.0048877599
    6    1    4    2        0.0007447913
    6    1    5    2       -0.0170799494
    6    1    3    3        0.0027931654
    6    1    4    4        0.0028573339
    6    1    5    4       -0.0031363383
    6    1    5    5       -0.0000758722
    7    1    1    1        0.1686092214
    7    1    2    1       -0.0093268813
    7    1    4    1       -0.0334369130
    7    1    5    1        0.0000406709
    7    1    6    1        0.0016367141
    7    1    7    1        0.0525006588
    7    1    2    2        0.0227059416
    7    1    4    2       -0.0264137747
    7    1    5    2       -0.0008170630
    7    1    6    2       -0.0030197519
    7    1    3    3        0.0035035527
    7    1    4    4       -0.0151091359
    7    1    5    4        0.0005439216
    7    1    6    4        0.0022230876
    7    1    5    5        0.0026077648
    7    1    6    5       -0.0014386702
    7    1    6    6        0.0033276162
    8    1    3    1       -0.0396017438
    8    1    8    1        0.0546545793
    8    1    3    2       -0.0380737164
    8    1    4    3       -0.0074650225
    8    1    5    3        0.0004169598
    8    1    6    3        0.0040861853
    8    1    7    3        0.0102123720
    2    2    1    1        1.0863811168
    2    2    2    1        0.0047782487
    2    2    2    2        0.8261127687
    3    2    3    1        0.0266943036
    3    2    3    2        0.1427113254
    4    2    1    1       -0.0043222939
    4    2    2    1       -0.0045986675
    4    2    4    1        0.0171439010
    4    2    2    2       -0.0560125418
    4    2    4    2        0.0908233026
    4    2    3    3        0.0107873806
    5    2    1    1       -0.0394977444
    5    2    2    1       -0.0009653818
    5    2    4    1        0.0010738269
    5    2    5    1        0.0136689915
    5    2    2    2       -0.0318475031
    5    2    4    2        0.0012145755
    5    2    5    2        0.0845296121
    5    2    3    3       -0.0179998965
    5    2    4    4       -0.0173955439
    6    2    1    1       -0.0532515153
    6    2    2    1        0.0006357335
    6    2    4    1        0.0013964234
    6    2    5    1       -0.0146058679
    6    2    6    1        0.0173545774
    6    2    2    2       -0.0224238052
    6    2    4    2        0.0064677929
    6    2    5    2       -0.0733397035
    6    2    6    2        0.0737642726
    6    2    3    3       -0.0276106234
    6    2    4    4       -0.0170305097
    6    2    5    4       -0.0116262559
    6    2    5    5       -0.0221827731
    7    2    1    1       -0.0264266753
    7    2    2    1        0.0053544998
    7    2    4    1       -0.0163723172
    7    2    5    1        0.0000981547
    7    2    6    1       -0.0018449574
    7    2    7    1        0.0240481144
    7    2    2    2        0.0280338844
    7    2    4    2       -0.0598104731
    7    2    5    2        0.0028917408
    7    2    6    2       -0.0079886666
    7    2    7    2        0.0519810137
    7    2    3    3       -0.0182406738
    7    2    4    4       -0.0353736042
    7    2    5    4        0.0011102405
    7    2    6    4        0.0047550252
    7    2    5    5       -0.0085774661
    7    2    6    5        0.0123640387
    7    2    6    6       -0.0097613767
    8    2    3    1       -0.0206637273
    8    2    8    1        0.0266504183
    8    2    3    2       -0.0529582334
    8    2    8    2        0.0437758875
    8    2    4    3       -0.0040717482
    8    2    5    3        0.0015662008
    8    2    6    3        0.0067507690
    8    2    7    3        0.0116272882
    3    3    1    1        1.0459316955
    3    3    2    1        0.0027826746
    3    3    2    2        0.7388619477
    3    3    3    3        0.7571647641
    4    3    3    1        0.0054116006
    4    3    3    2        0.0228698158
    4    3    4    3        0.0363220218
    5    3    3    1       -0.0003876883
    5    3    3    2       -0.0016675380
    5    3    4    3        0.0006992721
    5    3    5    3        0.0211030766
    6    3    3    1       -0.0029967327
    6    3    3    2       -0.0116692980
    6    3    4    3       -0.0017499282
    6    3    5    3       -0.0189324800
    6    3    6    3        0.0203500995
    7    3    3    1       -0.0079029845
    7    3    3    2       -0.0211051488
    7    3    4    3       -0.0203074104
    7    3    5    3        0.0005069171
    7    3    6    3        0.0017441339
    7    3    7    3        0.0248834961
    8    3    1    1       -0.5348392278
    8    3    2    1        0.0000686517
    8    3    4    1        0.0038933395
    8    3    5    1       -0.0011621882
    8    3    6    1       -0.0022956400
    8    3    7    1       -0.0067686611
    8    3    2    2       -0.2183755072
    8    3    4    2        0.0075904147
    8    3    5    2        0.0091450243
    8    3    6    2        0.0162335676
    8    3    7    2        0.0071293751
    8    3    3    3       -0.2129600501
    8    3    8    3        0.1647682699
    8    3    4    4       -0.1438111503
    8    3    5    4       -0.0040441097
    8    3    6    4       -0.0000195009
    8    3    7    4        0.1248416356
    8    3    5    5       -0.1079967218
    8    3    6    5        0.1004511778
    8    3    7    5        0.0005282444
    8    3    6    6       -0.1222537226
    8    3    7    6        0.0026595137
    8    3    7    7       -0.1684297837
    4    4    1    1        0.9069843675
    4    4    2    1        0.0000532275
    4    4    4    1        0.0093319078
    4    4    2    2        0.6357441082
    4    4    4    2        0.0804258794
    4    4    3    3        0.6356541086
    4    4    4    4        0.7709772213
    5    4    1    1        0.0155806085
    5    4    2    1        0.0000056481
    5    4    4    1       -0.0002549252
    5    4    5    1        0.0027142726
    5    4    2    2        0.0069584724
    5    4    4    2       -0.0023480974
    5    4    5    2        0.0099410969
    5    4    3    3        0.0072636801
    5    4    4    4        0.0046569693
    5    4    5    4        0.0198717473
    6    4    1    1        0.0020852688
    6    4    2    1        0.0007609875
    6    4    4    1       -0.0016789804
    6    4    5    1       -0.0030747263
    6    4    6    1        0.0036045976
    6    4    2    2        0.0083634678
    6    4    4    2       -0.0037680399
    6    4    5    2       -0.0138801580
    6    4    6    2        0.0117567009
    6    4    3    3        0.0019062787
    6    4    4    4        0.0036947856
    6    4    5    4       -0.0181441233
    6    4    6    4        0.0193829972
    6    4    5    5       -0.0066202334
    7    4    1    1       -0.4762738127
    7    4    2    1        0.0017476119
    7    4    4    1       -0.0040357144
    7    4    5    1       -0.0012322036
    7    4    6    1       -0.0021190535
    7    4    7    1        0.0031387729
    7    4    2    2       -0.2126805730
    7    4    4    2        0.0130467259
    7    4    5    2        0.0059063081
    7    4    6    2        0.0156024279
    7    4    7    2        0.0171391246
    7    4    3    3       -0.1845177120
    7    4    4    4       -0.1015765259
    7    4    5    4       -0.0053156946
    7    4    6    4        0.0047034066
    7    4    7    4        0.2116566276
    7    4    5    5       -0.1123236700
    7    4    6    5        0.0910859734
    7    4    6    6       -0.1244753034
    8    4    3    1       -0.0025602409
    8    4    8    1        0.0027308845
    8    4    3    2        0.0041175496
    8    4    8    2        0.0034631119
    8    4    4    3       -0.0021189420
    8    4    5    3       -0.0002851364
    8    4    6    3        0.0005189822
    8    4    7    3        0.0158028072
    8    4    8    4        0.0180819630
    5    5    1    1        0.6969697566
    5    5    2    1        0.0015925276
    5    5    4    1       -0.0015364423
    5    5    5    1        0.0010662068
    5    5    2    2        0.5383166537
    5    5    4    2       -0.0002065947
    5    5    5    2        0.0169973517
    5    5    3    3        0.5015517417
    5    5    4    4        0.4657139862
    5    5    5    4        0.0044342979
    5    5    5    5        0.5098662639
    6    5    1    1       -0.4256037351
    6    5    2    1       -0.0014251877
    6    5    4    1        0.0010303659
    6    5    5    1       -0.0016718918
    6    5    6    1       -0.0014740709
    6    5    2    2       -0.2456341428
    6    5    4    2       -0.0102041010
    6    5    5    2        0.0277620467
    6    5    6    2        0.0100658446
    6    5    3    3       -0.2224846983
    6    5    4    4       -0.2034696240
    6    5    5    4       -0.0063385622
    6    5    6    4       -0.0063079669
    6    5    5    5       -0.0638258740
    6    5    6    5        0.2226219426
    7    5    1    1       -0.0013110929
    7    5    2    1        0.0002251200
    7    5    4    1       -0.0000071523
    7    5    5    1       -0.0042928790
    7    5    6    1        0.0051136300
    7    5    7    1       -0.0001672853
    7    5    2    2        0.0020923354
    7    5    4    2        0.0009570023
    7    5    5    2       -0.0136750012
    7    5    6    2        0.0135764660
    7    5    7    2       -0.0017003940
    7    5    3    3        0.0005117856
    7    5    4    4       -0.0012857362
    7    5    5    4       -0.0108860091
    7    5    6    4        0.0124215064
    7    5    7    4        0.0002926247
    7    5    5    5       -0.0027036761
    7    5    6    5       -0.0024337147
    7    5    7    5        0.0138754469
    7    5    6    6       -0.0048093376
    8    5    3    1        0.0003918303
    8    5    8    1       -0.0006340297
    8    5    3    2        0.0044148388
    8    5    8    2       -0.0004315752
    8    5    4    3        0.0001871090
    8    5    5    3       -0.0044698533
    8    5    6    3        0.0073505101
    8    5    7    3       -0.0000417731
    8    5    8    4        0.0007913132
    8    5    8    5        0.0107958567
    6    6    1    1        0.7426394147
    6    6    2    1        0.0012001008
    6    6    4    1       -0.0018432788
    6    6    5    1        0.0039263016
    6    6    6    1       -0.0029732780
    6    6    2    2        0.5342335647
    6    6    4    2        0.0004925567
    6    6    5    2        0.0239455841
    6    6    6    2       -0.0304689932
    6    6    3    3        0.4994048171
    6    6    4    4        0.4606148332
    6    6    5    4        0.0034196044
    6    6    6    4       -0.0077474258
    6    6    5    5        0.5211997698
    6    6    6    5       -0.0431792408
    6    6    6    6        0.5526819148
    7    6    1    1       -0.0073453177
    7    6    2    1       -0.0011495315
    7    6    4    1        0.0023395354
    7    6    5    1        0.0049589500
    7    6    6    1       -0.0056711915
    7    6    7    1       -0.0033571564
    7    6    2    2       -0.0131910186
    7    6    4    2        0.0099194297
    7    6    5    2        0.0151755297
    7    6    6    2       -0.0144648848
    7    6    7    2       -0.0056776258
    7    6    3    3       -0.0020999312
    7    6    4    4        0.0080627659
    7    6    5    4        0.0134443834
    7    6    6    4       -0.0148647199
    7    6    7    4        0.0061474240
    7    6    5    5       -0.0028205484
    7    6    6    5       -0.0014765288
    7    6    7    5       -0.0146148078
    7    6    6    6       -0.0024158878
    7    6    7    6        0.0179761355
    8    6    3    1        0.0029430180
    8    6    8    1       -0.0041620224
    8    6    3    2        0.0120341492
    8    6    8    2       -0.0046703648
    8    6    4    3        0.0021889893
    8    6    5    3        0.0095568145
    8    6    6    3       -0.0110108498
    8    6    7    3       -0.0013352381
    8    6    8    4        0.0004913268
    8    6    8    5       -0.0072581459
    8    6    8    6        0.0112699931
    7    7    1    1        1.0493058924
    7    7    2    1       -0.0040796375
    7    7    4    1        0.0093174966
    7    7    5    1        0.0019065146
    7    7    6    1        0.0041367138
    7    7    7    1       -0.0140411128
    7    7    2    2        0.6286205034
    7    7    4    2        0.0710788515
    7    7    5    2       -0.0178821472
    7    7    6    2       -0.0189047002
    7    7    7    2       -0.0347329752
    7    7    3    3        0.6322708712
    7    7    4    4        0.7517485963
    7    7    5    4        0.0046843755
    7    7    6    4        0.0052235104
    7    7    7    4       -0.1001231937
    7    7    5    5        0.4582601261
    7    7    6    5       -0.2090903724
    7    7    7    5       -0.0012220165
    7    7    6    6        0.4591430021
    7    7    7    6        0.0085321302
    7    7    7    7        0.7900326643
    8    7    3    1        0.0076029157
    8    7    8    1       -0.0103036480
    8    7    3    2        0.0248712337
    8    7    8    2       -0.0070661102
    8    7    4    3        0.0276127663
    8    7    5    3        0.0002933153
    8    7    6    3       -0.0015950955
    8    7    7    3       -0.0169015114
    8    7    8    4       -0.0027095744
    8    7    8    5        0.0007064645
    8    7    8    6        0.0025609180
    8    7    8    7        0.0297531793
    8    8    1    1        1.0260081201
    8    8    2    1       -0.0021154715
    8    8    4    1       -0.0042873918
    8    8    5    1        0.0017680617
    8    8    6    1        0.0031558619
    8    8    7    1        0.0068762203
    8    8    2    2        0.6295666194
    8    8    4    2        0.0104292051
    8    8    5    2       -0.0135581463
    8    8    6    2       -0.0225914924
    8    8    7    2       -0.0126702012
    8    8    3    3        0.6484952545
    8    8    8    3       -0.1804873036
    8    8    4    4        0.5660426493
    8    8    5    4        0.0062439401
    8    8    6    4        0.0019512257
    8    8    7    4       -0.1458674063
    8    8    5    5        0.4476914335
    8    8    6    5       -0.1823506969
    8    8    7    5       -0.0000706472
    8    8    6    6        0.4477286797
    8    8    7    6       -0.0006720429
    8    8    7    7        0.5806647439
    8    8    8    8        0.5980960331
 end_two_electron_integrals
 enrep_tce =    6.8721741218890600     
  EHF(A)             =       -75.84209302
  EHF(total)         =       -75.84209302
  Shift (HFtot-HFA)  =         0.00000000
 Cpu & wall time / sec            1.0            1.0
 T1-number-of-tasks                   15

 t1 file size   =               15
 t1 file name   = ./H2O.t1
 t1 file handle =       -998
 T2-number-of-boxes                  315

 t2 file size   =              315
 t2 file name   = ./H2O.t2
 t2 file handle =       -996
CCSD iterations
 ---------------------------------------------------------
 Iter          Residuum       Correlation     Cpu    Wall 
 ---------------------------------------------------------
NEW TASK SCHEDULING
CCSD_T1_NTS --- OK
CCSD_T2_NTS --- OK
    1   0.6496065385429  -0.2656056215908     1.9     2.7
    2   0.9992424219084   0.0378308371456     1.9     2.6
    3   1.5535491736502  -0.4554392111769     1.8     2.7
    4   2.4231072979279   0.2942737244125     1.7     2.6
    5   3.6808232547275  -0.8306601209825     1.8     2.6
 MICROCYCLE DIIS UPDATE:                    5                    5
    6   0.0225173428712  -0.1578120028564     1.9     2.6
    7   0.0329011269362  -0.1571622986551     1.8     2.6
    8   0.0581380470237  -0.1607806248342     2.0     2.7
    9   0.1095081147094  -0.1565503080023     1.9     2.7
   10   0.2105885952348  -0.1626658999946     1.9     2.6
 MICROCYCLE DIIS UPDATE:                   10                    5
   11   0.0015131650528  -0.1592026359141     1.9     2.6
   12   0.0013032796281  -0.1593446896041     1.9     2.6
   13   0.0017100608211  -0.1589610388547     1.7     2.6
   14   0.0026925562282  -0.1595396209847     1.8     2.6
   15   0.0045030633350  -0.1586450580973     1.8     2.6
 MICROCYCLE DIIS UPDATE:                   15                    5
   16   0.0001582397282  -0.1591735960772     1.9     2.6
   17   0.0001219887848  -0.1591813856676     1.8     2.7
   18   0.0001844662351  -0.1592172382278     1.9     2.7
   19   0.0003265823525  -0.1591736767935     1.8     2.6
   20   0.0005944086535  -0.1592458108532     1.9     2.6
 MICROCYCLE DIIS UPDATE:                   20                    5
   21   0.0000178390112  -0.1592020713439     1.7     2.7
   22   0.0000182585052  -0.1592050069763     1.8     2.6
   23   0.0000267199508  -0.1591993510138     1.8     2.6
   24   0.0000445554526  -0.1592079949869     1.8     2.6
   25   0.0000776897349  -0.1591947054319     1.8     2.6
 MICROCYCLE DIIS UPDATE:                   25                    5
   26   0.0000018026988  -0.1592026237404     1.8     2.6
   27   0.0000010623820  -0.1592027064667     1.9     2.6
   28   0.0000014651952  -0.1592030418220     1.9     2.6
   29   0.0000025730002  -0.1592026379258     1.9     2.6
   30   0.0000047167173  -0.1592033114955     1.9     2.6
 MICROCYCLE DIIS UPDATE:                   30                    5
   31   0.0000001709839  -0.1592029017281     1.7     2.6
   32   0.0000001757982  -0.1592029300971     1.9     2.6
   33   0.0000002630959  -0.1592028801370     1.7     2.6
   34   0.0000004550227  -0.1592029565055     1.9     2.6
   35   0.0000008235244  -0.1592028396964     1.6     2.6
 MICROCYCLE DIIS UPDATE:                   35                    5
   36   0.0000000199837  -0.1592029101419     1.9     2.7
 -----------------------------------------------------------------
 Iterations converged
 CCSD correlation energy / hartree =        -0.159202910141905
 CCSD total energy / hartree       =       -76.001295934507340

 Singles contributions

 Doubles contributions
     6a   (alpha)     8a   (alpha) ---     3a   (alpha)     5a   (alpha)        0.0201650642
     6a   (alpha)     6a   (beta ) ---     5a   (alpha)     5a   (beta )       -0.4014856831
     6a   (alpha)     7a   (beta ) ---     5a   (alpha)     4a   (beta )       -0.0307351620
     6a   (alpha)     8a   (beta ) ---     5a   (alpha)     3a   (beta )       -0.0315144370
     7a   (alpha)     8a   (alpha) ---     3a   (alpha)     4a   (alpha)        0.0319024655
     7a   (alpha)     6a   (beta ) ---     4a   (alpha)     5a   (beta )       -0.0307351620
     7a   (alpha)     7a   (beta ) ---     4a   (alpha)     4a   (beta )       -0.0913395618
     7a   (alpha)     8a   (beta ) ---     4a   (alpha)     3a   (beta )       -0.0417915418
     8a   (alpha)     6a   (beta ) ---     3a   (alpha)     5a   (beta )       -0.0315144370
     8a   (alpha)     7a   (beta ) ---     3a   (alpha)     4a   (beta )       -0.0417915418
     8a   (alpha)     8a   (beta ) ---     3a   (alpha)     3a   (beta )       -0.0587745376
 Ground state specification:
 exp(T)|Ref>~(1+T)|Ref>
 ------- a(p)+/a(q) strings ----------

 singles norm

 doubles norm

 Reference string
  0.92800051128527827      :(1a)+ (2a)+ (3a)+ (4a)+ (5a)+ (1b)+ (2b)+ (3b)+ (4b)+ (5b)+ |0>

 Singles strings

 Doubles strings
 -0.37257891922955350      :(6a)+ (6b)+ (5b)  (5a)  (1a)+ (2a)+ (3a)+ (4a)+ (5a)+ (1b)+ (2b)+ (3b)+ (4b)+ (5b)+ |0>
 -------------------------------------

 Parallel integral file used      16 records with       0 large values


 Task  times  cpu:       67.6s     wall:       97.0s


                                NWChem Input Module
                                -------------------


 Summary of allocated global arrays
-----------------------------------
  No active global arrays


MA_summarize_allocated_blocks: starting scan ...
MA_summarize_allocated_blocks: scan completed: 0 heap blocks, 0 stack blocks
MA usage statistics:

	allocation statistics:
					      heap	     stack
					      ----	     -----
	current number of blocks	         0	         0
	maximum number of blocks	        18	        42
	current total bytes		         0	         0
	maximum total bytes		  25775960	  38234456
	maximum total K-bytes		     25776	     38235
	maximum total M-bytes		        26	        39


                                     CITATION
                                     --------
                Please cite the following reference when publishing
                           results obtained with NWChem:

          E. Apra, E. J. Bylaska, W. A. de Jong, N. Govind, K. Kowalski,
       T. P. Straatsma, M. Valiev, H. J. J. van Dam, Y. Alexeev, J. Anchell,
       V. Anisimov, F. W. Aquino, R. Atta-Fynn, J. Autschbach, N. P. Bauman,
     J. C. Becca, D. E. Bernholdt, K. Bhaskaran-Nair, S. Bogatko, P. Borowski,
         J. Boschen, J. Brabec, A. Bruner, E. Cauet, Y. Chen, G. N. Chuev,
      C. J. Cramer, J. Daily, M. J. O. Deegan, T. H. Dunning Jr., M. Dupuis,
   K. G. Dyall, G. I. Fann, S. A. Fischer, A. Fonari, H. Fruchtl, L. Gagliardi,
      J. Garza, N. Gawande, S. Ghosh, K. Glaesemann, A. W. Gotz, J. Hammond,
       V. Helms, E. D. Hermes, K. Hirao, S. Hirata, M. Jacquelin, L. Jensen,
   B. G. Johnson, H. Jonsson, R. A. Kendall, M. Klemm, R. Kobayashi, V. Konkov,
      S. Krishnamoorthy, M. Krishnan, Z. Lin, R. D. Lins, R. J. Littlefield,
      A. J. Logsdail, K. Lopata, W. Ma, A. V. Marenich, J. Martin del Campo,
   D. Mejia-Rodriguez, J. E. Moore, J. M. Mullin, T. Nakajima, D. R. Nascimento,
    J. A. Nichols, P. J. Nichols, J. Nieplocha, A. Otero-de-la-Roza, B. Palmer,
    A. Panyala, T. Pirojsirikul, B. Peng, R. Peverati, J. Pittner, L. Pollack,
   R. M. Richard, P. Sadayappan, G. C. Schatz, W. A. Shelton, D. W. Silverstein,
   D. M. A. Smith, T. A. Soares, D. Song, M. Swart, H. L. Taylor, G. S. Thomas,
            V. Tipparaju, D. G. Truhlar, K. Tsemekhman, T. Van Voorhis,
      A. Vazquez-Mayagoitia, P. Verma, O. Villa, A. Vishnu, K. D. Vogiatzis,
        D. Wang, J. H. Weare, M. J. Williamson, T. L. Windus, K. Wolinski,
        A. T. Wong, Q. Wu, C. Yang, Q. Yu, M. Zacharias, Z. Zhang, Y. Zhao,
                                and R. J. Harrison
                        "NWChem: Past, present, and future
                         J. Chem. Phys. 152, 184102 (2020)
                               doi:10.1063/5.0004997

                                      AUTHORS
                                      -------
  E. Apra, E. J. Bylaska, N. Govind, K. Kowalski, M. Valiev, D. Mejia-Rodriguez,
       A. Kunitsa, N. P. Bauman, A. Panyala, W. A. de Jong, T. P. Straatsma,
        H. J. J. van Dam, D. Wang, T. L. Windus, J. Hammond, J. Autschbach,
    K. Bhaskaran-Nair, J. Brabec, K. Lopata, S. A. Fischer, S. Krishnamoorthy,
     M. Jacquelin, W. Ma, M. Klemm, O. Villa, Y. Chen, V. Anisimov, F. Aquino,
    S. Hirata, M. T. Hackler, Eric Hermes, L. Jensen, J. E. Moore, J. C. Becca,
      V. Konjkov, T. Risthaus, M. Malagoli, A. Marenich, A. Otero-de-la-Roza,
        J. Mullin, P. Nichols, R. Peverati, J. Pittner, Y. Zhao, P.-D. Fan,
        A. Fonari, M. J. Williamson, R. J. Harrison, J. R. Rehr, M. Dupuis,
     D. Silverstein, D. M. A. Smith, J. Nieplocha, V. Tipparaju, M. Krishnan,
     B. E. Van Kuiken, A. Vazquez-Mayagoitia, M. Swart, Q. Wu, T. Van Voorhis,
     A. A. Auer, M. Nooijen, L. D. Crosby, E. Brown, G. Cisneros, G. I. Fann,
   H. Fruchtl, J. Garza, K. Hirao, R. A. Kendall, J. A. Nichols, K. Tsemekhman,
    K. Wolinski, J. Anchell, D. E. Bernholdt, P. Borowski, T. Clark, D. Clerc,
   H. Dachsel, M. J. O. Deegan, K. Dyall, D. Elwood, E. Glendening, M. Gutowski,
   A. C. Hess, J. Jaffe, B. G. Johnson, J. Ju, R. Kobayashi, R. Kutteh, Z. Lin,
   R. Littlefield, X. Long, B. Meng, T. Nakajima, S. Niu, L. Pollack, M. Rosing,
   K. Glaesemann, G. Sandrone, M. Stave, H. Taylor, G. Thomas, J. H. van Lenthe,
                               A. T. Wong, Z. Zhang.

 Total times  cpu:       72.1s     wall:      105.5s
