 argument  1 = input.nw
  NWChem w/ OpenMP: maximum threads =    1



============================== echo of input deck ==============================
 echo
 start H2O
 title "H2O"

 memory total 24 gb

 geometry units bohr
 symmetry c1
        O  0.00000000  0.00000000  0.00000000
        H  0.00000000  3.4841205  0.00000000
        H  1.72558000 -0.64860000  0.00000000
 end

 basis spherical
   * library cc-pVTZ
 end

 mcscf
   active  8
   actelec 10
   multiplicity 1
   maxiter 40
   vectors input h2o.mos
   vectors output h2o.mos
 end

 task mcscf

 scf
   vectors input h2o.mos
   vectors output h2o-trash.mos
   noscf
 end

 tce
   2eorb
   2emet 13
   ccsd
   maxiter 300
 end

 set tce:print_integrals T
 set tce:qorb 8
 set tce:qela 5
 set tce:qelb 5

# set tce:qducc T
# set tce:nactv 3
# set tce:nonhf T
# set tce:ducc_model 6

 set tce:printtol 0.02

 task tce
================================================================================


                                         
                                         


             Northwest Computational Chemistry Package (NWChem) 7.0.1
             --------------------------------------------------------


                    Environmental Molecular Sciences Laboratory
                       Pacific Northwest National Laboratory
                                Richland, WA 99352

                              Copyright (c) 1994-2020
                       Pacific Northwest National Laboratory
                            Battelle Memorial Institute

             NWChem is an open-source computational chemistry package
                        distributed under the terms of the
                      Educational Community License (ECL) 2.0
             A copy of the license is included with this distribution
                              in the LICENSE.TXT file

                                  ACKNOWLEDGMENT
                                  --------------

            This software and its documentation were developed at the
            EMSL at Pacific Northwest National Laboratory, a multiprogram
            national laboratory, operated for the U.S. Department of Energy
            by Battelle under Contract Number DE-AC05-76RL01830. Support
            for this work was provided by the Department of Energy Office
            of Biological and Environmental Research, Office of Basic
            Energy Sciences, and the Office of Advanced Scientific Computing.


           Job information
           ---------------

    hostname        = WE46210
    program         = /home/baum612/code/nwchem/bin/LINUX64/nwchem
    date            = Thu May  2 11:42:35 2024

    compiled        = Tue_Apr_30_12:43:26_2024
    source          = /home/baum612/code/nwchem
    nwchem branch   = 7.0.0
    nwchem revision = nwchem_on_git-4191-g39d87d64de
    ga revision     = 5.8.1
    use scalapack   = F
    input           = input.nw
    prefix          = H2O.
    data base       = ./H2O.db
    status          = startup
    nproc           =        1
    time left       =     -1s



           Memory information
           ------------------

    heap     =  805306362 doubles =   6144.0 Mbytes
    stack    =  805306367 doubles =   6144.0 Mbytes
    global   = 1610612736 doubles =  12288.0 Mbytes (distinct from heap & stack)
    total    = 3221225465 doubles =  24576.0 Mbytes
    verify   = yes
    hardfail = no 


           Directory information
           ---------------------

  0 permanent = .
  0 scratch   = .




                                NWChem Input Module
                                -------------------


                                        H2O
                                        ---
 Turning off AUTOSYM since
 SYMMETRY directive was detected!


          ------
          auto-z
          ------
  autoz: The atoms group into disjoint clusters
 cluster   1:    1    3
 cluster   2:    2
 Connecting clusters   1   2 via atoms    1    2 r = 1.84
  autoz: regenerating connections with new bonds
  no constraints, skipping    0.0000000000000000     
  no constraints, skipping    0.0000000000000000     


                             Geometry "geometry" -> ""
                             -------------------------

 Output coordinates in a.u. (scale by  1.000000000 to convert to a.u.)

  No.       Tag          Charge          X              Y              Z
 ---- ---------------- ---------- -------------- -------------- --------------
    1 O                    8.0000    -0.17255800    -0.28355205     0.00000000
    2 H                    1.0000    -0.17255800     3.20056845     0.00000000
    3 H                    1.0000     1.55302200    -0.93215205     0.00000000

      Atomic Mass 
      ----------- 

      O                 15.994910
      H                  1.007825


 Effective nuclear repulsion energy (a.u.)       6.8591095634

            Nuclear Dipole moment (a.u.) 
            ----------------------------
        X                 Y               Z
 ---------------- ---------------- ----------------
    -0.0000000000    -0.0000000000     0.0000000000



                                Z-matrix (autoz)
                                -------- 

 Units are Angstrom for bonds and degrees for angles

      Type          Name      I     J     K     L     M      Value
      ----------- --------  ----- ----- ----- ----- ----- ----------
    1 Stretch                  1     2                       1.84372
    2 Stretch                  1     3                       0.97551
    3 Bend                     2     1     3               110.59992


            XYZ format geometry
            -------------------
     3
 geometry
 O                    -0.09131377    -0.15004929     0.00000000
 H                    -0.09131377     1.69366801     0.00000000
 H                     0.82182391    -0.49327366     0.00000000

 ==============================================================================
                                internuclear distances
 ------------------------------------------------------------------------------
       center one      |      center two      | atomic units |       a.u.
 ------------------------------------------------------------------------------
    3 H                |   1 O                |     1.84345  |     1.84345
 ------------------------------------------------------------------------------
                         number of included internuclear distances:          1
 ==============================================================================





 Summary of "ao basis" -> "" (spherical)
 ------------------------------------------------------------------------------
       Tag                 Description            Shells   Functions and Types
 ---------------- ------------------------------  ------  ---------------------
 *                          cc-pVTZ                   on all atoms 


                      Basis "ao basis" -> "ao basis" (spherical)
                      -----
  O (Oxygen)
  ----------
            Exponent  Coefficients 
       -------------- ---------------------------------------------------------
  1 S  1.53300000E+04  0.000508
  1 S  2.29900000E+03  0.003929
  1 S  5.22400000E+02  0.020243
  1 S  1.47300000E+02  0.079181
  1 S  4.75500000E+01  0.230687
  1 S  1.67600000E+01  0.433118
  1 S  6.20700000E+00  0.350260
  1 S  6.88200000E-01 -0.008154

  2 S  1.53300000E+04 -0.000115
  2 S  2.29900000E+03 -0.000895
  2 S  5.22400000E+02 -0.004636
  2 S  1.47300000E+02 -0.018724
  2 S  4.75500000E+01 -0.058463
  2 S  1.67600000E+01 -0.136463
  2 S  6.20700000E+00 -0.175740
  2 S  6.88200000E-01  0.603418

  3 S  1.75200000E+00  1.000000

  4 S  2.38400000E-01  1.000000

  5 P  3.44600000E+01  0.015928
  5 P  7.74900000E+00  0.099740
  5 P  2.28000000E+00  0.310492

  6 P  7.15600000E-01  1.000000

  7 P  2.14000000E-01  1.000000

  8 D  2.31400000E+00  1.000000

  9 D  6.45000000E-01  1.000000

 10 F  1.42800000E+00  1.000000

  H (Hydrogen)
  ------------
            Exponent  Coefficients 
       -------------- ---------------------------------------------------------
  1 S  3.38700000E+01  0.006068
  1 S  5.09500000E+00  0.045308
  1 S  1.15900000E+00  0.202822

  2 S  3.25800000E-01  1.000000

  3 S  1.02700000E-01  1.000000

  4 P  1.40700000E+00  1.000000

  5 P  3.88000000E-01  1.000000

  6 D  1.05700000E+00  1.000000



 Summary of "ao basis" -> "ao basis" (spherical)
 ------------------------------------------------------------------------------
       Tag                 Description            Shells   Functions and Types
 ---------------- ------------------------------  ------  ---------------------
 O                          cc-pVTZ                 10       30   4s3p2d1f
 H                          cc-pVTZ                  6       14   3s2p1d



                            NWChem Direct MCSCF Module
                            --------------------------


                                        H2O


     -----------------------------------
       Basis functions:             58
       Inactive shells:              0
       Active shells:                8
       Active electrons:            10
       Symmetry:                    a       
       Multiplicity:                 1
       Orbital rotations:          400
     -----------------------------------

     -----------------------------------
       E2 extrapolation:             F
       Conjugacy:                    T
       Micro CI relax:               T
       Canonical orbitals:           T
       Maximum iterations:          40
       Converge threshold:    1.00E-04
       Conjugacy resets:            20
       Initial levelshift:        0.10
     -----------------------------------

 Loading old vectors from job with title :

H2O


   input molecular orbitals = ./h2o.mos
  output molecular orbtials = ./h2o.mos

       No. of determinants:          3136


  Starting Orbital Energies
   -20.601626    -1.298794    -0.664058    -0.538116    -0.457680    -0.111935
    -0.026298    -0.013619     0.302737     0.372732     0.610334     0.773643
     0.793952     0.869827     0.905437     0.936579     0.975993     1.324270
     1.374436     1.744693     1.895395     2.036447     2.047227     2.177830
     2.638787     2.783806     3.402179     3.418070     3.438360     3.439715
     3.467263     3.559643     3.566840     3.651250     3.817294     3.884383
     3.950155     3.970916     4.049510     4.075698     4.269214     4.407575
     4.525055     4.745862     5.153627     5.568064     5.614375     5.811970
     5.863651     6.748767     6.817517     6.843647     6.843714     7.021771
     7.066496     7.173773     7.559203    10.870696

  Orbital Symmetry Irreps
a    a    a    a    a    a    a    a    a    a    a    a    a    a    a   
a    a    a    a    a    a    a    a    a    a    a    a    a    a    a   
a    a    a    a    a    a    a    a    a    a    a    a    a    a    a   
a    a    a    a    a    a    a    a    a    a    a    a    a   

 Integral file          = ./H2O.aoints.0
 Record size in doubles =  65536        No. of integs per rec  =  43688
 Max. records in memory =     49        Max. records in file   = 250656
 No. of bits per label  =      8        No. of bits per value  =     64


 #quartets = 3.212D+04 #integrals = 6.580D+05 #direct =  0.0% #cached =100.0%




          %%%%% MacroIteration   1 %%%%%


          Number of sigma calls:       21
                       o<<<<< (aa):             0.00
                       o<<<<< (bb):             0.00
                       o<<<<< (ab):             0.07
                       o<<<<< (total)           0.08
                       o<<<<< (aa) ff           0.00
                       o<<<<< (aa) gop          0.00
                       o<<<<< (aa) dot          0.00
                       o<<<<< (ab) str          0.00
                       o<<<<< (ab) gath         0.00
                       o<<<<< (ab) dotab        0.00
                       o<<<<< (ab) scat         0.00
                       o<<<<< (ab) sync         0.00
                       o<<<<< Density           0.01
                       o<<<<< Density one       0.00
                       o<<<<< Density two       0.00
                       o<<<<< Density ab        0.01
                       o<<<<< Spin adapt        0.26
                       o<<<<< Symm adapt        0.00

                       o<<<<< (ab) max sync:      0.00

           >>>| Valence CI:            -82.860589039738
           >>>| MCSCF energy:          -76.001479476295
           >>>| Gradient norm:          0.468681085D-02

                              ----- Line search ------

        step       energy         lsg     num-lsg   num-lsh   lsrat    time
      ------- ---------------- --------- --------- --------- ------- --------
       0.0000     -76.00147948 -4.42D-06  0.00D+00  0.00D+00 0.0D+00      1.0

          Number of sigma calls:       20
                       o<<<<< (aa):             0.00
                       o<<<<< (bb):             0.00
                       o<<<<< (ab):             0.06
                       o<<<<< (total)           0.07
                       o<<<<< (aa) ff           0.00
                       o<<<<< (aa) gop          0.00
                       o<<<<< (aa) dot          0.00
                       o<<<<< (ab) str          0.00
                       o<<<<< (ab) gath         0.00
                       o<<<<< (ab) dotab        0.00
                       o<<<<< (ab) scat         0.00
                       o<<<<< (ab) sync         0.00
                       o<<<<< Density           0.01
                       o<<<<< Density one       0.00
                       o<<<<< Density two       0.00
                       o<<<<< Density ab        0.01
                       o<<<<< Spin adapt        0.38
                       o<<<<< Symm adapt        0.00

                       o<<<<< (ab) max sync:      0.00
       1.0000     -76.00148206 -7.52D-07 -7.53D-07  3.66D-06 1.7D-01      1.5

          Number of sigma calls:       16
                       o<<<<< (aa):             0.00
                       o<<<<< (bb):             0.00
                       o<<<<< (ab):             0.05
                       o<<<<< (total)           0.05
                       o<<<<< (aa) ff           0.00
                       o<<<<< (aa) gop          0.00
                       o<<<<< (aa) dot          0.00
                       o<<<<< (ab) str          0.00
                       o<<<<< (ab) gath         0.00
                       o<<<<< (ab) dotab        0.00
                       o<<<<< (ab) scat         0.00
                       o<<<<< (ab) sync         0.00
                       o<<<<< Density           0.01
                       o<<<<< Density one       0.00
                       o<<<<< Density two       0.00
                       o<<<<< Density ab        0.01
                       o<<<<< Spin adapt        0.26
                       o<<<<< Symm adapt        0.00

                       o<<<<< (ab) max sync:      0.00
       1.2054     -76.00148214  1.06D-09  1.02D-09  3.67D-06 2.4D-04      1.9
     --- Orbitals canonicalized ---



          %%%%% MacroIteration   2 %%%%%


          Number of sigma calls:       21
                       o<<<<< (aa):             0.00
                       o<<<<< (bb):             0.01
                       o<<<<< (ab):             0.06
                       o<<<<< (total)           0.07
                       o<<<<< (aa) ff           0.00
                       o<<<<< (aa) gop          0.00
                       o<<<<< (aa) dot          0.00
                       o<<<<< (ab) str          0.00
                       o<<<<< (ab) gath         0.00
                       o<<<<< (ab) dotab        0.00
                       o<<<<< (ab) scat         0.00
                       o<<<<< (ab) sync         0.00
                       o<<<<< Density           0.01
                       o<<<<< Density one       0.00
                       o<<<<< Density two       0.00
                       o<<<<< Density ab        0.01
                       o<<<<< Spin adapt        0.32
                       o<<<<< Symm adapt        0.00

                       o<<<<< (ab) max sync:      0.00

           >>>| Valence CI:            -82.860591701395
           >>>| MCSCF energy:          -76.001482137952
           >>>| Gradient norm:          0.880400694D-03
     --- Warning:    4 Hessian diagonals < 0.05 ---
     --- Conjugacy reset ---

                              ----- Line search ------

        step       energy         lsg     num-lsg   num-lsh   lsrat    time
      ------- ---------------- --------- --------- --------- ------- --------
       0.0000     -76.00148214 -1.82D-07  0.00D+00  0.00D+00 0.0D+00      2.5

          Number of sigma calls:       16
                       o<<<<< (aa):             0.00
                       o<<<<< (bb):             0.00
                       o<<<<< (ab):             0.04
                       o<<<<< (total)           0.04
                       o<<<<< (aa) ff           0.00
                       o<<<<< (aa) gop          0.00
                       o<<<<< (aa) dot          0.00
                       o<<<<< (ab) str          0.00
                       o<<<<< (ab) gath         0.00
                       o<<<<< (ab) dotab        0.00
                       o<<<<< (ab) scat         0.00
                       o<<<<< (ab) sync         0.00
                       o<<<<< Density           0.01
                       o<<<<< Density one       0.00
                       o<<<<< Density two       0.00
                       o<<<<< Density ab        0.01
                       o<<<<< Spin adapt        0.20
                       o<<<<< Symm adapt        0.00

                       o<<<<< (ab) max sync:      0.00
       1.0000     -76.00148225 -3.62D-08 -3.62D-08  1.46D-07 2.0D-01      2.9

          Number of sigma calls:       13
                       o<<<<< (aa):             0.00
                       o<<<<< (bb):             0.00
                       o<<<<< (ab):             0.04
                       o<<<<< (total)           0.04
                       o<<<<< (aa) ff           0.00
                       o<<<<< (aa) gop          0.00
                       o<<<<< (aa) dot          0.00
                       o<<<<< (ab) str          0.00
                       o<<<<< (ab) gath         0.00
                       o<<<<< (ab) dotab        0.00
                       o<<<<< (ab) scat         0.00
                       o<<<<< (ab) sync         0.00
                       o<<<<< Density           0.01
                       o<<<<< Density one       0.00
                       o<<<<< Density two       0.00
                       o<<<<< Density ab        0.01
                       o<<<<< Spin adapt        0.22
                       o<<<<< Symm adapt        0.00

                       o<<<<< (ab) max sync:      0.00
       1.2479     -76.00148225  1.99D-11  1.89D-11  1.46D-07 1.1D-04      3.3



          %%%%% MacroIteration   3 %%%%%


          Number of sigma calls:        1
                       o<<<<< (aa):             0.00
                       o<<<<< (bb):             0.00
                       o<<<<< (ab):             0.00
                       o<<<<< (total)           0.00
                       o<<<<< (aa) ff           0.00
                       o<<<<< (aa) gop          0.00
                       o<<<<< (aa) dot          0.00
                       o<<<<< (ab) str          0.00
                       o<<<<< (ab) gath         0.00
                       o<<<<< (ab) dotab        0.00
                       o<<<<< (ab) scat         0.00
                       o<<<<< (ab) sync         0.00
                       o<<<<< Density           0.00
                       o<<<<< Density one       0.00
                       o<<<<< Density two       0.00
                       o<<<<< Density ab        0.00
                       o<<<<< Spin adapt        0.00
                       o<<<<< Symm adapt        0.00

                       o<<<<< (ab) max sync:      0.00

           >>>| Valence CI:            -82.860591814964
           >>>| MCSCF energy:          -76.001482251521
           >>>| Gradient norm:          0.212401242D-03
     --- Warning:    4 Hessian diagonals < 0.05 ---

                              ----- Line search ------

        step       energy         lsg     num-lsg   num-lsh   lsrat    time
      ------- ---------------- --------- --------- --------- ------- --------
       0.0000     -76.00148225 -9.98D-09  0.00D+00  0.00D+00 0.0D+00      3.4

          Number of sigma calls:       13
                       o<<<<< (aa):             0.00
                       o<<<<< (bb):             0.00
                       o<<<<< (ab):             0.03
                       o<<<<< (total)           0.04
                       o<<<<< (aa) ff           0.00
                       o<<<<< (aa) gop          0.00
                       o<<<<< (aa) dot          0.00
                       o<<<<< (ab) str          0.00
                       o<<<<< (ab) gath         0.00
                       o<<<<< (ab) dotab        0.00
                       o<<<<< (ab) scat         0.00
                       o<<<<< (ab) sync         0.00
                       o<<<<< Density           0.01
                       o<<<<< Density one       0.00
                       o<<<<< Density two       0.00
                       o<<<<< Density ab        0.01
                       o<<<<< Spin adapt        0.14
                       o<<<<< Symm adapt        0.00

                       o<<<<< (ab) max sync:      0.00
       1.0000     -76.00148226 -1.74D-09 -1.74D-09  8.23D-09 1.7D-01      3.7

          Number of sigma calls:       11
                       o<<<<< (aa):             0.00
                       o<<<<< (bb):             0.00
                       o<<<<< (ab):             0.04
                       o<<<<< (total)           0.04
                       o<<<<< (aa) ff           0.00
                       o<<<<< (aa) gop          0.00
                       o<<<<< (aa) dot          0.00
                       o<<<<< (ab) str          0.00
                       o<<<<< (ab) gath         0.00
                       o<<<<< (ab) dotab        0.00
                       o<<<<< (ab) scat         0.00
                       o<<<<< (ab) sync         0.00
                       o<<<<< Density           0.01
                       o<<<<< Density one       0.00
                       o<<<<< Density two       0.00
                       o<<<<< Density ab        0.01
                       o<<<<< Spin adapt        0.31
                       o<<<<< Symm adapt        0.00

                       o<<<<< (ab) max sync:      0.00
       1.2117     -76.00148226 -4.01D-14  2.83D-13  8.23D-09 4.0D-06      4.1



          %%%%% MacroIteration   4 %%%%%


          Number of sigma calls:        1
                       o<<<<< (aa):             0.00
                       o<<<<< (bb):             0.00
                       o<<<<< (ab):             0.00
                       o<<<<< (total)           0.00
                       o<<<<< (aa) ff           0.00
                       o<<<<< (aa) gop          0.00
                       o<<<<< (aa) dot          0.00
                       o<<<<< (ab) str          0.00
                       o<<<<< (ab) gath         0.00
                       o<<<<< (ab) dotab        0.00
                       o<<<<< (ab) scat         0.00
                       o<<<<< (ab) sync         0.00
                       o<<<<< Density           0.01
                       o<<<<< Density one       0.00
                       o<<<<< Density two       0.00
                       o<<<<< Density ab        0.01
                       o<<<<< Spin adapt        0.00
                       o<<<<< Symm adapt        0.00

                       o<<<<< (ab) max sync:      0.00

           >>>| Valence CI:            -82.860591821007
           >>>| MCSCF energy:          -76.001482257564
           >>>| Gradient norm:          0.461001916D-04




     ==============================
            MCSCF Converged
     ==============================



          Canonical Eigenvalues

              1      
    1  -20.6021
    2   -1.2991
    3   -0.6643
    4   -0.5385
    5   -0.4558
    6   -0.1136
    7   -0.0263
    8   -0.0136
    9    0.3023
   10    0.3734
   11    0.6105
   12    0.7734
   13    0.7940
   14    0.8692
   15    0.9028
   16    0.9359
   17    0.9751
   18    1.3244
   19    1.3736
   20    1.7437
   21    1.8908
   22    2.0356
   23    2.0469
   24    2.1775
   25    2.6368
   26    2.7834
   27    3.4044
   28    3.4192
   29    3.4389
   30    3.4402
   31    3.4676
   32    3.5565
   33    3.5657
   34    3.6502
   35    3.8140
   36    3.8839
   37    3.9485
   38    3.9707
   39    4.0479
   40    4.0770
   41    4.2648
   42    4.4072
   43    4.5184
   44    4.7443
   45    5.1517
   46    5.5666
   47    5.6118
   48    5.8112
   49    5.8606
   50    6.7467
   51    6.8155
   52    6.8424
   53    6.8432
   54    7.0199
   55    7.0661
   56    7.1666
   57    7.5572
   58   10.8693


          Converged CI vector

   Index           Coefficient          Config. Occupation
         1          0.89473009          1  2  3  4  5  1  2  3  4  5
         2          0.13505353          1  2  3  4  5  1  2  3  4  6
        23          0.06049565          1  2  3  4  5  1  2  3  5  8
         9          0.03829098          1  2  3  4  5  1  2  4  5  7
        41          0.02485137          1  2  3  4  5  1  2  5  7  8
        57          0.13505353          1  2  3  4  6  1  2  3  4  5
        58         -0.35329705          1  2  3  4  6  1  2  3  4  6
        83         -0.02845482          1  2  3  4  6  1  2  3  6  8
        60          0.03824672          1  2  3  4  6  1  2  4  5  6
      1233          0.06049565          1  2  3  5  8  1  2  3  4  5
      1255         -0.04961629          1  2  3  5  8  1  2  3  5  8
      1241         -0.03097994          1  2  3  5  8  1  2  4  5  7
      1458         -0.02845482          1  2  3  6  8  1  2  3  4  6
      1483          0.02287669          1  2  3  6  8  1  2  3  6  8
       170          0.03824672          1  2  4  5  6  1  2  3  4  6
       449          0.03829098          1  2  4  5  7  1  2  3  4  5
       471         -0.03097994          1  2  4  5  7  1  2  3  5  8
       457         -0.06564812          1  2  4  5  7  1  2  4  5  7
       458          0.02774248          1  2  4  5  7  1  3  4  5  7
       685          0.02836845          1  2  4  6  7  1  2  4  6  7
      2241          0.02485137          1  2  5  7  8  1  2  3  4  5
       513          0.02774248          1  3  4  5  7  1  2  4  5  7
       514         -0.02609457          1  3  4  5  7  1  3  4  5  7

          Number of sigma calls:        1
                       o<<<<< (aa):             0.00
                       o<<<<< (bb):             0.00
                       o<<<<< (ab):             0.00
                       o<<<<< (total)           0.00
                       o<<<<< (aa) ff           0.00
                       o<<<<< (aa) gop          0.00
                       o<<<<< (aa) dot          0.00
                       o<<<<< (ab) str          0.00
                       o<<<<< (ab) gath         0.00
                       o<<<<< (ab) dotab        0.00
                       o<<<<< (ab) scat         0.00
                       o<<<<< (ab) sync         0.00
                       o<<<<< Density           0.00
                       o<<<<< Density one       0.00
                       o<<<<< Density two       0.00
                       o<<<<< Density ab        0.00
                       o<<<<< Spin adapt        0.00
                       o<<<<< Symm adapt        0.00

                       o<<<<< (ab) max sync:      0.00



          Natural orbital occupation numbers

              1      
    1    2.0000
    2    1.9982
    3    1.9829
    4    1.9740
    5    1.7071
    6    0.2942
    7    0.0269
    8    0.0166


          Number of sigma calls:       21
                       o<<<<< (aa):             0.00
                       o<<<<< (bb):             0.00
                       o<<<<< (ab):             0.06
                       o<<<<< (total)           0.06
                       o<<<<< (aa) ff           0.00
                       o<<<<< (aa) gop          0.00
                       o<<<<< (aa) dot          0.00
                       o<<<<< (ab) str          0.00
                       o<<<<< (ab) gath         0.00
                       o<<<<< (ab) dotab        0.00
                       o<<<<< (ab) scat         0.00
                       o<<<<< (ab) sync         0.00
                       o<<<<< Density           0.00
                       o<<<<< Density one       0.00
                       o<<<<< Density two       0.00
                       o<<<<< Density ab        0.00
                       o<<<<< Spin adapt        0.31
                       o<<<<< Symm adapt        0.00

                       o<<<<< (ab) max sync:      0.00


       Final MCSCF results 
       ------------------- 

       Total MCSCF energy =    -76.001482257564
            Gradient norm =      4.6D-05

    CPU time for solution =      4.6s
   Wall time for solution =      8.4s



                        Analysis of MCSCF natural orbitals
                        ----------------------------------

 Vector    1  Occ=1.999991D+00  E=-2.060205D+01  Symmetry=a
              MO Center= -9.1D-02, -1.5D-01, -9.8D-14, r^2= 1.5D-02
   Bfn.  Coefficient  Atom+Function         Bfn.  Coefficient  Atom+Function  
  ----- ------------  ---------------      ----- ------------  ---------------
     1      0.974766  1 O  s          

 Vector    2  Occ=1.998243D+00  E=-1.299062D+00  Symmetry=a
              MO Center= -2.7D-01, -1.3D-01,  6.6D-11, r^2= 4.3D-01
   Bfn.  Coefficient  Atom+Function         Bfn.  Coefficient  Atom+Function  
  ----- ------------  ---------------      ----- ------------  ---------------
     2      0.550180  1 O  s                  4      0.403312  1 O  s          
     3      0.153168  1 O  s          

 Vector    3  Occ=1.982878D+00  E=-6.643144D-01  Symmetry=a
              MO Center= -6.2D-02, -1.6D-01, -6.6D-11, r^2= 6.3D-01
   Bfn.  Coefficient  Atom+Function         Bfn.  Coefficient  Atom+Function  
  ----- ------------  ---------------      ----- ------------  ---------------
    10      0.444067  1 O  pz                13      0.384438  1 O  pz         
     7      0.368890  1 O  pz         

 Vector    4  Occ=1.974008D+00  E=-5.384975D-01  Symmetry=a
              MO Center=  3.3D-01, -2.9D-01, -4.8D-13, r^2= 5.9D-01
   Bfn.  Coefficient  Atom+Function         Bfn.  Coefficient  Atom+Function  
  ----- ------------  ---------------      ----- ------------  ---------------
     8      0.339231  1 O  px                 5      0.283070  1 O  px         
    46      0.276668  3 H  s                 11      0.189316  1 O  px         
    45      0.187699  3 H  s          

 Vector    5  Occ=1.707115D+00  E=-4.558397D-01  Symmetry=a
              MO Center= -5.7D-02,  6.7D-01, -5.2D-13, r^2= 1.4D+00
   Bfn.  Coefficient  Atom+Function         Bfn.  Coefficient  Atom+Function  
  ----- ------------  ---------------      ----- ------------  ---------------
     9      0.313303  1 O  py                32      0.300933  2 H  s          
     6      0.246046  1 O  py                33      0.235658  2 H  s          
    12      0.220762  1 O  py         

 Vector    6  Occ=2.942027D-01  E=-1.136327D-01  Symmetry=a
              MO Center= -7.2D-02,  8.8D-01, -1.2D-12, r^2= 1.5D+00
   Bfn.  Coefficient  Atom+Function         Bfn.  Coefficient  Atom+Function  
  ----- ------------  ---------------      ----- ------------  ---------------
    32      0.443078  2 H  s                  9     -0.391754  1 O  py         
     6     -0.304793  1 O  py                33      0.261130  2 H  s          
    31      0.200703  2 H  s                 12     -0.165232  1 O  py         

 Vector    7  Occ=2.693891D-02  E=-2.629709D-02  Symmetry=a
              MO Center=  5.2D-01, -3.5D-01, -2.0D-13, r^2= 6.2D-01
   Bfn.  Coefficient  Atom+Function         Bfn.  Coefficient  Atom+Function  
  ----- ------------  ---------------      ----- ------------  ---------------
    46      0.682944  3 H  s                  5     -0.490130  1 O  px         
     8     -0.428279  1 O  px                45      0.331217  3 H  s          
     2     -0.285935  1 O  s                  4     -0.243268  1 O  s          

 Vector    8  Occ=1.662412D-02  E=-1.359750D-02  Symmetry=a
              MO Center=  2.9D-02, -1.8D-01, -9.1D-11, r^2= 1.2D+00
   Bfn.  Coefficient  Atom+Function         Bfn.  Coefficient  Atom+Function  
  ----- ------------  ---------------      ----- ------------  ---------------
    13      0.834563  1 O  pz                 7     -0.625547  1 O  pz         
    10     -0.305122  1 O  pz                53      0.150015  3 H  pz         

 Vector    9  Occ=0.000000D+00  E= 3.023154D-01  Symmetry=a
              MO Center=  1.1D+00, -7.0D-01,  2.9D-11, r^2= 3.6D+00
   Bfn.  Coefficient  Atom+Function         Bfn.  Coefficient  Atom+Function  
  ----- ------------  ---------------      ----- ------------  ---------------
    47      2.012200  3 H  s                  4     -1.310343  1 O  s          
    11     -0.615065  1 O  px                51     -0.451454  3 H  px         
    46     -0.230985  3 H  s                 52      0.177870  3 H  py         
    12      0.168305  1 O  py         

 Vector   10  Occ=0.000000D+00  E= 3.734282D-01  Symmetry=a
              MO Center= -1.4D-01,  2.0D+00,  1.2D-12, r^2= 3.2D+00
   Bfn.  Coefficient  Atom+Function         Bfn.  Coefficient  Atom+Function  
  ----- ------------  ---------------      ----- ------------  ---------------
    33      1.818341  2 H  s                 32     -1.266468  2 H  s          
    47     -0.473568  3 H  s                 12     -0.326695  1 O  py         
     4     -0.295881  1 O  s                 46      0.264808  3 H  s          

 Vector   11  Occ=0.000000D+00  E= 6.105131D-01  Symmetry=a
              MO Center= -4.0D-01,  5.4D-01, -3.0D-12, r^2= 2.2D+00
   Bfn.  Coefficient  Atom+Function         Bfn.  Coefficient  Atom+Function  
  ----- ------------  ---------------      ----- ------------  ---------------
    46      2.472746  3 H  s                  4     -1.995004  1 O  s          
    11     -1.972390  1 O  px                51     -0.748327  3 H  px         
    12      0.605613  1 O  py                37     -0.422126  2 H  px         
    47      0.329357  3 H  s                 33     -0.191873  2 H  s          
    52      0.177073  3 H  py                23     -0.166767  1 O  d  2       

 Vector   12  Occ=0.000000D+00  E= 7.734330D-01  Symmetry=a
              MO Center=  8.2D-02,  1.2D+00,  1.2D-12, r^2= 1.9D+00
   Bfn.  Coefficient  Atom+Function         Bfn.  Coefficient  Atom+Function  
  ----- ------------  ---------------      ----- ------------  ---------------
    39      0.909058  2 H  pz                53     -0.558773  3 H  pz         
    13      0.197967  1 O  pz         

 Vector   13  Occ=0.000000D+00  E= 7.939802D-01  Symmetry=a
              MO Center=  1.5D-01, -8.5D-02,  9.7D-13, r^2= 2.4D+00
   Bfn.  Coefficient  Atom+Function         Bfn.  Coefficient  Atom+Function  
  ----- ------------  ---------------      ----- ------------  ---------------
    46      1.393752  3 H  s                  4     -1.246751  1 O  s          
    12      1.035405  1 O  py                11     -0.965951  1 O  px         
    52      0.701671  3 H  py                 9     -0.506518  1 O  py         
    37      0.367947  2 H  px                47      0.308449  3 H  s          
    51     -0.309590  3 H  px                 8     -0.214732  1 O  px         

 Vector   14  Occ=0.000000D+00  E= 8.691866D-01  Symmetry=a
              MO Center= -2.8D-01,  6.4D-01, -4.3D-12, r^2= 2.6D+00
   Bfn.  Coefficient  Atom+Function         Bfn.  Coefficient  Atom+Function  
  ----- ------------  ---------------      ----- ------------  ---------------
    11      1.160298  1 O  px                46     -1.005646  3 H  s          
    37     -0.741864  2 H  px                12      0.594600  1 O  py         
     4      0.497666  1 O  s                 52     -0.458810  3 H  py         
     9     -0.387415  1 O  py                32     -0.368326  2 H  s          
     8     -0.184241  1 O  px                38     -0.166038  2 H  py         

 Vector   15  Occ=0.000000D+00  E= 9.027615D-01  Symmetry=a
              MO Center=  1.1D-01,  9.4D-01,  1.1D-12, r^2= 2.4D+00
   Bfn.  Coefficient  Atom+Function         Bfn.  Coefficient  Atom+Function  
  ----- ------------  ---------------      ----- ------------  ---------------
     4      0.900193  1 O  s                 38     -0.866954  2 H  py         
    47     -0.580907  3 H  s                  2     -0.474932  1 O  s          
    33      0.460495  2 H  s                 52     -0.436451  3 H  py         
    12     -0.342105  1 O  py                37      0.330802  2 H  px         
    32     -0.247732  2 H  s                 46     -0.233410  3 H  s          

 Vector   16  Occ=0.000000D+00  E= 9.359151D-01  Symmetry=a
              MO Center=  3.3D-01,  3.2D-02,  2.4D-12, r^2= 2.4D+00
   Bfn.  Coefficient  Atom+Function         Bfn.  Coefficient  Atom+Function  
  ----- ------------  ---------------      ----- ------------  ---------------
    53      1.134898  3 H  pz                13     -0.938102  1 O  pz         
    39      0.558124  2 H  pz         

 Vector   17  Occ=0.000000D+00  E= 9.751374D-01  Symmetry=a
              MO Center=  2.0D-01, -2.0D-01,  2.0D-11, r^2= 2.6D+00
   Bfn.  Coefficient  Atom+Function         Bfn.  Coefficient  Atom+Function  
  ----- ------------  ---------------      ----- ------------  ---------------
     4      2.315959  1 O  s                 46     -1.755423  3 H  s          
    12     -1.434788  1 O  py                51      1.053226  3 H  px         
    11      0.911020  1 O  px                52      0.676966  3 H  py         
    47     -0.634356  3 H  s                  2     -0.474555  1 O  s          
    37     -0.474140  2 H  px                38     -0.409614  2 H  py         

 Vector   18  Occ=0.000000D+00  E= 1.324370D+00  Symmetry=a
              MO Center= -9.3D-03,  2.3D-01,  4.6D-11, r^2= 2.2D+00
   Bfn.  Coefficient  Atom+Function         Bfn.  Coefficient  Atom+Function  
  ----- ------------  ---------------      ----- ------------  ---------------
     4      4.335309  1 O  s                 46     -2.590640  3 H  s          
    51      1.538544  3 H  px                11      1.244658  1 O  px         
    52     -1.031548  3 H  py                 8      0.814824  1 O  px         
    38      0.792433  2 H  py                 2     -0.773777  1 O  s          
    47     -0.693711  3 H  s                 12      0.558957  1 O  py         


 Wrote Lagrangian and 1- and 2-particle density matrices to ./H2O.mcpdm


     Multipole analysis of the density
     ---------------------------------

     L   x y z        total        nuclear
     -   - - -        -----        -------
     0   0 0 0     -0.000000     10.000000

     1   1 0 0      0.559249     -0.000000
     1   0 1 0      0.095614     -0.000000
     1   0 0 1      0.000000      0.000000

     2   2 0 0     -4.482303      2.679864
     2   1 1 0     -0.728052     -1.608503
     2   1 0 1     -0.000000      0.000000
     2   0 2 0     -3.451037     11.755760
     2   0 1 1     -0.000000      0.000000
     2   0 0 2     -5.928454      0.000000


  Mulliken analysis of the total density
  --------------------------------------

    Atom       Charge   Shell Charges
 -----------   ------   -------------------------------------------------------
    1 O    8     8.33   1.95  1.05  0.25  0.64  1.22  1.96  1.24  0.00  0.01  0.00
    2 H    1     0.92   0.16  0.45  0.30  0.00  0.01  0.00
    3 H    1     0.76   0.25  0.39  0.04  0.02  0.06  0.01

    Mulliken analysis of the active space density
    ---------------------------------------------

    Atom       Charge   Shell Charges
 -----------   ------   -------------------------------------------------------
    1 O    8     8.33   1.95  1.05  0.25  0.64  1.22  1.96  1.24  0.00  0.01  0.00
    2 H    1     0.92   0.16  0.45  0.30  0.00  0.01  0.00
    3 H    1     0.76   0.25  0.39  0.04  0.02  0.06  0.01

 Parallel integral file used      16 records with       0 large values


 Task  times  cpu:        4.7s     wall:        8.5s


                                NWChem Input Module
                                -------------------


                                 NWChem SCF Module
                                 -----------------


                                        H2O



  ao basis        = "ao basis"
  functions       =    58
  atoms           =     3
  closed shells   =     5
  open shells     =     0
  charge          =   0.00
  wavefunction    = RHF 
  input vectors   = ./h2o.mos
  output vectors  = ./h2o-trash.mos
  use symmetry    = F
  symmetry adapt  = F


 Summary of "ao basis" -> "ao basis" (spherical)
 ------------------------------------------------------------------------------
       Tag                 Description            Shells   Functions and Types
 ---------------- ------------------------------  ------  ---------------------
 O                          cc-pVTZ                 10       30   4s3p2d1f
 H                          cc-pVTZ                  6       14   3s2p1d



 Forming initial guess at       8.5s


 Loading old vectors from job with title :

H2O


 Starting SCF solution at       8.5s



 ----------------------------------------------
         Quadratically convergent ROHF

 Convergence threshold     :          1.000E-04
 Maximum no. of iterations :           30
 Final Fock-matrix accuracy:          1.000E-07
 ----------------------------------------------


 Integral file          = ./H2O.aoints.0
 Record size in doubles =  65536        No. of integs per rec  =  43688
 Max. records in memory =     49        Max. records in file   = 250694
 No. of bits per label  =      8        No. of bits per value  =     64


 #quartets = 3.209D+04 #integrals = 6.562D+05 #direct =  0.0% #cached =100.0%



       Final RHF  results 
       ------------------ 

         Total SCF energy =    -75.839916342457
      One-electron energy =   -118.375811031625
      Two-electron energy =     35.676785125725
 Nuclear repulsion energy =      6.859109563443

        Time for solution =      0.1s


             Final eigenvalues
             -----------------

              1      
    1  -20.6021
    2   -1.2991
    3   -0.6643
    4   -0.5385
    5   -0.4558
    6   -0.1136
    7   -0.0263
    8   -0.0136
    9    0.3023
   10    0.3734
   11    0.6105
   12    0.7734
   13    0.7940
   14    0.8692
   15    0.9028

                       ROHF Final Molecular Orbital Analysis
                       -------------------------------------

 Vector    2  Occ=2.000000D+00  E=-1.299062D+00
              MO Center= -2.7D-01, -1.3D-01,  6.6D-11, r^2= 4.3D-01
   Bfn.  Coefficient  Atom+Function         Bfn.  Coefficient  Atom+Function  
  ----- ------------  ---------------      ----- ------------  ---------------
     2      0.550180  1 O  s                  4      0.403312  1 O  s          
     3      0.153168  1 O  s          

 Vector    3  Occ=2.000000D+00  E=-6.643144D-01
              MO Center= -6.2D-02, -1.6D-01, -6.6D-11, r^2= 6.3D-01
   Bfn.  Coefficient  Atom+Function         Bfn.  Coefficient  Atom+Function  
  ----- ------------  ---------------      ----- ------------  ---------------
    10      0.444067  1 O  pz                13      0.384438  1 O  pz         
     7      0.368890  1 O  pz         

 Vector    4  Occ=2.000000D+00  E=-5.384975D-01
              MO Center=  3.3D-01, -2.9D-01, -4.8D-13, r^2= 5.9D-01
   Bfn.  Coefficient  Atom+Function         Bfn.  Coefficient  Atom+Function  
  ----- ------------  ---------------      ----- ------------  ---------------
     8      0.339231  1 O  px                 5      0.283070  1 O  px         
    46      0.276668  3 H  s                 11      0.189316  1 O  px         
    45      0.187699  3 H  s          

 Vector    5  Occ=2.000000D+00  E=-4.558397D-01
              MO Center= -5.7D-02,  6.7D-01, -5.2D-13, r^2= 1.4D+00
   Bfn.  Coefficient  Atom+Function         Bfn.  Coefficient  Atom+Function  
  ----- ------------  ---------------      ----- ------------  ---------------
     9      0.313303  1 O  py                32      0.300933  2 H  s          
     6      0.246046  1 O  py                33      0.235658  2 H  s          
    12      0.220762  1 O  py         

 Vector    6  Occ=0.000000D+00  E=-1.136327D-01
              MO Center= -7.2D-02,  8.8D-01, -1.2D-12, r^2= 1.5D+00
   Bfn.  Coefficient  Atom+Function         Bfn.  Coefficient  Atom+Function  
  ----- ------------  ---------------      ----- ------------  ---------------
    32      0.443078  2 H  s                  9     -0.391754  1 O  py         
     6     -0.304793  1 O  py                33      0.261130  2 H  s          
    31      0.200703  2 H  s                 12     -0.165232  1 O  py         

 Vector    7  Occ=0.000000D+00  E=-2.629709D-02
              MO Center=  5.2D-01, -3.5D-01, -2.0D-13, r^2= 6.2D-01
   Bfn.  Coefficient  Atom+Function         Bfn.  Coefficient  Atom+Function  
  ----- ------------  ---------------      ----- ------------  ---------------
    46      0.682944  3 H  s                  5     -0.490130  1 O  px         
     8     -0.428279  1 O  px                45      0.331217  3 H  s          
     2     -0.285935  1 O  s                  4     -0.243268  1 O  s          

 Vector    8  Occ=0.000000D+00  E=-1.359750D-02
              MO Center=  2.9D-02, -1.8D-01, -9.1D-11, r^2= 1.2D+00
   Bfn.  Coefficient  Atom+Function         Bfn.  Coefficient  Atom+Function  
  ----- ------------  ---------------      ----- ------------  ---------------
    13      0.834563  1 O  pz                 7     -0.625547  1 O  pz         
    10     -0.305122  1 O  pz                53      0.150015  3 H  pz         

 Vector    9  Occ=0.000000D+00  E= 3.023154D-01
              MO Center=  1.1D+00, -7.0D-01,  2.9D-11, r^2= 3.6D+00
   Bfn.  Coefficient  Atom+Function         Bfn.  Coefficient  Atom+Function  
  ----- ------------  ---------------      ----- ------------  ---------------
    47      2.012200  3 H  s                  4     -1.310343  1 O  s          
    11     -0.615065  1 O  px                51     -0.451454  3 H  px         
    46     -0.230985  3 H  s                 52      0.177870  3 H  py         
    12      0.168305  1 O  py         

 Vector   10  Occ=0.000000D+00  E= 3.734282D-01
              MO Center= -1.4D-01,  2.0D+00,  1.2D-12, r^2= 3.2D+00
   Bfn.  Coefficient  Atom+Function         Bfn.  Coefficient  Atom+Function  
  ----- ------------  ---------------      ----- ------------  ---------------
    33      1.818341  2 H  s                 32     -1.266468  2 H  s          
    47     -0.473568  3 H  s                 12     -0.326695  1 O  py         
     4     -0.295881  1 O  s                 46      0.264808  3 H  s          

 Vector   11  Occ=0.000000D+00  E= 6.105131D-01
              MO Center= -4.0D-01,  5.4D-01, -3.0D-12, r^2= 2.2D+00
   Bfn.  Coefficient  Atom+Function         Bfn.  Coefficient  Atom+Function  
  ----- ------------  ---------------      ----- ------------  ---------------
    46      2.472746  3 H  s                  4     -1.995004  1 O  s          
    11     -1.972390  1 O  px                51     -0.748327  3 H  px         
    12      0.605613  1 O  py                37     -0.422126  2 H  px         
    47      0.329357  3 H  s                 33     -0.191873  2 H  s          
    52      0.177073  3 H  py                23     -0.166767  1 O  d  2       

 Vector   12  Occ=0.000000D+00  E= 7.734330D-01
              MO Center=  8.2D-02,  1.2D+00,  1.2D-12, r^2= 1.9D+00
   Bfn.  Coefficient  Atom+Function         Bfn.  Coefficient  Atom+Function  
  ----- ------------  ---------------      ----- ------------  ---------------
    39      0.909058  2 H  pz                53     -0.558773  3 H  pz         
    13      0.197967  1 O  pz         

 Vector   13  Occ=0.000000D+00  E= 7.939802D-01
              MO Center=  1.5D-01, -8.5D-02,  9.7D-13, r^2= 2.4D+00
   Bfn.  Coefficient  Atom+Function         Bfn.  Coefficient  Atom+Function  
  ----- ------------  ---------------      ----- ------------  ---------------
    46      1.393752  3 H  s                  4     -1.246751  1 O  s          
    12      1.035405  1 O  py                11     -0.965951  1 O  px         
    52      0.701671  3 H  py                 9     -0.506518  1 O  py         
    37      0.367947  2 H  px                47      0.308449  3 H  s          
    51     -0.309590  3 H  px                 8     -0.214732  1 O  px         

 Vector   14  Occ=0.000000D+00  E= 8.691866D-01
              MO Center= -2.8D-01,  6.4D-01, -4.3D-12, r^2= 2.6D+00
   Bfn.  Coefficient  Atom+Function         Bfn.  Coefficient  Atom+Function  
  ----- ------------  ---------------      ----- ------------  ---------------
    11      1.160298  1 O  px                46     -1.005646  3 H  s          
    37     -0.741864  2 H  px                12      0.594600  1 O  py         
     4      0.497666  1 O  s                 52     -0.458810  3 H  py         
     9     -0.387415  1 O  py                32     -0.368326  2 H  s          
     8     -0.184241  1 O  px                38     -0.166038  2 H  py         

 Vector   15  Occ=0.000000D+00  E= 9.027615D-01
              MO Center=  1.1D-01,  9.4D-01,  1.1D-12, r^2= 2.4D+00
   Bfn.  Coefficient  Atom+Function         Bfn.  Coefficient  Atom+Function  
  ----- ------------  ---------------      ----- ------------  ---------------
     4      0.900193  1 O  s                 38     -0.866954  2 H  py         
    47     -0.580907  3 H  s                  2     -0.474932  1 O  s          
    33      0.460495  2 H  s                 52     -0.436451  3 H  py         
    12     -0.342105  1 O  py                37      0.330802  2 H  px         
    32     -0.247732  2 H  s                 46     -0.233410  3 H  s          


 center of mass
 --------------
 x =  -0.07599894 y =  -0.12488356 z =   0.00000000

 moments of inertia (a.u.)
 ------------------
          12.204629580027           1.403906644310           0.000000000000
           1.403906644310           2.833002082974           0.000000000000
           0.000000000000           0.000000000000          15.037631663001

  Mulliken analysis of the total density
  --------------------------------------

    Atom       Charge   Shell Charges
 -----------   ------   -------------------------------------------------------
    1 O    8     8.36   1.95  1.05  0.25  0.65  1.20  1.97  1.29  0.00  0.01  0.00
    2 H    1     0.89   0.14  0.43  0.31  0.00  0.01  0.00
    3 H    1     0.75   0.25  0.38  0.04  0.02  0.06  0.01

       Multipole analysis of the density wrt the origin
       ------------------------------------------------

     L   x y z        total         open         nuclear
     -   - - -        -----         ----         -------
     0   0 0 0     -0.000000      0.000000     10.000000

     1   1 0 0      0.564650      0.000000     -0.000000
     1   0 1 0      0.210255      0.000000     -0.000000
     1   0 0 1      0.000000      0.000000      0.000000

     2   2 0 0     -4.498284      0.000000      2.679864
     2   1 1 0     -0.796811      0.000000     -1.608503
     2   1 0 1     -0.000000      0.000000      0.000000
     2   0 2 0     -2.974871      0.000000     11.755760
     2   0 1 1     -0.000000      0.000000      0.000000
     2   0 0 2     -5.942997      0.000000      0.000000


 Parallel integral file used      16 records with       0 large values

 ------------------------------------
     Number of active orbitals      8
     Number of active alpha electrons      5
     Number of active beta electrons       5
 ------------------------------------
                   NWChem Extensible Many-Electron Theory Module
                   ---------------------------------------------

              ======================================================
                   This portion of the program was automatically
                  generated by a Tensor Contraction Engine (TCE).
                  The development of this portion of the program
                 and TCE was supported by US Department of Energy,
                Office of Science, Office of Basic Energy Science.
                      TCE is a product of Battelle and PNNL.
              Please cite: S.Hirata, J.Phys.Chem.A 107, 9887 (2003).
              ======================================================

                                        H2O


            General Information
            -------------------
      Number of processors :     1
         Wavefunction type : Restricted Hartree-Fock
          No. of electrons :    10
           Alpha electrons :     5
            Beta electrons :     5
           No. of orbitals :   116
            Alpha orbitals :    58
             Beta orbitals :    58
        Alpha frozen cores :     0
         Beta frozen cores :     0
     Alpha frozen virtuals :    50
      Beta frozen virtuals :    50
         Spin multiplicity : singlet 
    Number of AO functions :    58
       Number of AO shells :    22
        Use of symmetry is : off
      Symmetry adaption is : off
         Schwarz screening : 0.10D-09

          Correlation Information
          -----------------------
          Calculation type : Coupled-cluster singles & doubles                           
   Perturbative correction : none                                                        
            Max iterations :      300
        Residual threshold : 0.10D-06
     T(0) DIIS level shift : 0.00D+00
     L(0) DIIS level shift : 0.00D+00
     T(1) DIIS level shift : 0.00D+00
     L(1) DIIS level shift : 0.00D+00
     T(R) DIIS level shift : 0.00D+00
     T(I) DIIS level shift : 0.00D+00
   CC-T/L Amplitude update :  5-th order DIIS
                I/O scheme : Global Array Library
        L-threshold :  0.10D-06
        EOM-threshold :  0.10D-06
 no EOMCCSD initial starts read in
 TCE RESTART OPTIONS
 READ_INT:   F
 WRITE_INT:  F
 READ_TA:    F
 WRITE_TA:   F
 READ_XA:    F
 WRITE_XA:   F
 READ_IN3:   F
 WRITE_IN3:  F
 SLICE:      F
 D4D5:       F
 quantumc:   T
 qrotation:  F
 pwtce:      F
 qducc:      F
 nacto:                         0
 nrotv:                         0
 nrot:                          0

            Memory Information
            ------------------
          Available GA space size is    1610609372 doubles
          Available MA space size is    1610609772 doubles

 Maximum block size supplied by input
 Maximum block size         1 doubles

 tile_dim =      1

 Block   Spin    Irrep     Size     Offset   Alpha
 -------------------------------------------------
   1    alpha     a      1 doubles       0       1
   2    alpha     a      1 doubles       1       2
   3    alpha     a      1 doubles       2       3
   4    alpha     a      1 doubles       3       4
   5    alpha     a      1 doubles       4       5
   6    beta      a      1 doubles       5       1
   7    beta      a      1 doubles       6       2
   8    beta      a      1 doubles       7       3
   9    beta      a      1 doubles       8       4
  10    beta      a      1 doubles       9       5
  11    alpha     a      1 doubles      10      11
  12    alpha     a      1 doubles      11      12
  13    alpha     a      1 doubles      12      13
  14    beta      a      1 doubles      13      11
  15    beta      a      1 doubles      14      12
  16    beta      a      1 doubles      15      13

 Global array virtual files algorithm will be used

 Parallel file system coherency ......... OK

 Integral file          = ./H2O.aoints.0
 Record size in doubles =  65536        No. of integs per rec  =  43688
 Max. records in memory =     49        Max. records in file   = 250694
 No. of bits per label  =      8        No. of bits per value  =     64


 #quartets = 3.213D+04 #integrals = 6.605D+05 #direct =  0.0% #cached =100.0%


 Fock matrix recomputed
 1-e file size   =               64
 1-e file name   = ./H2O.f1
 Cpu & wall time / sec            0.1            0.1
 4-electron integrals stored in orbital form

 v2    file size   =              666
 4-index algorithm nr.  13 is used
 imaxsize =       30
 imaxsize ichop =        0
 begin_one_electron_integrals
    1    1       -32.7494508311
    2    1        -0.6642660505
    4    1         0.1266833019
    5    1        -0.0252096343
    6    1        -0.0848145307
    7    1        -0.2070969140
    1    2        -0.6642660505
    2    2        -7.6761560662
    4    2        -0.2640237084
    5    2         0.1134525687
    6    2         0.2576502486
    7    2         0.1179911209
    3    3        -6.8911883210
    8    3         2.1321151145
    1    4         0.1266833019
    2    4        -0.2640237084
    4    4        -6.6677633278
    5    4        -0.0633851906
    6    4        -0.0166254893
    7    4         1.9505527822
    1    5        -0.0252096343
    2    5         0.1134525687
    4    5        -0.0633851906
    5    5        -5.2033469698
    6    5         2.1503829042
    7    5         0.0018802029
    1    6        -0.0848145307
    2    6         0.2576502486
    4    6        -0.0166254893
    5    6         2.1503829042
    6    6        -5.1006228698
    7    6         0.0243430054
    1    7        -0.2070969140
    2    7         0.1179911209
    4    7         1.9505527822
    5    7         0.0018802029
    6    7         0.0243430054
    7    7        -5.9377521164
    3    8         2.1321151145
    8    8        -5.2422064277
 end_one_electron_integrals
 begin_two_electron_integrals
    1    1    1    1        4.8142898432
    2    1    1    1       -0.2749278777
    2    1    2    1        0.0366327689
    3    1    3    1        0.0288604264
    4    1    1    1       -0.0883960302
    4    1    2    1        0.0033335012
    4    1    4    1        0.0215607517
    4    1    2    2       -0.0145074827
    4    1    3    3       -0.0022576998
    5    1    1    1        0.0141503861
    5    1    2    1       -0.0024524212
    5    1    4    1        0.0005783002
    5    1    5    1        0.0146458863
    5    1    2    2       -0.0008800779
    5    1    4    2        0.0006370411
    5    1    3    3        0.0013462195
    5    1    4    4        0.0013740991
    6    1    1    1        0.0587937181
    6    1    2    1       -0.0050791821
    6    1    4    1       -0.0011721229
    6    1    5    1       -0.0168830059
    6    1    6    1        0.0213351469
    6    1    2    2        0.0047877997
    6    1    4    2        0.0007375231
    6    1    5    2       -0.0170056273
    6    1    3    3        0.0027684157
    6    1    4    4        0.0028306148
    6    1    5    4       -0.0031253405
    6    1    5    5       -0.0000340712
    7    1    1    1        0.1686699054
    7    1    2    1       -0.0093113092
    7    1    4    1       -0.0334297152
    7    1    5    1        0.0000489249
    7    1    6    1        0.0016050443
    7    1    7    1        0.0524835536
    7    1    2    2        0.0227038297
    7    1    4    2       -0.0264063001
    7    1    5    2       -0.0008421762
    7    1    6    2       -0.0029758725
    7    1    3    3        0.0035081855
    7    1    4    4       -0.0150992618
    7    1    5    4        0.0005565987
    7    1    6    4        0.0021839615
    7    1    5    5        0.0026052495
    7    1    6    5       -0.0014340092
    7    1    6    6        0.0033016509
    8    1    3    1       -0.0396180119
    8    1    8    1        0.0547005447
    8    1    3    2       -0.0380971027
    8    1    4    3       -0.0074671262
    8    1    5    3        0.0004520095
    8    1    6    3        0.0040212349
    8    1    7    3        0.0102211261
    2    2    1    1        1.0863569081
    2    2    2    1        0.0048261821
    2    2    2    2        0.8261179491
    3    2    3    1        0.0266867381
    3    2    3    2        0.1427733101
    4    2    1    1       -0.0043377619
    4    2    2    1       -0.0045905679
    4    2    4    1        0.0171366996
    4    2    2    2       -0.0560387463
    4    2    4    2        0.0908264266
    4    2    3    3        0.0107923017
    5    2    1    1       -0.0394856678
    5    2    2    1       -0.0009456266
    5    2    4    1        0.0010757721
    5    2    5    1        0.0136398386
    5    2    2    2       -0.0316190835
    5    2    4    2        0.0012857945
    5    2    5    2        0.0843286564
    5    2    3    3       -0.0180680455
    5    2    4    4       -0.0173456931
    6    2    1    1       -0.0528609620
    6    2    2    1        0.0006063189
    6    2    4    1        0.0013825644
    6    2    5    1       -0.0145818935
    6    2    6    1        0.0172974928
    6    2    2    2       -0.0224778398
    6    2    4    2        0.0063785894
    6    2    5    2       -0.0733703195
    6    2    6    2        0.0738440381
    6    2    3    3       -0.0274248214
    6    2    4    4       -0.0169694255
    6    2    5    4       -0.0116187706
    6    2    5    5       -0.0219503308
    7    2    1    1       -0.0264536262
    7    2    2    1        0.0053470670
    7    2    4    1       -0.0163701842
    7    2    5    1        0.0000762848
    7    2    6    1       -0.0018113752
    7    2    7    1        0.0240440145
    7    2    2    2        0.0280650164
    7    2    4    2       -0.0598466900
    7    2    5    2        0.0027681608
    7    2    6    2       -0.0078556700
    7    2    7    2        0.0520131045
    7    2    3    3       -0.0182796884
    7    2    4    4       -0.0353953505
    7    2    5    4        0.0011336009
    7    2    6    4        0.0046893199
    7    2    5    5       -0.0086034793
    7    2    6    5        0.0123820690
    7    2    6    6       -0.0098137582
    8    2    3    1       -0.0206687537
    8    2    8    1        0.0266690837
    8    2    3    2       -0.0529776251
    8    2    8    2        0.0437999409
    8    2    4    3       -0.0040392485
    8    2    5    3        0.0015889250
    8    2    6    3        0.0066680776
    8    2    7    3        0.0116226742
    3    3    1    1        1.0461158711
    3    3    2    1        0.0028323792
    3    3    2    2        0.7389850747
    3    3    3    3        0.7573476464
    4    3    3    1        0.0054093363
    4    3    3    2        0.0228797221
    4    3    4    3        0.0363314746
    5    3    3    1       -0.0004119245
    5    3    3    2       -0.0017784760
    5    3    4    3        0.0006710294
    5    3    5    3        0.0210427285
    6    3    3    1       -0.0029461837
    6    3    3    2       -0.0115096819
    6    3    4    3       -0.0017136728
    6    3    5    3       -0.0189289015
    6    3    6    3        0.0203247810
    7    3    3    1       -0.0079063969
    7    3    3    2       -0.0211415075
    7    3    4    3       -0.0203203363
    7    3    5    3        0.0005149974
    7    3    6    3        0.0017172195
    7    3    7    3        0.0248955622
    8    3    1    1       -0.5349144255
    8    3    2    1        0.0000193357
    8    3    4    1        0.0039065866
    8    3    5    1       -0.0011765540
    8    3    6    1       -0.0022622502
    8    3    7    1       -0.0067903575
    8    3    2    2       -0.2183948802
    8    3    4    2        0.0076711693
    8    3    5    2        0.0091285760
    8    3    6    2        0.0161226628
    8    3    7    2        0.0070997721
    8    3    3    3       -0.2129586721
    8    3    8    3        0.1648054915
    8    3    4    4       -0.1436941412
    8    3    5    4       -0.0040217202
    8    3    6    4       -0.0000675553
    8    3    7    4        0.1248511080
    8    3    5    5       -0.1077513734
    8    3    6    5        0.1002964275
    8    3    7    5        0.0005773158
    8    3    6    6       -0.1219004449
    8    3    7    6        0.0026366811
    8    3    7    7       -0.1683082499
    4    4    1    1        0.9070534314
    4    4    2    1        0.0000968288
    4    4    4    1        0.0093212993
    4    4    2    2        0.6357714641
    4    4    4    2        0.0804322733
    4    4    3    3        0.6357638469
    4    4    4    4        0.7711113041
    5    4    1    1        0.0154887232
    5    4    2    1        0.0000146637
    5    4    4    1       -0.0002670264
    5    4    5    1        0.0027084421
    5    4    2    2        0.0070135121
    5    4    4    2       -0.0023499123
    5    4    5    2        0.0099257286
    5    4    3    3        0.0072354683
    5    4    4    4        0.0046798716
    5    4    5    4        0.0198174372
    6    4    1    1        0.0023058325
    6    4    2    1        0.0007456071
    6    4    4    1       -0.0016486127
    6    4    5    1       -0.0030663322
    6    4    6    1        0.0035914759
    6    4    2    2        0.0083460173
    6    4    4    2       -0.0037044364
    6    4    5    2       -0.0138649650
    6    4    6    2        0.0117834663
    6    4    3    3        0.0020115808
    6    4    4    4        0.0038067923
    6    4    5    4       -0.0181420041
    6    4    6    4        0.0193844408
    6    4    5    5       -0.0065040134
    7    4    1    1       -0.4761741217
    7    4    2    1        0.0017048366
    7    4    4    1       -0.0040266986
    7    4    5    1       -0.0012420249
    7    4    6    1       -0.0020937940
    7    4    7    1        0.0031192397
    7    4    2    2       -0.2126854515
    7    4    4    2        0.0131034728
    7    4    5    2        0.0059605454
    7    4    6    2        0.0154674815
    7    4    7    2        0.0171084508
    7    4    3    3       -0.1844961539
    7    4    4    4       -0.1013868892
    7    4    5    4       -0.0052320105
    7    4    6    4        0.0045997995
    7    4    7    4        0.2117186429
    7    4    5    5       -0.1120309496
    7    4    6    5        0.0909878237
    7    4    6    6       -0.1240740677
    8    4    3    1       -0.0025496414
    8    4    8    1        0.0027117296
    8    4    3    2        0.0042037103
    8    4    8    2        0.0034493180
    8    4    4    3       -0.0020696201
    8    4    5    3       -0.0002845778
    8    4    6    3        0.0005035550
    8    4    7    3        0.0157876211
    8    4    8    4        0.0181203824
    5    5    1    1        0.6955896792
    5    5    2    1        0.0016145574
    5    5    4    1       -0.0015376202
    5    5    5    1        0.0010327309
    5    5    2    2        0.5372967459
    5    5    4    2       -0.0002200140
    5    5    5    2        0.0166326288
    5    5    3    3        0.5005516326
    5    5    4    4        0.4647827184
    5    5    5    4        0.0043399685
    5    5    5    5        0.5084886260
    6    5    1    1       -0.4255851378
    6    5    2    1       -0.0014585082
    6    5    4    1        0.0010304018
    6    5    5    1       -0.0016478614
    6    5    6    1       -0.0014849361
    6    5    2    2       -0.2460284889
    6    5    4    2       -0.0102026411
    6    5    5    2        0.0277218226
    6    5    6    2        0.0098641324
    6    5    3    3       -0.2229251138
    6    5    4    4       -0.2038856321
    6    5    5    4       -0.0063165387
    6    5    6    4       -0.0063585659
    6    5    5    5       -0.0634632535
    6    5    6    5        0.2229897176
    7    5    1    1       -0.0014608019
    7    5    2    1        0.0002109352
    7    5    4    1        0.0000108221
    7    5    5    1       -0.0042917706
    7    5    6    1        0.0051039548
    7    5    7    1       -0.0001899246
    7    5    2    2        0.0019078124
    7    5    4    2        0.0010161657
    7    5    5    2       -0.0136937192
    7    5    6    2        0.0136239072
    7    5    7    2       -0.0017131607
    7    5    3    3        0.0004453316
    7    5    4    4       -0.0012411366
    7    5    5    4       -0.0108892204
    7    5    6    4        0.0124056397
    7    5    7    4        0.0003828372
    7    5    5    5       -0.0027241348
    7    5    6    5       -0.0024134268
    7    5    7    5        0.0138645495
    7    5    6    6       -0.0048035866
    8    5    3    1        0.0004051649
    8    5    8    1       -0.0006498812
    8    5    3    2        0.0043978383
    8    5    8    2       -0.0004564858
    8    5    4    3        0.0001871197
    8    5    5    3       -0.0044923169
    8    5    6    3        0.0073095900
    8    5    7    3       -0.0000444045
    8    5    8    4        0.0007848352
    8    5    8    5        0.0107411594
    6    6    1    1        0.7407828933
    6    6    2    1        0.0012461045
    6    6    4    1       -0.0018348184
    6    6    5    1        0.0038685488
    6    6    6    1       -0.0029056188
    6    6    2    2        0.5333973687
    6    6    4    2        0.0005288733
    6    6    5    2        0.0235207868
    6    6    6    2       -0.0301828942
    6    6    3    3        0.4985390095
    6    6    4    4        0.4598896497
    6    6    5    4        0.0033360938
    6    6    6    4       -0.0075929724
    6    6    5    5        0.5198719484
    6    6    6    5       -0.0430192720
    6    6    6    6        0.5510278962
    7    6    1    1       -0.0072863677
    7    6    2    1       -0.0011256558
    7    6    4    1        0.0022988078
    7    6    5    1        0.0049522127
    7    6    6    1       -0.0056575380
    7    6    7    1       -0.0033028326
    7    6    2    2       -0.0129886200
    7    6    4    2        0.0097927893
    7    6    5    2        0.0151906157
    7    6    6    2       -0.0145076586
    7    6    7    2       -0.0056090202
    7    6    3    3       -0.0020815779
    7    6    4    4        0.0079560014
    7    6    5    4        0.0134017204
    7    6    6    4       -0.0148169665
    7    6    7    4        0.0061145666
    7    6    5    5       -0.0028085122
    7    6    6    5       -0.0014394159
    7    6    7    5       -0.0145994182
    7    6    6    6       -0.0023797517
    7    6    7    6        0.0179078285
    8    6    3    1        0.0028967237
    8    6    8    1       -0.0041013312
    8    6    3    2        0.0118842214
    8    6    8    2       -0.0046142121
    8    6    4    3        0.0021537535
    8    6    5    3        0.0094676756
    8    6    6    3       -0.0109288571
    8    6    7    3       -0.0013170428
    8    6    8    4        0.0005004280
    8    6    8    5       -0.0072917146
    8    6    8    6        0.0111877658
    7    7    1    1        1.0492620005
    7    7    2    1       -0.0040099670
    7    7    4    1        0.0092994959
    7    7    5    1        0.0019308023
    7    7    6    1        0.0040849297
    7    7    7    1       -0.0140190201
    7    7    2    2        0.6286616732
    7    7    4    2        0.0710726783
    7    7    5    2       -0.0178229931
    7    7    6    2       -0.0188299560
    7    7    7    2       -0.0347407556
    7    7    3    3        0.6323818582
    7    7    4    4        0.7519345735
    7    7    5    4        0.0047282945
    7    7    6    4        0.0053154479
    7    7    7    4       -0.0998242572
    7    7    5    5        0.4573763056
    7    7    6    5       -0.2094292386
    7    7    7    5       -0.0011822970
    7    7    6    6        0.4583653988
    7    7    7    6        0.0084398977
    7    7    7    7        0.7902713619
    8    7    3    1        0.0075963401
    8    7    8    1       -0.0102998365
    8    7    3    2        0.0248563939
    8    7    8    2       -0.0070390543
    8    7    4    3        0.0276116976
    8    7    5    3        0.0002756146
    8    7    6    3       -0.0015674039
    8    7    7    3       -0.0168943003
    8    7    8    4       -0.0026589860
    8    7    8    5        0.0007003038
    8    7    8    6        0.0025253448
    8    7    8    7        0.0297584972
    8    8    1    1        1.0264692052
    8    8    2    1       -0.0020554399
    8    8    4    1       -0.0043028671
    8    8    5    1        0.0017870799
    8    8    6    1        0.0031192748
    8    8    7    1        0.0068944011
    8    8    2    2        0.6297525698
    8    8    4    2        0.0104634757
    8    8    5    2       -0.0136315068
    8    8    6    2       -0.0224461622
    8    8    7    2       -0.0126941769
    8    8    3    3        0.6487457753
    8    8    8    3       -0.1805410105
    8    8    4    4        0.5663136340
    8    8    5    4        0.0062231133
    8    8    6    4        0.0020461813
    8    8    7    4       -0.1458019844
    8    8    5    5        0.4468530015
    8    8    6    5       -0.1828308341
    8    8    7    5       -0.0001166192
    8    8    6    6        0.4469328343
    8    8    7    6       -0.0006616640
    8    8    7    7        0.5809439134
    8    8    8    8        0.5984449026
 end_two_electron_integrals
 enrep_tce =    6.8591095634430630     
  EHF(A)             =       -75.83991634
  EHF(total)         =       -75.83991634
  Shift (HFtot-HFA)  =         0.00000000
 Cpu & wall time / sec            1.0            1.0
 T1-number-of-tasks                   15

 t1 file size   =               15
 t1 file name   = ./H2O.t1
 t1 file handle =       -998
 T2-number-of-boxes                  315

 t2 file size   =              315
 t2 file name   = ./H2O.t2
 t2 file handle =       -996
CCSD iterations
 ---------------------------------------------------------
 Iter          Residuum       Correlation     Cpu    Wall 
 ---------------------------------------------------------
NEW TASK SCHEDULING
CCSD_T1_NTS --- OK
CCSD_T2_NTS --- OK
    1   0.6504533330067  -0.2666696195904     1.8     2.6
    2   1.0018089477527   0.0375678006128     1.9     2.7
    3   1.5587239718579  -0.4583898263929     1.8     2.6
    4   2.4345987645448   0.2963523823837     1.8     2.6
    5   3.6945056927278  -0.8360864153369     1.7     2.6
 MICROCYCLE DIIS UPDATE:                    5                    5
    6   0.0224862762076  -0.1589641489410     1.7     2.7
    7   0.0329472426187  -0.1583187451609     1.7     2.6
    8   0.0584070472880  -0.1620374070167     1.8     2.6
    9   0.1102459442747  -0.1576203960517     1.7     2.6
   10   0.2123624009485  -0.1640757444743     1.8     2.6
 MICROCYCLE DIIS UPDATE:                   10                    5
   11   0.0015328285523  -0.1603879159305     1.8     2.7
   12   0.0013093281002  -0.1605447379439     2.0     2.7
   13   0.0016828045658  -0.1601392500339     1.9     2.6
   14   0.0025965738523  -0.1607529112256     2.1     2.8
   15   0.0042598780494  -0.1598030096520     1.9     2.6
 MICROCYCLE DIIS UPDATE:                   15                    5
   16   0.0001579315464  -0.1603654500241     1.7     2.6
   17   0.0001285401166  -0.1603744072708     1.8     2.6
   18   0.0002045081956  -0.1604086368878     1.8     2.6
   19   0.0003721861131  -0.1603672327234     1.9     2.7
   20   0.0006923695168  -0.1604364335098     1.8     2.6
 MICROCYCLE DIIS UPDATE:                   20                    5
   21   0.0000179254729  -0.1603943196244     1.7     2.6
   22   0.0000180214393  -0.1603972819467     1.9     2.7
   23   0.0000260577650  -0.1603916182724     1.9     2.7
   24   0.0000433059374  -0.1604002911027     1.8     2.6
   25   0.0000755944505  -0.1603869490152     1.9     2.6
 MICROCYCLE DIIS UPDATE:                   25                    5
   26   0.0000018023513  -0.1603949053663     1.8     2.6
   27   0.0000010529748  -0.1603949897125     1.6     2.6
   28   0.0000014559988  -0.1603953229845     1.8     2.7
   29   0.0000025651349  -0.1603949201499     1.8     2.6
   30   0.0000047178121  -0.1603955931073     1.9     2.6
 MICROCYCLE DIIS UPDATE:                   30                    5
   31   0.0000001722646  -0.1603951826661     1.7     2.6
   32   0.0000001774462  -0.1603952121468     2.0     2.7
   33   0.0000002645401  -0.1603951610680     1.8     2.6
   34   0.0000004564743  -0.1603952391724     1.8     2.7
   35   0.0000008250847  -0.1603951196554     1.9     2.6
 MICROCYCLE DIIS UPDATE:                   35                    5
   36   0.0000000201331  -0.1603951918294     1.9     2.6
 -----------------------------------------------------------------
 Iterations converged
 CCSD correlation energy / hartree =        -0.160395191829351
 CCSD total energy / hartree       =       -76.000311534286297

 Singles contributions

 Doubles contributions
     6a   (alpha)     6a   (beta ) ---     5a   (alpha)     5a   (beta )       -0.4069857375
     6a   (alpha)     7a   (beta ) ---     5a   (alpha)     4a   (beta )       -0.0305701431
     6a   (alpha)     8a   (beta ) ---     5a   (alpha)     3a   (beta )       -0.0312426299
     7a   (alpha)     8a   (alpha) ---     3a   (alpha)     4a   (alpha)        0.0319256993
     7a   (alpha)     6a   (beta ) ---     4a   (alpha)     5a   (beta )       -0.0305701431
     7a   (alpha)     7a   (beta ) ---     4a   (alpha)     4a   (beta )       -0.0913892727
     7a   (alpha)     8a   (beta ) ---     4a   (alpha)     3a   (beta )       -0.0418008190
     8a   (alpha)     6a   (beta ) ---     3a   (alpha)     5a   (beta )       -0.0312426299
     8a   (alpha)     7a   (beta ) ---     3a   (alpha)     4a   (beta )       -0.0418008190
     8a   (alpha)     8a   (beta ) ---     3a   (alpha)     3a   (beta )       -0.0587713646
 Ground state specification:
 exp(T)|Ref>~(1+T)|Ref>
 ------- a(p)+/a(q) strings ----------

 singles norm

 doubles norm

 Reference string
  0.92622876643802621      :(1a)+ (2a)+ (3a)+ (4a)+ (5a)+ (1b)+ (2b)+ (3b)+ (4b)+ (5b)+ |0>

 Singles strings

 Doubles strings
 -0.37696189757413456      :(6a)+ (6b)+ (5b)  (5a)  (1a)+ (2a)+ (3a)+ (4a)+ (5a)+ (1b)+ (2b)+ (3b)+ (4b)+ (5b)+ |0>
 -------------------------------------

 Parallel integral file used      16 records with       0 large values


 Task  times  cpu:       67.1s     wall:       97.4s


                                NWChem Input Module
                                -------------------


 Summary of allocated global arrays
-----------------------------------
  No active global arrays


MA_summarize_allocated_blocks: starting scan ...
MA_summarize_allocated_blocks: scan completed: 0 heap blocks, 0 stack blocks
MA usage statistics:

	allocation statistics:
					      heap	     stack
					      ----	     -----
	current number of blocks	         0	         0
	maximum number of blocks	        18	        42
	current total bytes		         0	         0
	maximum total bytes		  25775960	  38234456
	maximum total K-bytes		     25776	     38235
	maximum total M-bytes		        26	        39


                                     CITATION
                                     --------
                Please cite the following reference when publishing
                           results obtained with NWChem:

          E. Apra, E. J. Bylaska, W. A. de Jong, N. Govind, K. Kowalski,
       T. P. Straatsma, M. Valiev, H. J. J. van Dam, Y. Alexeev, J. Anchell,
       V. Anisimov, F. W. Aquino, R. Atta-Fynn, J. Autschbach, N. P. Bauman,
     J. C. Becca, D. E. Bernholdt, K. Bhaskaran-Nair, S. Bogatko, P. Borowski,
         J. Boschen, J. Brabec, A. Bruner, E. Cauet, Y. Chen, G. N. Chuev,
      C. J. Cramer, J. Daily, M. J. O. Deegan, T. H. Dunning Jr., M. Dupuis,
   K. G. Dyall, G. I. Fann, S. A. Fischer, A. Fonari, H. Fruchtl, L. Gagliardi,
      J. Garza, N. Gawande, S. Ghosh, K. Glaesemann, A. W. Gotz, J. Hammond,
       V. Helms, E. D. Hermes, K. Hirao, S. Hirata, M. Jacquelin, L. Jensen,
   B. G. Johnson, H. Jonsson, R. A. Kendall, M. Klemm, R. Kobayashi, V. Konkov,
      S. Krishnamoorthy, M. Krishnan, Z. Lin, R. D. Lins, R. J. Littlefield,
      A. J. Logsdail, K. Lopata, W. Ma, A. V. Marenich, J. Martin del Campo,
   D. Mejia-Rodriguez, J. E. Moore, J. M. Mullin, T. Nakajima, D. R. Nascimento,
    J. A. Nichols, P. J. Nichols, J. Nieplocha, A. Otero-de-la-Roza, B. Palmer,
    A. Panyala, T. Pirojsirikul, B. Peng, R. Peverati, J. Pittner, L. Pollack,
   R. M. Richard, P. Sadayappan, G. C. Schatz, W. A. Shelton, D. W. Silverstein,
   D. M. A. Smith, T. A. Soares, D. Song, M. Swart, H. L. Taylor, G. S. Thomas,
            V. Tipparaju, D. G. Truhlar, K. Tsemekhman, T. Van Voorhis,
      A. Vazquez-Mayagoitia, P. Verma, O. Villa, A. Vishnu, K. D. Vogiatzis,
        D. Wang, J. H. Weare, M. J. Williamson, T. L. Windus, K. Wolinski,
        A. T. Wong, Q. Wu, C. Yang, Q. Yu, M. Zacharias, Z. Zhang, Y. Zhao,
                                and R. J. Harrison
                        "NWChem: Past, present, and future
                         J. Chem. Phys. 152, 184102 (2020)
                               doi:10.1063/5.0004997

                                      AUTHORS
                                      -------
  E. Apra, E. J. Bylaska, N. Govind, K. Kowalski, M. Valiev, D. Mejia-Rodriguez,
       A. Kunitsa, N. P. Bauman, A. Panyala, W. A. de Jong, T. P. Straatsma,
        H. J. J. van Dam, D. Wang, T. L. Windus, J. Hammond, J. Autschbach,
    K. Bhaskaran-Nair, J. Brabec, K. Lopata, S. A. Fischer, S. Krishnamoorthy,
     M. Jacquelin, W. Ma, M. Klemm, O. Villa, Y. Chen, V. Anisimov, F. Aquino,
    S. Hirata, M. T. Hackler, Eric Hermes, L. Jensen, J. E. Moore, J. C. Becca,
      V. Konjkov, T. Risthaus, M. Malagoli, A. Marenich, A. Otero-de-la-Roza,
        J. Mullin, P. Nichols, R. Peverati, J. Pittner, Y. Zhao, P.-D. Fan,
        A. Fonari, M. J. Williamson, R. J. Harrison, J. R. Rehr, M. Dupuis,
     D. Silverstein, D. M. A. Smith, J. Nieplocha, V. Tipparaju, M. Krishnan,
     B. E. Van Kuiken, A. Vazquez-Mayagoitia, M. Swart, Q. Wu, T. Van Voorhis,
     A. A. Auer, M. Nooijen, L. D. Crosby, E. Brown, G. Cisneros, G. I. Fann,
   H. Fruchtl, J. Garza, K. Hirao, R. A. Kendall, J. A. Nichols, K. Tsemekhman,
    K. Wolinski, J. Anchell, D. E. Bernholdt, P. Borowski, T. Clark, D. Clerc,
   H. Dachsel, M. J. O. Deegan, K. Dyall, D. Elwood, E. Glendening, M. Gutowski,
   A. C. Hess, J. Jaffe, B. G. Johnson, J. Ju, R. Kobayashi, R. Kutteh, Z. Lin,
   R. Littlefield, X. Long, B. Meng, T. Nakajima, S. Niu, L. Pollack, M. Rosing,
   K. Glaesemann, G. Sandrone, M. Stave, H. Taylor, G. Thomas, J. H. van Lenthe,
                               A. T. Wong, Z. Zhang.

 Total times  cpu:       71.8s     wall:      105.9s
