 argument  1 = input.nw
  NWChem w/ OpenMP: maximum threads =    1



============================== echo of input deck ==============================
 echo
 start H2O
 title "H2O"

 memory total 24 gb

 geometry units bohr
 symmetry c1
        O  0.00000000  0.00000000  0.00000000
        H  0.00000000  4.4058455  0.00000000
        H  1.72558000 -0.64860000  0.00000000
 end

 basis spherical
   * library cc-pVTZ
 end

 mcscf
   active  8
   actelec 10
   multiplicity 1
   maxiter 40
   vectors input h2o.mos
   vectors output h2o.mos
 end

 task mcscf

 scf
   vectors input h2o.mos
   vectors output h2o-trash.mos
   noscf
 end

 tce
   2eorb
   2emet 13
   ccsd
   maxiter 300
 end

 set tce:print_integrals T
 set tce:qorb 8
 set tce:qela 5
 set tce:qelb 5

# set tce:qducc T
# set tce:nactv 3
# set tce:nonhf T
# set tce:ducc_model 6

 set tce:printtol 0.02

 task tce
================================================================================


                                         
                                         


             Northwest Computational Chemistry Package (NWChem) 7.0.1
             --------------------------------------------------------


                    Environmental Molecular Sciences Laboratory
                       Pacific Northwest National Laboratory
                                Richland, WA 99352

                              Copyright (c) 1994-2020
                       Pacific Northwest National Laboratory
                            Battelle Memorial Institute

             NWChem is an open-source computational chemistry package
                        distributed under the terms of the
                      Educational Community License (ECL) 2.0
             A copy of the license is included with this distribution
                              in the LICENSE.TXT file

                                  ACKNOWLEDGMENT
                                  --------------

            This software and its documentation were developed at the
            EMSL at Pacific Northwest National Laboratory, a multiprogram
            national laboratory, operated for the U.S. Department of Energy
            by Battelle under Contract Number DE-AC05-76RL01830. Support
            for this work was provided by the Department of Energy Office
            of Biological and Environmental Research, Office of Basic
            Energy Sciences, and the Office of Advanced Scientific Computing.


           Job information
           ---------------

    hostname        = WE46210
    program         = /home/baum612/code/nwchem/bin/LINUX64/nwchem
    date            = Thu May  2 12:57:51 2024

    compiled        = Tue_Apr_30_12:43:26_2024
    source          = /home/baum612/code/nwchem
    nwchem branch   = 7.0.0
    nwchem revision = nwchem_on_git-4191-g39d87d64de
    ga revision     = 5.8.1
    use scalapack   = F
    input           = input.nw
    prefix          = H2O.
    data base       = ./H2O.db
    status          = startup
    nproc           =        1
    time left       =     -1s



           Memory information
           ------------------

    heap     =  805306362 doubles =   6144.0 Mbytes
    stack    =  805306367 doubles =   6144.0 Mbytes
    global   = 1610612736 doubles =  12288.0 Mbytes (distinct from heap & stack)
    total    = 3221225465 doubles =  24576.0 Mbytes
    verify   = yes
    hardfail = no 


           Directory information
           ---------------------

  0 permanent = .
  0 scratch   = .




                                NWChem Input Module
                                -------------------


                                        H2O
                                        ---
 Turning off AUTOSYM since
 SYMMETRY directive was detected!


          ------
          auto-z
          ------
  autoz: The atoms group into disjoint clusters
 cluster   1:    1    3
 cluster   2:    2
 Connecting clusters   1   2 via atoms    1    2 r = 2.33
  autoz: regenerating connections with new bonds
  no constraints, skipping    0.0000000000000000     
  no constraints, skipping    0.0000000000000000     


                             Geometry "geometry" -> ""
                             -------------------------

 Output coordinates in a.u. (scale by  1.000000000 to convert to a.u.)

  No.       Tag          Charge          X              Y              Z
 ---- ---------------- ---------- -------------- -------------- --------------
    1 O                    8.0000    -0.17255800    -0.37572455     0.00000000
    2 H                    1.0000    -0.17255800     4.03012095     0.00000000
    3 H                    1.0000     1.55302200    -1.02432455     0.00000000

      Atomic Mass 
      ----------- 

      O                 15.994910
      H                  1.007825


 Effective nuclear repulsion energy (a.u.)       6.3426933552

            Nuclear Dipole moment (a.u.) 
            ----------------------------
        X                 Y               Z
 ---------------- ---------------- ----------------
    -0.0000000000     0.0000000000     0.0000000000



                                Z-matrix (autoz)
                                -------- 

 Units are Angstrom for bonds and degrees for angles

      Type          Name      I     J     K     L     M      Value
      ----------- --------  ----- ----- ----- ----- ----- ----------
    1 Stretch                  1     2                       2.33147
    2 Stretch                  1     3                       0.97551
    3 Bend                     2     1     3               110.59992


            XYZ format geometry
            -------------------
     3
 geometry
 O                    -0.09131377    -0.19882488     0.00000000
 H                    -0.09131377     2.13264832     0.00000000
 H                     0.82182391    -0.54204925     0.00000000

 ==============================================================================
                                internuclear distances
 ------------------------------------------------------------------------------
       center one      |      center two      | atomic units |       a.u.
 ------------------------------------------------------------------------------
    3 H                |   1 O                |     1.84345  |     1.84345
 ------------------------------------------------------------------------------
                         number of included internuclear distances:          1
 ==============================================================================





 Summary of "ao basis" -> "" (spherical)
 ------------------------------------------------------------------------------
       Tag                 Description            Shells   Functions and Types
 ---------------- ------------------------------  ------  ---------------------
 *                          cc-pVTZ                   on all atoms 


                      Basis "ao basis" -> "ao basis" (spherical)
                      -----
  O (Oxygen)
  ----------
            Exponent  Coefficients 
       -------------- ---------------------------------------------------------
  1 S  1.53300000E+04  0.000508
  1 S  2.29900000E+03  0.003929
  1 S  5.22400000E+02  0.020243
  1 S  1.47300000E+02  0.079181
  1 S  4.75500000E+01  0.230687
  1 S  1.67600000E+01  0.433118
  1 S  6.20700000E+00  0.350260
  1 S  6.88200000E-01 -0.008154

  2 S  1.53300000E+04 -0.000115
  2 S  2.29900000E+03 -0.000895
  2 S  5.22400000E+02 -0.004636
  2 S  1.47300000E+02 -0.018724
  2 S  4.75500000E+01 -0.058463
  2 S  1.67600000E+01 -0.136463
  2 S  6.20700000E+00 -0.175740
  2 S  6.88200000E-01  0.603418

  3 S  1.75200000E+00  1.000000

  4 S  2.38400000E-01  1.000000

  5 P  3.44600000E+01  0.015928
  5 P  7.74900000E+00  0.099740
  5 P  2.28000000E+00  0.310492

  6 P  7.15600000E-01  1.000000

  7 P  2.14000000E-01  1.000000

  8 D  2.31400000E+00  1.000000

  9 D  6.45000000E-01  1.000000

 10 F  1.42800000E+00  1.000000

  H (Hydrogen)
  ------------
            Exponent  Coefficients 
       -------------- ---------------------------------------------------------
  1 S  3.38700000E+01  0.006068
  1 S  5.09500000E+00  0.045308
  1 S  1.15900000E+00  0.202822

  2 S  3.25800000E-01  1.000000

  3 S  1.02700000E-01  1.000000

  4 P  1.40700000E+00  1.000000

  5 P  3.88000000E-01  1.000000

  6 D  1.05700000E+00  1.000000



 Summary of "ao basis" -> "ao basis" (spherical)
 ------------------------------------------------------------------------------
       Tag                 Description            Shells   Functions and Types
 ---------------- ------------------------------  ------  ---------------------
 O                          cc-pVTZ                 10       30   4s3p2d1f
 H                          cc-pVTZ                  6       14   3s2p1d



                            NWChem Direct MCSCF Module
                            --------------------------


                                        H2O


     -----------------------------------
       Basis functions:             58
       Inactive shells:              0
       Active shells:                8
       Active electrons:            10
       Symmetry:                    a       
       Multiplicity:                 1
       Orbital rotations:          400
     -----------------------------------

     -----------------------------------
       E2 extrapolation:             F
       Conjugacy:                    T
       Micro CI relax:               T
       Canonical orbitals:           T
       Maximum iterations:          40
       Converge threshold:    1.00E-04
       Conjugacy resets:            20
       Initial levelshift:        0.10
     -----------------------------------

 Loading old vectors from job with title :

H2O


   input molecular orbitals = ./h2o.mos
  output molecular orbtials = ./h2o.mos

       No. of determinants:          3136


  Starting Orbital Energies
   -20.611267    -1.306643    -0.671920    -0.548670    -0.380353    -0.189214
    -0.026187    -0.012955     0.285415     0.402618     0.623917     0.716268
     0.777739     0.826342     0.852754     0.905195     0.977736     1.258209
     1.349082     1.716001     1.749821     2.029925     2.034809     2.153012
     2.565191     2.754642     3.444152     3.456585     3.456738     3.461858
     3.474258     3.485771     3.515942     3.536807     3.740950     3.874143
     3.907854     3.952407     3.983988     4.016838     4.161324     4.394877
     4.448149     4.722834     5.140051     5.538816     5.545040     5.795121
     5.799714     6.703056     6.732867     6.807151     6.832400     6.895296
     7.029867     7.056496     7.509273    10.804065

  Orbital Symmetry Irreps
a    a    a    a    a    a    a    a    a    a    a    a    a    a    a   
a    a    a    a    a    a    a    a    a    a    a    a    a    a    a   
a    a    a    a    a    a    a    a    a    a    a    a    a    a    a   
a    a    a    a    a    a    a    a    a    a    a    a    a   

 Integral file          = ./H2O.aoints.0
 Record size in doubles =  65536        No. of integs per rec  =  43688
 Max. records in memory =     49        Max. records in file   = 250651
 No. of bits per label  =      8        No. of bits per value  =     64


 #quartets = 3.183D+04 #integrals = 6.156D+05 #direct =  0.0% #cached =100.0%




          %%%%% MacroIteration   1 %%%%%


          Number of sigma calls:       23
                       o<<<<< (aa):             0.00
                       o<<<<< (bb):             0.00
                       o<<<<< (ab):             0.04
                       o<<<<< (total)           0.05
                       o<<<<< (aa) ff           0.00
                       o<<<<< (aa) gop          0.00
                       o<<<<< (aa) dot          0.00
                       o<<<<< (ab) str          0.00
                       o<<<<< (ab) gath         0.00
                       o<<<<< (ab) dotab        0.00
                       o<<<<< (ab) scat         0.00
                       o<<<<< (ab) sync         0.00
                       o<<<<< Density           0.01
                       o<<<<< Density one       0.00
                       o<<<<< Density two       0.00
                       o<<<<< Density ab        0.01
                       o<<<<< Spin adapt        0.31
                       o<<<<< Symm adapt        0.00

                       o<<<<< (ab) max sync:      0.00

           >>>| Valence CI:            -82.317061446892
           >>>| MCSCF energy:          -75.974368091679
           >>>| Gradient norm:          0.169154186D-02
     --- Warning:    2 Hessian diagonals < 0.05 ---

                              ----- Line search ------

        step       energy         lsg     num-lsg   num-lsh   lsrat    time
      ------- ---------------- --------- --------- --------- ------- --------
       0.0000     -75.97436809 -7.10D-07  0.00D+00  0.00D+00 0.0D+00      1.0

          Number of sigma calls:       21
                       o<<<<< (aa):             0.00
                       o<<<<< (bb):             0.00
                       o<<<<< (ab):             0.05
                       o<<<<< (total)           0.05
                       o<<<<< (aa) ff           0.00
                       o<<<<< (aa) gop          0.00
                       o<<<<< (aa) dot          0.00
                       o<<<<< (ab) str          0.00
                       o<<<<< (ab) gath         0.00
                       o<<<<< (ab) dotab        0.00
                       o<<<<< (ab) scat         0.00
                       o<<<<< (ab) sync         0.00
                       o<<<<< Density           0.00
                       o<<<<< Density one       0.00
                       o<<<<< Density two       0.00
                       o<<<<< Density ab        0.00
                       o<<<<< Spin adapt        0.27
                       o<<<<< Symm adapt        0.00

                       o<<<<< (ab) max sync:      0.00
       1.0000     -75.97436850 -1.01D-07 -1.01D-07  6.09D-07 1.4D-01      1.5

          Number of sigma calls:       16
                       o<<<<< (aa):             0.00
                       o<<<<< (bb):             0.00
                       o<<<<< (ab):             0.04
                       o<<<<< (total)           0.04
                       o<<<<< (aa) ff           0.00
                       o<<<<< (aa) gop          0.00
                       o<<<<< (aa) dot          0.00
                       o<<<<< (ab) str          0.00
                       o<<<<< (ab) gath         0.00
                       o<<<<< (ab) dotab        0.00
                       o<<<<< (ab) scat         0.00
                       o<<<<< (ab) sync         0.00
                       o<<<<< Density           0.01
                       o<<<<< Density one       0.00
                       o<<<<< Density two       0.00
                       o<<<<< Density ab        0.01
                       o<<<<< Spin adapt        0.25
                       o<<<<< Symm adapt        0.00

                       o<<<<< (ab) max sync:      0.00
       1.1660     -75.97436851  6.26D-11  5.96D-11  6.10D-07 8.8D-05      1.9
     --- Orbitals canonicalized ---



          %%%%% MacroIteration   2 %%%%%


          Number of sigma calls:       22
                       o<<<<< (aa):             0.00
                       o<<<<< (bb):             0.01
                       o<<<<< (ab):             0.06
                       o<<<<< (total)           0.07
                       o<<<<< (aa) ff           0.00
                       o<<<<< (aa) gop          0.00
                       o<<<<< (aa) dot          0.00
                       o<<<<< (ab) str          0.00
                       o<<<<< (ab) gath         0.00
                       o<<<<< (ab) dotab        0.00
                       o<<<<< (ab) scat         0.00
                       o<<<<< (ab) sync         0.00
                       o<<<<< Density           0.01
                       o<<<<< Density one       0.00
                       o<<<<< Density two       0.00
                       o<<<<< Density ab        0.01
                       o<<<<< Spin adapt        0.35
                       o<<<<< Symm adapt        0.00

                       o<<<<< (ab) max sync:      0.00

           >>>| Valence CI:            -82.317061861201
           >>>| MCSCF energy:          -75.974368505989
           >>>| Gradient norm:          0.221626223D-03
     --- Warning:    4 Hessian diagonals < 0.05 ---
     --- Conjugacy reset ---

                              ----- Line search ------

        step       energy         lsg     num-lsg   num-lsh   lsrat    time
      ------- ---------------- --------- --------- --------- ------- --------
       0.0000     -75.97436851 -1.58D-08  0.00D+00  0.00D+00 0.0D+00      2.5

          Number of sigma calls:       13
                       o<<<<< (aa):             0.00
                       o<<<<< (bb):             0.00
                       o<<<<< (ab):             0.04
                       o<<<<< (total)           0.04
                       o<<<<< (aa) ff           0.00
                       o<<<<< (aa) gop          0.00
                       o<<<<< (aa) dot          0.00
                       o<<<<< (ab) str          0.00
                       o<<<<< (ab) gath         0.00
                       o<<<<< (ab) dotab        0.00
                       o<<<<< (ab) scat         0.00
                       o<<<<< (ab) sync         0.00
                       o<<<<< Density           0.00
                       o<<<<< Density one       0.00
                       o<<<<< Density two       0.00
                       o<<<<< Density ab        0.00
                       o<<<<< Spin adapt        0.13
                       o<<<<< Symm adapt        0.00

                       o<<<<< (ab) max sync:      0.00
       1.0000     -75.97436852 -2.54D-09 -2.55D-09  1.33D-08 1.6D-01      2.8

          Number of sigma calls:       11
                       o<<<<< (aa):             0.00
                       o<<<<< (bb):             0.00
                       o<<<<< (ab):             0.03
                       o<<<<< (total)           0.03
                       o<<<<< (aa) ff           0.00
                       o<<<<< (aa) gop          0.00
                       o<<<<< (aa) dot          0.00
                       o<<<<< (ab) str          0.00
                       o<<<<< (ab) gath         0.00
                       o<<<<< (ab) dotab        0.00
                       o<<<<< (ab) scat         0.00
                       o<<<<< (ab) sync         0.00
                       o<<<<< Density           0.00
                       o<<<<< Density one       0.00
                       o<<<<< Density two       0.00
                       o<<<<< Density ab        0.00
                       o<<<<< Spin adapt        0.22
                       o<<<<< Symm adapt        0.00

                       o<<<<< (ab) max sync:      0.00
       1.1917     -75.97436852  1.02D-12  2.08D-12  1.33D-08 6.4D-05      3.1



          %%%%% MacroIteration   3 %%%%%


          Number of sigma calls:        1
                       o<<<<< (aa):             0.00
                       o<<<<< (bb):             0.00
                       o<<<<< (ab):             0.00
                       o<<<<< (total)           0.00
                       o<<<<< (aa) ff           0.00
                       o<<<<< (aa) gop          0.00
                       o<<<<< (aa) dot          0.00
                       o<<<<< (ab) str          0.00
                       o<<<<< (ab) gath         0.00
                       o<<<<< (ab) dotab        0.00
                       o<<<<< (ab) scat         0.00
                       o<<<<< (ab) sync         0.00
                       o<<<<< Density           0.01
                       o<<<<< Density one       0.00
                       o<<<<< Density two       0.00
                       o<<<<< Density ab        0.01
                       o<<<<< Spin adapt        0.00
                       o<<<<< Symm adapt        0.00

                       o<<<<< (ab) max sync:      0.00

           >>>| Valence CI:            -82.317061870627
           >>>| MCSCF energy:          -75.974368515413
           >>>| Gradient norm:          0.464060925D-04




     ==============================
            MCSCF Converged
     ==============================



          Canonical Eigenvalues

              1      
    1  -20.6113
    2   -1.3067
    3   -0.6720
    4   -0.5487
    5   -0.3792
    6   -0.1904
    7   -0.0262
    8   -0.0129
    9    0.2852
   10    0.4031
   11    0.6243
   12    0.7144
   13    0.7780
   14    0.8260
   15    0.8521
   16    0.9047
   17    0.9781
   18    1.2556
   19    1.3488
   20    1.7158
   21    1.7485
   22    2.0299
   23    2.0347
   24    2.1526
   25    2.5645
   26    2.7541
   27    3.4445
   28    3.4568
   29    3.4569
   30    3.4622
   31    3.4740
   32    3.4855
   33    3.5140
   34    3.5362
   35    3.7410
   36    3.8742
   37    3.9074
   38    3.9519
   39    3.9802
   40    4.0166
   41    4.1609
   42    4.3948
   43    4.4481
   44    4.7227
   45    5.1394
   46    5.5387
   47    5.5445
   48    5.7950
   49    5.7994
   50    6.7028
   51    6.7316
   52    6.8069
   53    6.8323
   54    6.8937
   55    7.0296
   56    7.0564
   57    7.5089
   58   10.8032


          Converged CI vector

   Index           Coefficient          Config. Occupation
         1         -0.76045168          1  2  3  4  5  1  2  3  4  5
         2         -0.27908647          1  2  3  4  5  1  2  3  4  6
        23         -0.04477564          1  2  3  4  5  1  2  3  5  8
         9         -0.02912442          1  2  3  4  5  1  2  4  5  7
        41         -0.02235735          1  2  3  4  5  1  2  5  7  8
        57         -0.27908647          1  2  3  4  6  1  2  3  4  5
        58          0.48592383          1  2  3  4  6  1  2  3  4  6
        83          0.03342867          1  2  3  4  6  1  2  3  6  8
        69          0.02250799          1  2  3  4  6  1  2  4  6  7
      1233         -0.04477564          1  2  3  5  8  1  2  3  4  5
      1255          0.04302943          1  2  3  5  8  1  2  3  5  8
      1241          0.02724192          1  2  3  5  8  1  2  4  5  7
      1458          0.03342867          1  2  3  6  8  1  2  3  4  6
      1483         -0.02929193          1  2  3  6  8  1  2  3  6  8
       449         -0.02912442          1  2  4  5  7  1  2  3  4  5
       471          0.02724192          1  2  4  5  7  1  2  3  5  8
       457          0.05752626          1  2  4  5  7  1  2  4  5  7
       461          0.02181416          1  2  4  5  7  1  2  4  6  7
       458         -0.02412355          1  2  4  5  7  1  3  4  5  7
       674          0.02250799          1  2  4  6  7  1  2  3  4  6
       681          0.02181416          1  2  4  6  7  1  2  4  5  7
       685         -0.03794094          1  2  4  6  7  1  2  4  6  7
      2241         -0.02235735          1  2  5  7  8  1  2  3  4  5
       513         -0.02412355          1  3  4  5  7  1  2  4  5  7
       514          0.02266945          1  3  4  5  7  1  3  4  5  7

          Number of sigma calls:        1
                       o<<<<< (aa):             0.00
                       o<<<<< (bb):             0.00
                       o<<<<< (ab):             0.00
                       o<<<<< (total)           0.00
                       o<<<<< (aa) ff           0.00
                       o<<<<< (aa) gop          0.00
                       o<<<<< (aa) dot          0.00
                       o<<<<< (ab) str          0.00
                       o<<<<< (ab) gath         0.00
                       o<<<<< (ab) dotab        0.00
                       o<<<<< (ab) scat         0.00
                       o<<<<< (ab) sync         0.00
                       o<<<<< Density           0.00
                       o<<<<< Density one       0.00
                       o<<<<< Density two       0.00
                       o<<<<< Density ab        0.00
                       o<<<<< Spin adapt        0.00
                       o<<<<< Symm adapt        0.00

                       o<<<<< (ab) max sync:      0.00



          Natural orbital occupation numbers

              1      
    1    2.0000
    2    1.9987
    3    1.9850
    4    1.9746
    5    1.3834
    6    0.6170
    7    0.0265
    8    0.0148


          Number of sigma calls:       23
                       o<<<<< (aa):             0.00
                       o<<<<< (bb):             0.00
                       o<<<<< (ab):             0.06
                       o<<<<< (total)           0.07
                       o<<<<< (aa) ff           0.00
                       o<<<<< (aa) gop          0.00
                       o<<<<< (aa) dot          0.00
                       o<<<<< (ab) str          0.00
                       o<<<<< (ab) gath         0.00
                       o<<<<< (ab) dotab        0.00
                       o<<<<< (ab) scat         0.00
                       o<<<<< (ab) sync         0.00
                       o<<<<< Density           0.01
                       o<<<<< Density one       0.00
                       o<<<<< Density two       0.00
                       o<<<<< Density ab        0.01
                       o<<<<< Spin adapt        0.30
                       o<<<<< Symm adapt        0.00

                       o<<<<< (ab) max sync:      0.00


       Final MCSCF results 
       ------------------- 

       Total MCSCF energy =    -75.974368515413
            Gradient norm =      4.6D-05

    CPU time for solution =      3.6s
   Wall time for solution =      7.0s



                        Analysis of MCSCF natural orbitals
                        ----------------------------------

 Vector    1  Occ=1.999992D+00  E=-2.061130D+01  Symmetry=a
              MO Center= -9.1D-02, -2.0D-01, -6.0D-14, r^2= 1.5D-02
   Bfn.  Coefficient  Atom+Function         Bfn.  Coefficient  Atom+Function  
  ----- ------------  ---------------      ----- ------------  ---------------
     1      0.974140  1 O  s          

 Vector    2  Occ=1.998724D+00  E=-1.306698D+00  Symmetry=a
              MO Center= -2.6D-01, -1.4D-01,  5.8D-11, r^2= 4.2D-01
   Bfn.  Coefficient  Atom+Function         Bfn.  Coefficient  Atom+Function  
  ----- ------------  ---------------      ----- ------------  ---------------
     2      0.552439  1 O  s                  4      0.402446  1 O  s          
     3      0.154137  1 O  s          

 Vector    3  Occ=1.984961D+00  E=-6.719756D-01  Symmetry=a
              MO Center= -6.2D-02, -2.1D-01, -5.7D-11, r^2= 6.2D-01
   Bfn.  Coefficient  Atom+Function         Bfn.  Coefficient  Atom+Function  
  ----- ------------  ---------------      ----- ------------  ---------------
    10      0.448113  1 O  pz                13      0.378903  1 O  pz         
     7      0.369876  1 O  pz         

 Vector    4  Occ=1.974635D+00  E=-5.487432D-01  Symmetry=a
              MO Center=  3.3D-01, -3.5D-01, -1.6D-12, r^2= 5.8D-01
   Bfn.  Coefficient  Atom+Function         Bfn.  Coefficient  Atom+Function  
  ----- ------------  ---------------      ----- ------------  ---------------
     8      0.332140  1 O  px                46      0.282961  3 H  s          
     5      0.277095  1 O  px                45      0.188458  3 H  s          
    11      0.178981  1 O  px         

 Vector    5  Occ=1.383394D+00  E=-3.792115D-01  Symmetry=a
              MO Center= -6.9D-02,  9.1D-01, -2.5D-13, r^2= 2.0D+00
   Bfn.  Coefficient  Atom+Function         Bfn.  Coefficient  Atom+Function  
  ----- ------------  ---------------      ----- ------------  ---------------
    32      0.322651  2 H  s                  9      0.309040  1 O  py         
    33      0.266491  2 H  s                  6      0.241753  1 O  py         
    12      0.214603  1 O  py                31      0.156403  2 H  s          

 Vector    6  Occ=6.169938D-01  E=-1.904127D-01  Symmetry=a
              MO Center= -7.9D-02,  1.0D+00, -5.3D-13, r^2= 2.1D+00
   Bfn.  Coefficient  Atom+Function         Bfn.  Coefficient  Atom+Function  
  ----- ------------  ---------------      ----- ------------  ---------------
    32      0.394341  2 H  s                  9     -0.353420  1 O  py         
     6     -0.273849  1 O  py                33      0.273335  2 H  s          
    12     -0.208421  1 O  py                31      0.181189  2 H  s          

 Vector    7  Occ=2.646654D-02  E=-2.618407D-02  Symmetry=a
              MO Center=  5.1D-01, -4.2D-01, -4.6D-13, r^2= 6.0D-01
   Bfn.  Coefficient  Atom+Function         Bfn.  Coefficient  Atom+Function  
  ----- ------------  ---------------      ----- ------------  ---------------
    46      0.700895  3 H  s                  5     -0.479993  1 O  px         
     8     -0.419997  1 O  px                45      0.347651  3 H  s          
     2     -0.288647  1 O  s                  4     -0.254152  1 O  s          
     6      0.169002  1 O  py                 9      0.151341  1 O  py         

 Vector    8  Occ=1.483293D-02  E=-1.294779D-02  Symmetry=a
              MO Center=  4.9D-02, -2.5D-01, -8.0D-11, r^2= 1.2D+00
   Bfn.  Coefficient  Atom+Function         Bfn.  Coefficient  Atom+Function  
  ----- ------------  ---------------      ----- ------------  ---------------
    13      0.806118  1 O  pz                 7     -0.642207  1 O  pz         
    10     -0.273164  1 O  pz                53      0.168089  3 H  pz         

 Vector    9  Occ=0.000000D+00  E= 2.851541D-01  Symmetry=a
              MO Center=  1.1D+00, -6.6D-01,  3.2D-11, r^2= 3.7D+00
   Bfn.  Coefficient  Atom+Function         Bfn.  Coefficient  Atom+Function  
  ----- ------------  ---------------      ----- ------------  ---------------
    47      1.949166  3 H  s                  4     -1.243066  1 O  s          
    11     -0.552174  1 O  px                51     -0.413209  3 H  px         
    46     -0.267384  3 H  s                 52      0.170120  3 H  py         
    32     -0.157027  2 H  s                 12      0.155186  1 O  py         

 Vector   10  Occ=0.000000D+00  E= 4.031107D-01  Symmetry=a
              MO Center= -1.0D-01,  2.3D+00,  5.0D-13, r^2= 3.3D+00
   Bfn.  Coefficient  Atom+Function         Bfn.  Coefficient  Atom+Function  
  ----- ------------  ---------------      ----- ------------  ---------------
    33      1.722893  2 H  s                 32     -1.360881  2 H  s          
    47     -0.433564  3 H  s                 46      0.299514  3 H  s          
    12     -0.286446  1 O  py                 4     -0.158615  1 O  s          

 Vector   11  Occ=0.000000D+00  E= 6.242670D-01  Symmetry=a
              MO Center= -5.5D-01,  4.6D-01, -3.0D-12, r^2= 2.4D+00
   Bfn.  Coefficient  Atom+Function         Bfn.  Coefficient  Atom+Function  
  ----- ------------  ---------------      ----- ------------  ---------------
    46      2.737861  3 H  s                  4     -2.198181  1 O  s          
    11     -2.177232  1 O  px                51     -0.838276  3 H  px         
    12      0.748603  1 O  py                37     -0.384259  2 H  px         
    47      0.324745  3 H  s                 52      0.279906  3 H  py         
    23     -0.193484  1 O  d  2              33     -0.158007  2 H  s          

 Vector   12  Occ=0.000000D+00  E= 7.144455D-01  Symmetry=a
              MO Center= -6.2D-02,  1.1D+00, -1.3D-13, r^2= 2.4D+00
   Bfn.  Coefficient  Atom+Function         Bfn.  Coefficient  Atom+Function  
  ----- ------------  ---------------      ----- ------------  ---------------
    12      0.640254  1 O  py                38     -0.631662  2 H  py         
     4      0.523768  1 O  s                  9     -0.488405  1 O  py         
    11      0.390289  1 O  px                47     -0.255081  3 H  s          
    32     -0.226476  2 H  s                 46     -0.201369  3 H  s          
     2     -0.177077  1 O  s                  6     -0.160585  1 O  py         

 Vector   13  Occ=0.000000D+00  E= 7.779794D-01  Symmetry=a
              MO Center=  5.3D-03,  1.8D+00,  1.9D-12, r^2= 1.9D+00
   Bfn.  Coefficient  Atom+Function         Bfn.  Coefficient  Atom+Function  
  ----- ------------  ---------------      ----- ------------  ---------------
    39      0.969963  2 H  pz                53     -0.465820  3 H  pz         
    13      0.274267  1 O  pz         

 Vector   14  Occ=0.000000D+00  E= 8.260409D-01  Symmetry=a
              MO Center=  1.5D-03,  9.8D-01, -8.0D-13, r^2= 3.2D+00
   Bfn.  Coefficient  Atom+Function         Bfn.  Coefficient  Atom+Function  
  ----- ------------  ---------------      ----- ------------  ---------------
    46     -1.385742  3 H  s                  4      1.274054  1 O  s          
    11      1.170687  1 O  px                37     -0.787998  2 H  px         
    52     -0.737222  3 H  py                12     -0.325871  1 O  py         
    51      0.243072  3 H  px                47     -0.240944  3 H  s          
    38     -0.231731  2 H  py                33      0.186690  2 H  s          

 Vector   15  Occ=0.000000D+00  E= 8.520989D-01  Symmetry=a
              MO Center=  4.4D-01,  3.8D-01, -3.4D-13, r^2= 2.8D+00
   Bfn.  Coefficient  Atom+Function         Bfn.  Coefficient  Atom+Function  
  ----- ------------  ---------------      ----- ------------  ---------------
    52      0.744187  3 H  py                37     -0.575734  2 H  px         
     4     -0.397441  1 O  s                  9     -0.328696  1 O  py         
    47      0.282814  3 H  s                 38      0.265359  2 H  py         
     8     -0.262475  1 O  px                 2      0.216542  1 O  s          
    11      0.212974  1 O  px                12      0.193245  1 O  py         

 Vector   16  Occ=0.000000D+00  E= 9.046632D-01  Symmetry=a
              MO Center=  3.8D-01, -5.4D-02, -4.8D-12, r^2= 2.5D+00
   Bfn.  Coefficient  Atom+Function         Bfn.  Coefficient  Atom+Function  
  ----- ------------  ---------------      ----- ------------  ---------------
    53      1.161100  3 H  pz                13     -0.908935  1 O  pz         
    39      0.428800  2 H  pz         

 Vector   17  Occ=0.000000D+00  E= 9.781486D-01  Symmetry=a
              MO Center= -5.9D-02, -5.1D-01,  2.8D-11, r^2= 2.6D+00
   Bfn.  Coefficient  Atom+Function         Bfn.  Coefficient  Atom+Function  
  ----- ------------  ---------------      ----- ------------  ---------------
     4      2.932001  1 O  s                 46     -1.844942  3 H  s          
    12     -1.431579  1 O  py                51      1.127465  3 H  px         
    47     -0.828157  3 H  s                 11      0.734226  1 O  px         
     2     -0.693113  1 O  s                  8      0.550131  1 O  px         
    38     -0.478621  2 H  py                52      0.400922  3 H  py         

 Vector   18  Occ=0.000000D+00  E= 1.255597D+00  Symmetry=a
              MO Center= -7.1D-02,  7.3D-01,  3.6D-11, r^2= 2.3D+00
   Bfn.  Coefficient  Atom+Function         Bfn.  Coefficient  Atom+Function  
  ----- ------------  ---------------      ----- ------------  ---------------
     4      3.157320  1 O  s                 46     -1.743754  3 H  s          
     2     -0.902502  1 O  s                 11      0.890013  1 O  px         
    51      0.765662  3 H  px                38      0.710848  2 H  py         
    52     -0.697032  3 H  py                12      0.548304  1 O  py         
     8      0.516669  1 O  px                47     -0.486647  3 H  s          


 Wrote Lagrangian and 1- and 2-particle density matrices to ./H2O.mcpdm


     Multipole analysis of the density
     ---------------------------------

     L   x y z        total        nuclear
     -   - - -        -----        -------
     0   0 0 0     -0.000000     10.000000

     1   1 0 0      0.584449     -0.000000
     1   0 1 0     -0.148705      0.000000
     1   0 0 1      0.000000      0.000000

     2   2 0 0     -4.447466      2.679864
     2   1 1 0     -0.591560     -1.767554
     2   1 0 1     -0.000000      0.000000
     2   0 2 0     -4.226689     18.420467
     2   0 1 1     -0.000000      0.000000
     2   0 0 2     -5.933480      0.000000


  Mulliken analysis of the total density
  --------------------------------------

    Atom       Charge   Shell Charges
 -----------   ------   -------------------------------------------------------
    1 O    8     8.25   1.95  1.06  0.25  0.64  1.22  1.95  1.17  0.00  0.01  0.00
    2 H    1     0.99   0.17  0.48  0.34 -0.00  0.00 -0.00
    3 H    1     0.77   0.25  0.40  0.03  0.02  0.06  0.01

    Mulliken analysis of the active space density
    ---------------------------------------------

    Atom       Charge   Shell Charges
 -----------   ------   -------------------------------------------------------
    1 O    8     8.25   1.95  1.06  0.25  0.64  1.22  1.95  1.17  0.00  0.01  0.00
    2 H    1     0.99   0.17  0.48  0.34 -0.00  0.00 -0.00
    3 H    1     0.77   0.25  0.40  0.03  0.02  0.06  0.01

 Parallel integral file used      15 records with       0 large values


 Task  times  cpu:        3.7s     wall:        7.1s


                                NWChem Input Module
                                -------------------


                                 NWChem SCF Module
                                 -----------------


                                        H2O



  ao basis        = "ao basis"
  functions       =    58
  atoms           =     3
  closed shells   =     5
  open shells     =     0
  charge          =   0.00
  wavefunction    = RHF 
  input vectors   = ./h2o.mos
  output vectors  = ./h2o-trash.mos
  use symmetry    = F
  symmetry adapt  = F


 Summary of "ao basis" -> "ao basis" (spherical)
 ------------------------------------------------------------------------------
       Tag                 Description            Shells   Functions and Types
 ---------------- ------------------------------  ------  ---------------------
 O                          cc-pVTZ                 10       30   4s3p2d1f
 H                          cc-pVTZ                  6       14   3s2p1d



 Forming initial guess at       7.1s


 Loading old vectors from job with title :

H2O


 Starting SCF solution at       7.1s



 ----------------------------------------------
         Quadratically convergent ROHF

 Convergence threshold     :          1.000E-04
 Maximum no. of iterations :           30
 Final Fock-matrix accuracy:          1.000E-07
 ----------------------------------------------


 Integral file          = ./H2O.aoints.0
 Record size in doubles =  65536        No. of integs per rec  =  43688
 Max. records in memory =     49        Max. records in file   = 250687
 No. of bits per label  =      8        No. of bits per value  =     64


 #quartets = 3.154D+04 #integrals = 6.011D+05 #direct =  0.0% #cached =100.0%



       Final RHF  results 
       ------------------ 

         Total SCF energy =    -75.749560468387
      One-electron energy =   -117.179885750164
      Two-electron energy =     35.087631926564
 Nuclear repulsion energy =      6.342693355213

        Time for solution =      0.1s


             Final eigenvalues
             -----------------

              1      
    1  -20.6113
    2   -1.3067
    3   -0.6720
    4   -0.5487
    5   -0.3792
    6   -0.1904
    7   -0.0262
    8   -0.0129
    9    0.2852
   10    0.4031
   11    0.6243
   12    0.7144
   13    0.7780
   14    0.8260
   15    0.8521

                       ROHF Final Molecular Orbital Analysis
                       -------------------------------------

 Vector    2  Occ=2.000000D+00  E=-1.306698D+00
              MO Center= -2.6D-01, -1.4D-01,  5.8D-11, r^2= 4.2D-01
   Bfn.  Coefficient  Atom+Function         Bfn.  Coefficient  Atom+Function  
  ----- ------------  ---------------      ----- ------------  ---------------
     2      0.552439  1 O  s                  4      0.402446  1 O  s          
     3      0.154137  1 O  s          

 Vector    3  Occ=2.000000D+00  E=-6.719756D-01
              MO Center= -6.2D-02, -2.1D-01, -5.7D-11, r^2= 6.2D-01
   Bfn.  Coefficient  Atom+Function         Bfn.  Coefficient  Atom+Function  
  ----- ------------  ---------------      ----- ------------  ---------------
    10      0.448113  1 O  pz                13      0.378903  1 O  pz         
     7      0.369876  1 O  pz         

 Vector    4  Occ=2.000000D+00  E=-5.487432D-01
              MO Center=  3.3D-01, -3.5D-01, -1.6D-12, r^2= 5.8D-01
   Bfn.  Coefficient  Atom+Function         Bfn.  Coefficient  Atom+Function  
  ----- ------------  ---------------      ----- ------------  ---------------
     8      0.332140  1 O  px                46      0.282961  3 H  s          
     5      0.277095  1 O  px                45      0.188458  3 H  s          
    11      0.178981  1 O  px         

 Vector    5  Occ=2.000000D+00  E=-3.792115D-01
              MO Center= -6.9D-02,  9.1D-01, -2.5D-13, r^2= 2.0D+00
   Bfn.  Coefficient  Atom+Function         Bfn.  Coefficient  Atom+Function  
  ----- ------------  ---------------      ----- ------------  ---------------
    32      0.322651  2 H  s                  9      0.309040  1 O  py         
    33      0.266491  2 H  s                  6      0.241753  1 O  py         
    12      0.214603  1 O  py                31      0.156403  2 H  s          

 Vector    6  Occ=0.000000D+00  E=-1.904127D-01
              MO Center= -7.9D-02,  1.0D+00, -5.3D-13, r^2= 2.1D+00
   Bfn.  Coefficient  Atom+Function         Bfn.  Coefficient  Atom+Function  
  ----- ------------  ---------------      ----- ------------  ---------------
    32      0.394341  2 H  s                  9     -0.353420  1 O  py         
     6     -0.273849  1 O  py                33      0.273335  2 H  s          
    12     -0.208421  1 O  py                31      0.181189  2 H  s          

 Vector    7  Occ=0.000000D+00  E=-2.618407D-02
              MO Center=  5.1D-01, -4.2D-01, -4.6D-13, r^2= 6.0D-01
   Bfn.  Coefficient  Atom+Function         Bfn.  Coefficient  Atom+Function  
  ----- ------------  ---------------      ----- ------------  ---------------
    46      0.700895  3 H  s                  5     -0.479993  1 O  px         
     8     -0.419997  1 O  px                45      0.347651  3 H  s          
     2     -0.288647  1 O  s                  4     -0.254152  1 O  s          
     6      0.169002  1 O  py                 9      0.151341  1 O  py         

 Vector    8  Occ=0.000000D+00  E=-1.294779D-02
              MO Center=  4.9D-02, -2.5D-01, -8.0D-11, r^2= 1.2D+00
   Bfn.  Coefficient  Atom+Function         Bfn.  Coefficient  Atom+Function  
  ----- ------------  ---------------      ----- ------------  ---------------
    13      0.806118  1 O  pz                 7     -0.642207  1 O  pz         
    10     -0.273164  1 O  pz                53      0.168089  3 H  pz         

 Vector    9  Occ=0.000000D+00  E= 2.851541D-01
              MO Center=  1.1D+00, -6.6D-01,  3.2D-11, r^2= 3.7D+00
   Bfn.  Coefficient  Atom+Function         Bfn.  Coefficient  Atom+Function  
  ----- ------------  ---------------      ----- ------------  ---------------
    47      1.949166  3 H  s                  4     -1.243066  1 O  s          
    11     -0.552174  1 O  px                51     -0.413209  3 H  px         
    46     -0.267384  3 H  s                 52      0.170120  3 H  py         
    32     -0.157027  2 H  s                 12      0.155186  1 O  py         

 Vector   10  Occ=0.000000D+00  E= 4.031107D-01
              MO Center= -1.0D-01,  2.3D+00,  5.0D-13, r^2= 3.3D+00
   Bfn.  Coefficient  Atom+Function         Bfn.  Coefficient  Atom+Function  
  ----- ------------  ---------------      ----- ------------  ---------------
    33      1.722893  2 H  s                 32     -1.360881  2 H  s          
    47     -0.433564  3 H  s                 46      0.299514  3 H  s          
    12     -0.286446  1 O  py                 4     -0.158615  1 O  s          

 Vector   11  Occ=0.000000D+00  E= 6.242670D-01
              MO Center= -5.5D-01,  4.6D-01, -3.0D-12, r^2= 2.4D+00
   Bfn.  Coefficient  Atom+Function         Bfn.  Coefficient  Atom+Function  
  ----- ------------  ---------------      ----- ------------  ---------------
    46      2.737861  3 H  s                  4     -2.198181  1 O  s          
    11     -2.177232  1 O  px                51     -0.838276  3 H  px         
    12      0.748603  1 O  py                37     -0.384259  2 H  px         
    47      0.324745  3 H  s                 52      0.279906  3 H  py         
    23     -0.193484  1 O  d  2              33     -0.158007  2 H  s          

 Vector   12  Occ=0.000000D+00  E= 7.144455D-01
              MO Center= -6.2D-02,  1.1D+00, -1.3D-13, r^2= 2.4D+00
   Bfn.  Coefficient  Atom+Function         Bfn.  Coefficient  Atom+Function  
  ----- ------------  ---------------      ----- ------------  ---------------
    12      0.640254  1 O  py                38     -0.631662  2 H  py         
     4      0.523768  1 O  s                  9     -0.488405  1 O  py         
    11      0.390289  1 O  px                47     -0.255081  3 H  s          
    32     -0.226476  2 H  s                 46     -0.201369  3 H  s          
     2     -0.177077  1 O  s                  6     -0.160585  1 O  py         

 Vector   13  Occ=0.000000D+00  E= 7.779794D-01
              MO Center=  5.3D-03,  1.8D+00,  1.9D-12, r^2= 1.9D+00
   Bfn.  Coefficient  Atom+Function         Bfn.  Coefficient  Atom+Function  
  ----- ------------  ---------------      ----- ------------  ---------------
    39      0.969963  2 H  pz                53     -0.465820  3 H  pz         
    13      0.274267  1 O  pz         

 Vector   14  Occ=0.000000D+00  E= 8.260409D-01
              MO Center=  1.5D-03,  9.8D-01, -8.0D-13, r^2= 3.2D+00
   Bfn.  Coefficient  Atom+Function         Bfn.  Coefficient  Atom+Function  
  ----- ------------  ---------------      ----- ------------  ---------------
    46     -1.385742  3 H  s                  4      1.274054  1 O  s          
    11      1.170687  1 O  px                37     -0.787998  2 H  px         
    52     -0.737222  3 H  py                12     -0.325871  1 O  py         
    51      0.243072  3 H  px                47     -0.240944  3 H  s          
    38     -0.231731  2 H  py                33      0.186690  2 H  s          

 Vector   15  Occ=0.000000D+00  E= 8.520989D-01
              MO Center=  4.4D-01,  3.8D-01, -3.4D-13, r^2= 2.8D+00
   Bfn.  Coefficient  Atom+Function         Bfn.  Coefficient  Atom+Function  
  ----- ------------  ---------------      ----- ------------  ---------------
    52      0.744187  3 H  py                37     -0.575734  2 H  px         
     4     -0.397441  1 O  s                  9     -0.328696  1 O  py         
    47      0.282814  3 H  s                 38      0.265359  2 H  py         
     8     -0.262475  1 O  px                 2      0.216542  1 O  s          
    11      0.212974  1 O  px                12      0.193245  1 O  py         


 center of mass
 --------------
 x =  -0.07599894 y =  -0.16547868 z =   0.00000000

 moments of inertia (a.u.)
 ------------------
          19.191216464561           1.493603971792           0.000000000000
           1.493603971792           2.833002082974           0.000000000000
           0.000000000000           0.000000000000          22.024218547535

  Mulliken analysis of the total density
  --------------------------------------

    Atom       Charge   Shell Charges
 -----------   ------   -------------------------------------------------------
    1 O    8     8.28   1.95  1.06  0.25  0.64  1.20  1.95  1.22  0.00  0.01  0.00
    2 H    1     0.96   0.16  0.45  0.36 -0.00  0.00  0.00
    3 H    1     0.76   0.25  0.39  0.03  0.02  0.06  0.01

       Multipole analysis of the density wrt the origin
       ------------------------------------------------

     L   x y z        total         open         nuclear
     -   - - -        -----         ----         -------
     0   0 0 0     -0.000000      0.000000     10.000000

     1   1 0 0      0.585664      0.000000     -0.000000
     1   0 1 0     -0.026500      0.000000      0.000000
     1   0 0 1      0.000000      0.000000      0.000000

     2   2 0 0     -4.494865      0.000000      2.679864
     2   1 1 0     -0.685739      0.000000     -1.767554
     2   1 0 1     -0.000000      0.000000      0.000000
     2   0 2 0     -3.455967      0.000000     18.420467
     2   0 1 1     -0.000000      0.000000      0.000000
     2   0 0 2     -5.977005      0.000000      0.000000


 Parallel integral file used      14 records with       0 large values

 ------------------------------------
     Number of active orbitals      8
     Number of active alpha electrons      5
     Number of active beta electrons       5
 ------------------------------------
                   NWChem Extensible Many-Electron Theory Module
                   ---------------------------------------------

              ======================================================
                   This portion of the program was automatically
                  generated by a Tensor Contraction Engine (TCE).
                  The development of this portion of the program
                 and TCE was supported by US Department of Energy,
                Office of Science, Office of Basic Energy Science.
                      TCE is a product of Battelle and PNNL.
              Please cite: S.Hirata, J.Phys.Chem.A 107, 9887 (2003).
              ======================================================

                                        H2O


            General Information
            -------------------
      Number of processors :     1
         Wavefunction type : Restricted Hartree-Fock
          No. of electrons :    10
           Alpha electrons :     5
            Beta electrons :     5
           No. of orbitals :   116
            Alpha orbitals :    58
             Beta orbitals :    58
        Alpha frozen cores :     0
         Beta frozen cores :     0
     Alpha frozen virtuals :    50
      Beta frozen virtuals :    50
         Spin multiplicity : singlet 
    Number of AO functions :    58
       Number of AO shells :    22
        Use of symmetry is : off
      Symmetry adaption is : off
         Schwarz screening : 0.10D-09

          Correlation Information
          -----------------------
          Calculation type : Coupled-cluster singles & doubles                           
   Perturbative correction : none                                                        
            Max iterations :      300
        Residual threshold : 0.10D-06
     T(0) DIIS level shift : 0.00D+00
     L(0) DIIS level shift : 0.00D+00
     T(1) DIIS level shift : 0.00D+00
     L(1) DIIS level shift : 0.00D+00
     T(R) DIIS level shift : 0.00D+00
     T(I) DIIS level shift : 0.00D+00
   CC-T/L Amplitude update :  5-th order DIIS
                I/O scheme : Global Array Library
        L-threshold :  0.10D-06
        EOM-threshold :  0.10D-06
 no EOMCCSD initial starts read in
 TCE RESTART OPTIONS
 READ_INT:   F
 WRITE_INT:  F
 READ_TA:    F
 WRITE_TA:   F
 READ_XA:    F
 WRITE_XA:   F
 READ_IN3:   F
 WRITE_IN3:  F
 SLICE:      F
 D4D5:       F
 quantumc:   T
 qrotation:  F
 pwtce:      F
 qducc:      F
 nacto:                         0
 nrotv:                         0
 nrot:                          0

            Memory Information
            ------------------
          Available GA space size is    1610609372 doubles
          Available MA space size is    1610609772 doubles

 Maximum block size supplied by input
 Maximum block size         1 doubles

 tile_dim =      1

 Block   Spin    Irrep     Size     Offset   Alpha
 -------------------------------------------------
   1    alpha     a      1 doubles       0       1
   2    alpha     a      1 doubles       1       2
   3    alpha     a      1 doubles       2       3
   4    alpha     a      1 doubles       3       4
   5    alpha     a      1 doubles       4       5
   6    beta      a      1 doubles       5       1
   7    beta      a      1 doubles       6       2
   8    beta      a      1 doubles       7       3
   9    beta      a      1 doubles       8       4
  10    beta      a      1 doubles       9       5
  11    alpha     a      1 doubles      10      11
  12    alpha     a      1 doubles      11      12
  13    alpha     a      1 doubles      12      13
  14    beta      a      1 doubles      13      11
  15    beta      a      1 doubles      14      12
  16    beta      a      1 doubles      15      13

 Global array virtual files algorithm will be used

 Parallel file system coherency ......... OK

 Integral file          = ./H2O.aoints.0
 Record size in doubles =  65536        No. of integs per rec  =  43688
 Max. records in memory =     49        Max. records in file   = 250687
 No. of bits per label  =      8        No. of bits per value  =     64


 #quartets = 3.197D+04 #integrals = 6.450D+05 #direct =  0.0% #cached =100.0%


 Fock matrix recomputed
 1-e file size   =               64
 1-e file name   = ./H2O.f1
 Cpu & wall time / sec            0.1            0.1
 4-electron integrals stored in orbital form

 v2    file size   =              666
 4-index algorithm nr.  13 is used
 imaxsize =       30
 imaxsize ichop =        0
 begin_one_electron_integrals
    1    1       -32.6709924239
    2    1        -0.9496898515
    4    1         0.1370730041
    5    1        -0.0277645161
    6    1        -0.0393462282
    7    1        -0.2108218801
    1    2        -0.9496898515
    2    2        -7.6446788327
    4    2        -0.2624264692
    5    2         0.0984173307
    6    2         0.1571123505
    7    2         0.1252681668
    3    3        -6.8553746283
    8    3         2.1168953847
    1    4         0.1370730041
    2    4        -0.2624264692
    4    4        -6.6292241337
    5    4        -0.0468606214
    6    4        -0.0327317818
    7    4         1.9174988574
    1    5        -0.0277645161
    2    5         0.0984173307
    4    5        -0.0468606214
    5    5        -4.7896728565
    6    5         2.2932194025
    7    5         0.0152406080
    1    6        -0.0393462282
    2    6         0.1571123505
    4    6        -0.0327317818
    5    6         2.2932194025
    6    6        -4.7978369603
    7    6         0.0144397675
    1    7        -0.2108218801
    2    7         0.1252681668
    4    7         1.9174988574
    5    7         0.0152406080
    6    7         0.0144397675
    7    7        -5.8972533295
    3    8         2.1168953847
    8    8        -5.2281839829
 end_one_electron_integrals
 begin_two_electron_integrals
    1    1    1    1        4.8261232671
    2    1    1    1       -0.2341909003
    2    1    2    1        0.0308525948
    3    1    3    1        0.0284416051
    4    1    1    1       -0.0895947484
    4    1    2    1        0.0026139930
    4    1    4    1        0.0212660317
    4    1    2    2       -0.0140152579
    4    1    3    3       -0.0024952636
    5    1    1    1        0.0163753173
    5    1    2    1       -0.0017315828
    5    1    4    1        0.0001355380
    5    1    5    1        0.0142486862
    5    1    2    2        0.0006696611
    5    1    4    2        0.0004584282
    5    1    3    3        0.0013171853
    5    1    4    4        0.0013295636
    6    1    1    1        0.0253999899
    6    1    2    1       -0.0021532054
    6    1    4    1       -0.0002854959
    6    1    5    1       -0.0154202871
    6    1    6    1        0.0172983085
    6    1    2    2        0.0018307964
    6    1    4    2        0.0004192471
    6    1    5    2       -0.0144866156
    6    1    3    3        0.0016263444
    6    1    4    4        0.0016234897
    6    1    5    4       -0.0028036422
    6    1    5    5        0.0006387970
    7    1    1    1        0.1713136218
    7    1    2    1       -0.0079364106
    7    1    4    1       -0.0329516459
    7    1    5    1        0.0001663457
    7    1    6    1        0.0005583419
    7    1    7    1        0.0517396955
    7    1    2    2        0.0223397132
    7    1    4    2       -0.0259451654
    7    1    5    2       -0.0010174685
    7    1    6    2       -0.0013638602
    7    1    3    3        0.0037810563
    7    1    4    4       -0.0145546047
    7    1    5    4        0.0005477029
    7    1    6    4        0.0008548858
    7    1    5    5        0.0025146741
    7    1    6    5       -0.0015847742
    7    1    6    6        0.0026910388
    8    1    3    1       -0.0397606534
    8    1    8    1        0.0560280422
    8    1    3    2       -0.0387099948
    8    1    4    3       -0.0075321751
    8    1    5    3        0.0008947394
    8    1    6    3        0.0016649341
    8    1    7    3        0.0104537721
    2    2    1    1        1.0825002100
    2    2    2    1        0.0084101041
    2    2    2    2        0.8278955439
    3    2    3    1        0.0256081623
    3    2    3    2        0.1445778090
    4    2    1    1       -0.0056448398
    4    2    2    1       -0.0039941050
    4    2    4    1        0.0164248891
    4    2    2    2       -0.0571358988
    4    2    4    2        0.0910078584
    4    2    3    3        0.0107150290
    5    2    1    1       -0.0278476849
    5    2    2    1       -0.0004336925
    5    2    4    1        0.0007674702
    5    2    5    1        0.0127492289
    5    2    2    2       -0.0190003878
    5    2    4    2        0.0021384979
    5    2    5    2        0.0769866355
    5    2    3    3       -0.0141719330
    5    2    4    4       -0.0114313358
    6    2    1    1       -0.0301832185
    6    2    2    1       -0.0001506942
    6    2    4    1        0.0007596150
    6    2    5    1       -0.0135835198
    6    2    6    1        0.0151285643
    6    2    2    2       -0.0168314927
    6    2    4    2        0.0031124837
    6    2    5    2       -0.0745038012
    6    2    6    2        0.0757958180
    6    2    3    3       -0.0160415214
    6    2    4    4       -0.0110043625
    6    2    5    4       -0.0113510256
    6    2    5    5       -0.0135198240
    7    2    1    1       -0.0265841781
    7    2    2    1        0.0046699220
    7    2    4    1       -0.0160611468
    7    2    5    1       -0.0003340085
    7    2    6    1       -0.0007019520
    7    2    7    1        0.0238617435
    7    2    2    2        0.0287641281
    7    2    4    2       -0.0610505442
    7    2    5    2       -0.0004258184
    7    2    6    2       -0.0030734671
    7    2    7    2        0.0533401008
    7    2    3    3       -0.0195440370
    7    2    4    4       -0.0360387718
    7    2    5    4        0.0011829999
    7    2    6    4        0.0020581486
    7    2    5    5       -0.0097294143
    7    2    6    5        0.0126154686
    7    2    6    6       -0.0112724303
    8    2    3    1       -0.0207191961
    8    2    8    1        0.0274159996
    8    2    3    2       -0.0541245278
    8    2    8    2        0.0450283486
    8    2    4    3       -0.0029818012
    8    2    5    3        0.0016505848
    8    2    6    3        0.0031500582
    8    2    7    3        0.0115209655
    3    3    1    1        1.0501277704
    3    3    2    1        0.0063091833
    3    3    2    2        0.7421774816
    3    3    3    3        0.7616280496
    4    3    3    1        0.0051916554
    4    3    3    2        0.0231819253
    4    3    4    3        0.0365895566
    5    3    3    1       -0.0006570212
    5    3    3    2       -0.0030740124
    5    3    4    3        0.0000354068
    5    3    5    3        0.0193365721
    6    3    3    1       -0.0011653346
    6    3    3    2       -0.0051818484
    6    3    4    3       -0.0005071209
    6    3    5    3       -0.0190029935
    6    3    6    3        0.0196673287
    7    3    3    1       -0.0078677843
    7    3    3    2       -0.0223203631
    7    3    4    3       -0.0206799434
    7    3    5    3        0.0004737747
    7    3    6    3        0.0007243771
    7    3    7    3        0.0252733901
    8    3    1    1       -0.5371943860
    8    3    2    1       -0.0035250156
    8    3    4    1        0.0043223105
    8    3    5    1       -0.0010660185
    8    3    6    1       -0.0011363903
    8    3    7    1       -0.0075756649
    8    3    2    2       -0.2192643604
    8    3    4    2        0.0105539954
    8    3    5    2        0.0066031480
    8    3    6    2        0.0090485284
    8    3    7    2        0.0060638103
    8    3    3    3       -0.2124397058
    8    3    8    3        0.1660851891
    8    3    4    4       -0.1396430936
    8    3    5    4       -0.0024582476
    8    3    6    4       -0.0011794233
    8    3    7    4        0.1250916031
    8    3    5    5       -0.1008423167
    8    3    6    5        0.0974045870
    8    3    7    5        0.0013972564
    8    3    6    6       -0.1107027482
    8    3    7    6        0.0015961722
    8    3    7    7       -0.1645298857
    4    4    1    1        0.9085089671
    4    4    2    1        0.0031528856
    4    4    4    1        0.0084575475
    4    4    2    2        0.6365447381
    4    4    4    2        0.0804518527
    4    4    3    3        0.6383685382
    4    4    4    4        0.7745583247
    5    4    1    1        0.0100107761
    5    4    2    1        0.0001770815
    5    4    4    1       -0.0003553520
    5    4    5    1        0.0025613032
    5    4    2    2        0.0063206714
    5    4    4    2       -0.0014318878
    5    4    5    2        0.0102625309
    5    4    3    3        0.0051970504
    5    4    4    4        0.0048368624
    5    4    5    4        0.0183617612
    6    4    1    1        0.0065227785
    6    4    2    1        0.0002884690
    6    4    4    1       -0.0006280365
    6    4    5    1       -0.0027652673
    6    4    6    1        0.0030832453
    6    4    2    2        0.0062983434
    6    4    4    2       -0.0015143560
    6    4    5    2       -0.0127030406
    6    4    6    2        0.0122788698
    6    4    3    3        0.0038960363
    6    4    4    4        0.0050684052
    6    4    5    4       -0.0182237689
    6    4    6    4        0.0191639360
    6    4    5    5       -0.0026069865
    7    4    1    1       -0.4726415913
    7    4    2    1       -0.0012299656
    7    4    4    1       -0.0038135160
    7    4    5    1       -0.0010462864
    7    4    6    1       -0.0011394316
    7    4    7    1        0.0024134839
    7    4    2    2       -0.2125038376
    7    4    4    2        0.0150501166
    7    4    5    2        0.0055112688
    7    4    6    2        0.0081365513
    7    4    7    2        0.0162362103
    7    4    3    3       -0.1833013640
    7    4    4    4       -0.0951889676
    7    4    5    4       -0.0019473380
    7    4    6    4        0.0009505835
    7    4    7    4        0.2133763497
    7    4    5    5       -0.1031971090
    7    4    6    5        0.0900087541
    7    4    6    6       -0.1114318583
    8    4    3    1       -0.0022404365
    8    4    8    1        0.0020381903
    8    4    3    2        0.0071565639
    8    4    8    2        0.0029579084
    8    4    4    3       -0.0004010334
    8    4    5    3       -0.0001778764
    8    4    6    3        0.0000698903
    8    4    7    3        0.0152375107
    8    4    8    4        0.0195126067
    5    5    1    1        0.6500327717
    5    5    2    1        0.0032026747
    5    5    4    1       -0.0015146794
    5    5    5    1        0.0002500352
    5    5    2    2        0.4974656865
    5    5    4    2        0.0002529692
    5    5    5    2        0.0071279967
    5    5    3    3        0.4631882699
    5    5    4    4        0.4303044891
    5    5    5    4        0.0019624463
    5    5    5    5        0.4638892714
    6    5    1    1       -0.4367533666
    6    5    2    1       -0.0034167480
    6    5    4    1        0.0011911411
    6    5    5    1       -0.0008462921
    6    5    6    1       -0.0012549663
    6    5    2    2       -0.2673723449
    6    5    4    2       -0.0091812519
    6    5    5    2        0.0204939817
    6    5    6    2        0.0016259259
    6    5    3    3       -0.2440745025
    6    5    4    4       -0.2233034685
    6    5    5    4       -0.0041570584
    6    5    6    4       -0.0059030191
    6    5    5    5       -0.0516143877
    6    5    6    5        0.2438531989
    7    5    1    1       -0.0040328456
    7    5    2    1       -0.0001089935
    7    5    4    1        0.0003238929
    7    5    5    1       -0.0042974373
    7    5    6    1        0.0047664052
    7    5    7    1       -0.0005529579
    7    5    2    2       -0.0022801707
    7    5    4    2        0.0020245193
    7    5    5    2       -0.0144083393
    7    5    6    2        0.0149665591
    7    5    7    2       -0.0015277753
    7    5    3    3       -0.0010165778
    7    5    4    4        0.0002377149
    7    5    5    4       -0.0112326861
    7    5    6    4        0.0121304070
    7    5    7    4        0.0022845105
    7    5    5    5       -0.0023754477
    7    5    6    5       -0.0012194539
    7    5    7    5        0.0138911043
    7    5    6    6       -0.0032220876
    8    5    3    1        0.0005343607
    8    5    8    1       -0.0008090029
    8    5    3    2        0.0031927606
    8    5    8    2       -0.0008606051
    8    5    4    3        0.0002211432
    8    5    5    3       -0.0053829132
    8    5    6    3        0.0064756856
    8    5    7    3       -0.0001018740
    8    5    8    4        0.0005092651
    8    5    8    5        0.0091837545
    6    6    1    1        0.6815432285
    6    6    2    1        0.0035192274
    6    6    4    1       -0.0016247929
    6    6    5    1        0.0018094849
    6    6    6    1       -0.0008862858
    6    6    2    2        0.5016332144
    6    6    4    2        0.0017511402
    6    6    5    2        0.0105805672
    6    6    6    2       -0.0181989823
    6    6    3    3        0.4675130545
    6    6    4    4        0.4333879446
    6    6    5    4        0.0015194096
    6    6    6    4       -0.0024932067
    6    6    5    5        0.4758804671
    6    6    6    5       -0.0422783434
    6    6    6    6        0.4946754026
    7    6    1    1       -0.0046264412
    7    6    2    1       -0.0003808230
    7    6    4    1        0.0008594911
    7    6    5    1        0.0046922876
    7    6    6    1       -0.0051416784
    7    6    7    1       -0.0013261564
    7    6    2    2       -0.0057003071
    7    6    4    2        0.0044417645
    7    6    5    2        0.0155373968
    7    6    6    2       -0.0157411911
    7    6    7    2       -0.0026365441
    7    6    3    3       -0.0013532070
    7    6    4    4        0.0032029832
    7    6    5    4        0.0124694747
    7    6    6    4       -0.0134201445
    7    6    7    4        0.0037058753
    7    6    5    5       -0.0013554934
    7    6    6    5        0.0002424371
    7    6    7    5       -0.0145011564
    7    6    6    6       -0.0006972238
    7    6    7    6        0.0159595274
    8    6    3    1        0.0011780911
    8    6    8    1       -0.0017789675
    8    6    3    2        0.0056511590
    8    6    8    2       -0.0021429377
    8    6    4    3        0.0008653649
    8    6    5    3        0.0072959475
    8    6    6    3       -0.0082874120
    8    6    7    3       -0.0005570027
    8    6    8    4        0.0005289928
    8    6    8    5       -0.0082846054
    8    6    8    6        0.0092156860
    7    7    1    1        1.0487540692
    7    7    2    1        0.0007593932
    7    7    4    1        0.0082511972
    7    7    5    1        0.0018367549
    7    7    6    1        0.0021447065
    7    7    7    1       -0.0130955943
    7    7    2    2        0.6306250135
    7    7    4    2        0.0707118024
    7    7    5    2       -0.0117576114
    7    7    6    2       -0.0119624476
    7    7    7    2       -0.0349959438
    7    7    3    3        0.6356170906
    7    7    4    4        0.7574766924
    7    7    5    4        0.0052309029
    7    7    6    4        0.0057295930
    7    7    7    4       -0.0908055566
    7    7    5    5        0.4254727637
    7    7    6    5       -0.2267551870
    7    7    7    5        0.0003166205
    7    7    6    6        0.4312244909
    7    7    7    6        0.0036697206
    7    7    7    7        0.7979010607
    8    7    3    1        0.0072300401
    8    7    8    1       -0.0101475294
    8    7    3    2        0.0243145217
    8    7    8    2       -0.0062209692
    8    7    4    3        0.0275435850
    8    7    5    3       -0.0000657265
    8    7    6    3       -0.0005633349
    8    7    7    3       -0.0166643102
    8    7    8    4       -0.0010314927
    8    7    8    5        0.0004820214
    8    7    8    6        0.0011121703
    8    7    8    7        0.0299344935
    8    8    1    1        1.0435132861
    8    8    2    1        0.0024149370
    8    8    4    1       -0.0049656242
    8    8    5    1        0.0016303687
    8    8    6    1        0.0017212903
    8    8    7    1        0.0076609544
    8    8    2    2        0.6366035968
    8    8    4    2        0.0113477613
    8    8    5    2       -0.0111715876
    8    8    6    2       -0.0132290947
    8    8    7    2       -0.0134617982
    8    8    3    3        0.6570326730
    8    8    8    3       -0.1828962452
    8    8    4    4        0.5755668682
    8    8    5    4        0.0046162416
    8    8    6    4        0.0036496401
    8    8    7    4       -0.1439923480
    8    8    5    5        0.4160779351
    8    8    6    5       -0.2050367022
    8    8    7    5       -0.0009095097
    8    8    6    6        0.4198341216
    8    8    7    6       -0.0005682480
    8    8    7    7        0.5910001740
    8    8    8    8        0.6113475946
 end_two_electron_integrals
 enrep_tce =    6.3426933552129334     
  EHF(A)             =       -75.74956047
  EHF(total)         =       -75.74956047
  Shift (HFtot-HFA)  =         0.00000000
 Cpu & wall time / sec            0.9            1.0
 T1-number-of-tasks                   15

 t1 file size   =               15
 t1 file name   = ./H2O.t1
 t1 file handle =       -998
 T2-number-of-boxes                  315

 t2 file size   =              315
 t2 file name   = ./H2O.t2
 t2 file handle =       -996
CCSD iterations
 ---------------------------------------------------------
 Iter          Residuum       Correlation     Cpu    Wall 
 ---------------------------------------------------------
NEW TASK SCHEDULING
CCSD_T1_NTS --- OK
CCSD_T2_NTS --- OK
    1   0.7522356275816  -0.3627531226146     1.8     2.7
    2   1.3296684704870   0.0993977936805     2.0     2.7
    3   2.2594391170909  -0.7025051517679     2.2     3.1
    4   3.7729601095052   0.8369500660633     1.9     3.0
    5   3.6075625924401   0.0629715917465     1.8     2.9
 MICROCYCLE DIIS UPDATE:                    5                    5
    6   0.0342471709370  -0.2204779308687     2.2     3.0
    7   0.0507456234893  -0.2165168081533     1.8     2.7
    8   0.1054049315071  -0.2356907114802     1.7     2.7
    9   0.2393360005876  -0.1883918261504     2.0     2.7
   10   0.5898856949518  -0.2521413457216     1.9     2.7
 MICROCYCLE DIIS UPDATE:                   10                    5
   11   0.0040957767750  -0.2236262500287     2.0     2.8
   12   0.0068265502366  -0.2242000045314     2.3     3.3
   13   0.0167972238888  -0.2229760076669     2.2     3.1
   14   0.0431604392944  -0.2252265509902     1.8     2.7
   15   0.1119485155680  -0.2209989834863     1.8     2.7
 MICROCYCLE DIIS UPDATE:                   15                    5
   16   0.0004038115968  -0.2237737787882     1.9     2.7
   17   0.0003742827054  -0.2237438116628     2.1     2.7
   18   0.0005646871476  -0.2238471872292     1.9     2.8
   19   0.0010990535007  -0.2236408462300     1.8     2.7
   20   0.0023650909732  -0.2240442005582     1.8     2.7
 MICROCYCLE DIIS UPDATE:                   20                    5
   21   0.0000662921241  -0.2237779192029     1.8     2.7
   22   0.0000753882588  -0.2237886122941     2.0     2.7
   23   0.0001594204420  -0.2237648183289     1.9     2.7
   24   0.0003803411827  -0.2238092427883     1.8     2.7
   25   0.0009494458138  -0.2237256983912     1.8     2.8
 MICROCYCLE DIIS UPDATE:                   25                    5
   26   0.0000081657978  -0.2237804775138     2.0     2.7
   27   0.0000074790311  -0.2237798340331     1.7     2.7
   28   0.0000113090976  -0.2237818968805     1.9     2.7
   29   0.0000225905540  -0.2237777376060     2.0     2.7
   30   0.0000500567973  -0.2237859749313     1.7     2.7
 MICROCYCLE DIIS UPDATE:                   30                    5
   31   0.0000014655095  -0.2237804835330     2.0     2.7
   32   0.0000017123734  -0.2237807560294     1.9     2.7
   33   0.0000036504061  -0.2237801900895     2.0     2.8
   34   0.0000086856250  -0.2237812649261     1.8     2.7
   35   0.0000215918397  -0.2237792044551     1.7     2.6
 MICROCYCLE DIIS UPDATE:                   35                    5
   36   0.0000001856604  -0.2237805640102     2.0     2.7
   37   0.0000001589776  -0.2237805511844     1.9     2.7
   38   0.0000002314164  -0.2237805918683     1.8     2.7
   39   0.0000004747782  -0.2237805085687     1.9     2.7
   40   0.0000010921386  -0.2237806764433     2.0     2.9
 MICROCYCLE DIIS UPDATE:                   40                    5
   41   0.0000000350536  -0.2237805629132     2.1     2.7
 -----------------------------------------------------------------
 Iterations converged
 CCSD correlation energy / hartree =        -0.223780562913235
 CCSD total energy / hartree       =       -75.973341031299796

 Singles contributions

 Doubles contributions
     6a   (alpha)     6a   (beta ) ---     5a   (alpha)     5a   (beta )       -0.6630120732
     6a   (alpha)     7a   (beta ) ---     4a   (alpha)     5a   (beta )       -0.0218833435
     6a   (alpha)     7a   (beta ) ---     5a   (alpha)     4a   (beta )       -0.0231022198
     7a   (alpha)     8a   (alpha) ---     3a   (alpha)     4a   (alpha)        0.0328874295
     7a   (alpha)     6a   (beta ) ---     4a   (alpha)     5a   (beta )       -0.0231022198
     7a   (alpha)     6a   (beta ) ---     5a   (alpha)     4a   (beta )       -0.0218833435
     7a   (alpha)     7a   (beta ) ---     4a   (alpha)     4a   (beta )       -0.0930034989
     7a   (alpha)     8a   (beta ) ---     4a   (alpha)     3a   (beta )       -0.0423019680
     8a   (alpha)     7a   (beta ) ---     3a   (alpha)     4a   (beta )       -0.0423019680
     8a   (alpha)     8a   (beta ) ---     3a   (alpha)     3a   (beta )       -0.0589660901
 Ground state specification:
 exp(T)|Ref>~(1+T)|Ref>
 ------- a(p)+/a(q) strings ----------

 singles norm

 doubles norm

 Reference string
  0.83345343763526469      :(1a)+ (2a)+ (3a)+ (4a)+ (5a)+ (1b)+ (2b)+ (3b)+ (4b)+ (5b)+ |0>

 Singles strings

 Doubles strings
 -0.55258969162839056      :(6a)+ (6b)+ (5b)  (5a)  (1a)+ (2a)+ (3a)+ (4a)+ (5a)+ (1b)+ (2b)+ (3b)+ (4b)+ (5b)+ |0>
 -------------------------------------

 Parallel integral file used      15 records with       0 large values


 Task  times  cpu:       80.2s     wall:      115.6s


                                NWChem Input Module
                                -------------------


 Summary of allocated global arrays
-----------------------------------
  No active global arrays


MA_summarize_allocated_blocks: starting scan ...
MA_summarize_allocated_blocks: scan completed: 0 heap blocks, 0 stack blocks
MA usage statistics:

	allocation statistics:
					      heap	     stack
					      ----	     -----
	current number of blocks	         0	         0
	maximum number of blocks	        18	        42
	current total bytes		         0	         0
	maximum total bytes		  25775960	  38234456
	maximum total K-bytes		     25776	     38235
	maximum total M-bytes		        26	        39


                                     CITATION
                                     --------
                Please cite the following reference when publishing
                           results obtained with NWChem:

          E. Apra, E. J. Bylaska, W. A. de Jong, N. Govind, K. Kowalski,
       T. P. Straatsma, M. Valiev, H. J. J. van Dam, Y. Alexeev, J. Anchell,
       V. Anisimov, F. W. Aquino, R. Atta-Fynn, J. Autschbach, N. P. Bauman,
     J. C. Becca, D. E. Bernholdt, K. Bhaskaran-Nair, S. Bogatko, P. Borowski,
         J. Boschen, J. Brabec, A. Bruner, E. Cauet, Y. Chen, G. N. Chuev,
      C. J. Cramer, J. Daily, M. J. O. Deegan, T. H. Dunning Jr., M. Dupuis,
   K. G. Dyall, G. I. Fann, S. A. Fischer, A. Fonari, H. Fruchtl, L. Gagliardi,
      J. Garza, N. Gawande, S. Ghosh, K. Glaesemann, A. W. Gotz, J. Hammond,
       V. Helms, E. D. Hermes, K. Hirao, S. Hirata, M. Jacquelin, L. Jensen,
   B. G. Johnson, H. Jonsson, R. A. Kendall, M. Klemm, R. Kobayashi, V. Konkov,
      S. Krishnamoorthy, M. Krishnan, Z. Lin, R. D. Lins, R. J. Littlefield,
      A. J. Logsdail, K. Lopata, W. Ma, A. V. Marenich, J. Martin del Campo,
   D. Mejia-Rodriguez, J. E. Moore, J. M. Mullin, T. Nakajima, D. R. Nascimento,
    J. A. Nichols, P. J. Nichols, J. Nieplocha, A. Otero-de-la-Roza, B. Palmer,
    A. Panyala, T. Pirojsirikul, B. Peng, R. Peverati, J. Pittner, L. Pollack,
   R. M. Richard, P. Sadayappan, G. C. Schatz, W. A. Shelton, D. W. Silverstein,
   D. M. A. Smith, T. A. Soares, D. Song, M. Swart, H. L. Taylor, G. S. Thomas,
            V. Tipparaju, D. G. Truhlar, K. Tsemekhman, T. Van Voorhis,
      A. Vazquez-Mayagoitia, P. Verma, O. Villa, A. Vishnu, K. D. Vogiatzis,
        D. Wang, J. H. Weare, M. J. Williamson, T. L. Windus, K. Wolinski,
        A. T. Wong, Q. Wu, C. Yang, Q. Yu, M. Zacharias, Z. Zhang, Y. Zhao,
                                and R. J. Harrison
                        "NWChem: Past, present, and future
                         J. Chem. Phys. 152, 184102 (2020)
                               doi:10.1063/5.0004997

                                      AUTHORS
                                      -------
  E. Apra, E. J. Bylaska, N. Govind, K. Kowalski, M. Valiev, D. Mejia-Rodriguez,
       A. Kunitsa, N. P. Bauman, A. Panyala, W. A. de Jong, T. P. Straatsma,
        H. J. J. van Dam, D. Wang, T. L. Windus, J. Hammond, J. Autschbach,
    K. Bhaskaran-Nair, J. Brabec, K. Lopata, S. A. Fischer, S. Krishnamoorthy,
     M. Jacquelin, W. Ma, M. Klemm, O. Villa, Y. Chen, V. Anisimov, F. Aquino,
    S. Hirata, M. T. Hackler, Eric Hermes, L. Jensen, J. E. Moore, J. C. Becca,
      V. Konjkov, T. Risthaus, M. Malagoli, A. Marenich, A. Otero-de-la-Roza,
        J. Mullin, P. Nichols, R. Peverati, J. Pittner, Y. Zhao, P.-D. Fan,
        A. Fonari, M. J. Williamson, R. J. Harrison, J. R. Rehr, M. Dupuis,
     D. Silverstein, D. M. A. Smith, J. Nieplocha, V. Tipparaju, M. Krishnan,
     B. E. Van Kuiken, A. Vazquez-Mayagoitia, M. Swart, Q. Wu, T. Van Voorhis,
     A. A. Auer, M. Nooijen, L. D. Crosby, E. Brown, G. Cisneros, G. I. Fann,
   H. Fruchtl, J. Garza, K. Hirao, R. A. Kendall, J. A. Nichols, K. Tsemekhman,
    K. Wolinski, J. Anchell, D. E. Bernholdt, P. Borowski, T. Clark, D. Clerc,
   H. Dachsel, M. J. O. Deegan, K. Dyall, D. Elwood, E. Glendening, M. Gutowski,
   A. C. Hess, J. Jaffe, B. G. Johnson, J. Ju, R. Kobayashi, R. Kutteh, Z. Lin,
   R. Littlefield, X. Long, B. Meng, T. Nakajima, S. Niu, L. Pollack, M. Rosing,
   K. Glaesemann, G. Sandrone, M. Stave, H. Taylor, G. Thomas, J. H. van Lenthe,
                               A. T. Wong, Z. Zhang.

 Total times  cpu:       83.9s     wall:      122.7s
