 argument  1 = input.nw
  NWChem w/ OpenMP: maximum threads =    1



============================== echo of input deck ==============================
 echo
 start H2O
 title "H2O"

 memory total 24 gb

 geometry units bohr
 symmetry c1
        O  0.00000000  0.00000000  0.00000000
        H  0.00000000  4.7376665  0.00000000
        H  1.72558000 -0.64860000  0.00000000
 end

 basis spherical
   * library cc-pVTZ
 end

 mcscf
   active  8
   actelec 10
   multiplicity 1
   maxiter 40
   vectors input h2o.mos
   vectors output h2o.mos
 end

 task mcscf

 scf
   vectors input h2o.mos
   vectors output h2o-trash.mos
   noscf
 end

 tce
   2eorb
   2emet 13
   ccsd
   maxiter 300
 end

 set tce:print_integrals T
 set tce:qorb 8
 set tce:qela 5
 set tce:qelb 5

# set tce:qducc T
# set tce:nactv 3
# set tce:nonhf T
# set tce:ducc_model 6

 set tce:printtol 0.02

 task tce
================================================================================


                                         
                                         


             Northwest Computational Chemistry Package (NWChem) 7.0.1
             --------------------------------------------------------


                    Environmental Molecular Sciences Laboratory
                       Pacific Northwest National Laboratory
                                Richland, WA 99352

                              Copyright (c) 1994-2020
                       Pacific Northwest National Laboratory
                            Battelle Memorial Institute

             NWChem is an open-source computational chemistry package
                        distributed under the terms of the
                      Educational Community License (ECL) 2.0
             A copy of the license is included with this distribution
                              in the LICENSE.TXT file

                                  ACKNOWLEDGMENT
                                  --------------

            This software and its documentation were developed at the
            EMSL at Pacific Northwest National Laboratory, a multiprogram
            national laboratory, operated for the U.S. Department of Energy
            by Battelle under Contract Number DE-AC05-76RL01830. Support
            for this work was provided by the Department of Energy Office
            of Biological and Environmental Research, Office of Basic
            Energy Sciences, and the Office of Advanced Scientific Computing.


           Job information
           ---------------

    hostname        = WE46210
    program         = /home/baum612/code/nwchem/bin/LINUX64/nwchem
    date            = Thu May  2 13:26:16 2024

    compiled        = Tue_Apr_30_12:43:26_2024
    source          = /home/baum612/code/nwchem
    nwchem branch   = 7.0.0
    nwchem revision = nwchem_on_git-4191-g39d87d64de
    ga revision     = 5.8.1
    use scalapack   = F
    input           = input.nw
    prefix          = H2O.
    data base       = ./H2O.db
    status          = startup
    nproc           =        1
    time left       =     -1s



           Memory information
           ------------------

    heap     =  805306362 doubles =   6144.0 Mbytes
    stack    =  805306367 doubles =   6144.0 Mbytes
    global   = 1610612736 doubles =  12288.0 Mbytes (distinct from heap & stack)
    total    = 3221225465 doubles =  24576.0 Mbytes
    verify   = yes
    hardfail = no 


           Directory information
           ---------------------

  0 permanent = .
  0 scratch   = .




                                NWChem Input Module
                                -------------------


                                        H2O
                                        ---
 Turning off AUTOSYM since
 SYMMETRY directive was detected!


          ------
          auto-z
          ------
  autoz: The atoms group into disjoint clusters
 cluster   1:    1    3
 cluster   2:    2
 Connecting clusters   1   2 via atoms    1    2 r = 2.51
  autoz: regenerating connections with new bonds
  no constraints, skipping    0.0000000000000000     
  no constraints, skipping    0.0000000000000000     


                             Geometry "geometry" -> ""
                             -------------------------

 Output coordinates in a.u. (scale by  1.000000000 to convert to a.u.)

  No.       Tag          Charge          X              Y              Z
 ---- ---------------- ---------- -------------- -------------- --------------
    1 O                    8.0000    -0.17255800    -0.40890665     0.00000000
    2 H                    1.0000    -0.17255800     4.32875985     0.00000000
    3 H                    1.0000     1.55302200    -1.05750665     0.00000000

      Atomic Mass 
      ----------- 

      O                 15.994910
      H                  1.007825


 Effective nuclear repulsion energy (a.u.)       6.2050896498

            Nuclear Dipole moment (a.u.) 
            ----------------------------
        X                 Y               Z
 ---------------- ---------------- ----------------
    -0.0000000000    -0.0000000000     0.0000000000



                                Z-matrix (autoz)
                                -------- 

 Units are Angstrom for bonds and degrees for angles

      Type          Name      I     J     K     L     M      Value
      ----------- --------  ----- ----- ----- ----- ----- ----------
    1 Stretch                  1     2                       2.50707
    2 Stretch                  1     3                       0.97551
    3 Bend                     2     1     3               110.59992


            XYZ format geometry
            -------------------
     3
 geometry
 O                    -0.09131377    -0.21638410     0.00000000
 H                    -0.09131377     2.29068123     0.00000000
 H                     0.82182391    -0.55960846     0.00000000

 ==============================================================================
                                internuclear distances
 ------------------------------------------------------------------------------
       center one      |      center two      | atomic units |       a.u.
 ------------------------------------------------------------------------------
    3 H                |   1 O                |     1.84345  |     1.84345
 ------------------------------------------------------------------------------
                         number of included internuclear distances:          1
 ==============================================================================





 Summary of "ao basis" -> "" (spherical)
 ------------------------------------------------------------------------------
       Tag                 Description            Shells   Functions and Types
 ---------------- ------------------------------  ------  ---------------------
 *                          cc-pVTZ                   on all atoms 


                      Basis "ao basis" -> "ao basis" (spherical)
                      -----
  O (Oxygen)
  ----------
            Exponent  Coefficients 
       -------------- ---------------------------------------------------------
  1 S  1.53300000E+04  0.000508
  1 S  2.29900000E+03  0.003929
  1 S  5.22400000E+02  0.020243
  1 S  1.47300000E+02  0.079181
  1 S  4.75500000E+01  0.230687
  1 S  1.67600000E+01  0.433118
  1 S  6.20700000E+00  0.350260
  1 S  6.88200000E-01 -0.008154

  2 S  1.53300000E+04 -0.000115
  2 S  2.29900000E+03 -0.000895
  2 S  5.22400000E+02 -0.004636
  2 S  1.47300000E+02 -0.018724
  2 S  4.75500000E+01 -0.058463
  2 S  1.67600000E+01 -0.136463
  2 S  6.20700000E+00 -0.175740
  2 S  6.88200000E-01  0.603418

  3 S  1.75200000E+00  1.000000

  4 S  2.38400000E-01  1.000000

  5 P  3.44600000E+01  0.015928
  5 P  7.74900000E+00  0.099740
  5 P  2.28000000E+00  0.310492

  6 P  7.15600000E-01  1.000000

  7 P  2.14000000E-01  1.000000

  8 D  2.31400000E+00  1.000000

  9 D  6.45000000E-01  1.000000

 10 F  1.42800000E+00  1.000000

  H (Hydrogen)
  ------------
            Exponent  Coefficients 
       -------------- ---------------------------------------------------------
  1 S  3.38700000E+01  0.006068
  1 S  5.09500000E+00  0.045308
  1 S  1.15900000E+00  0.202822

  2 S  3.25800000E-01  1.000000

  3 S  1.02700000E-01  1.000000

  4 P  1.40700000E+00  1.000000

  5 P  3.88000000E-01  1.000000

  6 D  1.05700000E+00  1.000000



 Summary of "ao basis" -> "ao basis" (spherical)
 ------------------------------------------------------------------------------
       Tag                 Description            Shells   Functions and Types
 ---------------- ------------------------------  ------  ---------------------
 O                          cc-pVTZ                 10       30   4s3p2d1f
 H                          cc-pVTZ                  6       14   3s2p1d



                            NWChem Direct MCSCF Module
                            --------------------------


                                        H2O


     -----------------------------------
       Basis functions:             58
       Inactive shells:              0
       Active shells:                8
       Active electrons:            10
       Symmetry:                    a       
       Multiplicity:                 1
       Orbital rotations:          400
     -----------------------------------

     -----------------------------------
       E2 extrapolation:             F
       Conjugacy:                    T
       Micro CI relax:               T
       Canonical orbitals:           T
       Maximum iterations:          40
       Converge threshold:    1.00E-04
       Conjugacy resets:            20
       Initial levelshift:        0.10
     -----------------------------------

 Loading old vectors from job with title :

H2O


   input molecular orbitals = ./h2o.mos
  output molecular orbtials = ./h2o.mos

       No. of determinants:          3136


  Starting Orbital Energies
   -20.611524    -1.307306    -0.672589    -0.549570    -0.362356    -0.208192
    -0.026148    -0.012856     0.281119     0.410394     0.630022     0.691184
     0.782047     0.818975     0.844365     0.896635     0.983699     1.208473
     1.345760     1.713144     1.730926     2.029697     2.032831     2.147214
     2.556361     2.747137     3.450697     3.459212     3.459298     3.465606
     3.469442     3.483141     3.491489     3.526614     3.742519     3.876991
     3.901501     3.925073     3.943571     4.013602     4.148241     4.393333
     4.444515     4.720924     5.124609     5.537027     5.539060     5.793772
     5.795538     6.700417     6.714684     6.804733     6.831546     6.873748
     7.027259     7.055445     7.503495    10.790667

  Orbital Symmetry Irreps
a    a    a    a    a    a    a    a    a    a    a    a    a    a    a   
a    a    a    a    a    a    a    a    a    a    a    a    a    a    a   
a    a    a    a    a    a    a    a    a    a    a    a    a    a    a   
a    a    a    a    a    a    a    a    a    a    a    a    a   

 Integral file          = ./H2O.aoints.0
 Record size in doubles =  65536        No. of integs per rec  =  43688
 Max. records in memory =     49        Max. records in file   = 250649
 No. of bits per label  =      8        No. of bits per value  =     64


 #quartets = 3.148D+04 #integrals = 5.821D+05 #direct =  0.0% #cached =100.0%




          %%%%% MacroIteration   1 %%%%%


          Number of sigma calls:       23
                       o<<<<< (aa):             0.00
                       o<<<<< (bb):             0.00
                       o<<<<< (ab):             0.03
                       o<<<<< (total)           0.03
                       o<<<<< (aa) ff           0.00
                       o<<<<< (aa) gop          0.00
                       o<<<<< (aa) dot          0.00
                       o<<<<< (ab) str          0.00
                       o<<<<< (ab) gath         0.00
                       o<<<<< (ab) dotab        0.00
                       o<<<<< (ab) scat         0.00
                       o<<<<< (ab) sync         0.00
                       o<<<<< Density           0.01
                       o<<<<< Density one       0.00
                       o<<<<< Density two       0.00
                       o<<<<< Density ab        0.01
                       o<<<<< Spin adapt        0.23
                       o<<<<< Symm adapt        0.00

                       o<<<<< (ab) max sync:      0.00

           >>>| Valence CI:            -82.176024105181
           >>>| MCSCF energy:          -75.970934455430
           >>>| Gradient norm:          0.122790290D-02
     --- Warning:    2 Hessian diagonals < 0.05 ---

                              ----- Line search ------

        step       energy         lsg     num-lsg   num-lsh   lsrat    time
      ------- ---------------- --------- --------- --------- ------- --------
       0.0000     -75.97093446 -3.92D-07  0.00D+00  0.00D+00 0.0D+00      0.8

          Number of sigma calls:       21
                       o<<<<< (aa):             0.00
                       o<<<<< (bb):             0.00
                       o<<<<< (ab):             0.05
                       o<<<<< (total)           0.05
                       o<<<<< (aa) ff           0.00
                       o<<<<< (aa) gop          0.00
                       o<<<<< (aa) dot          0.00
                       o<<<<< (ab) str          0.00
                       o<<<<< (ab) gath         0.00
                       o<<<<< (ab) dotab        0.00
                       o<<<<< (ab) scat         0.00
                       o<<<<< (ab) sync         0.00
                       o<<<<< Density           0.01
                       o<<<<< Density one       0.00
                       o<<<<< Density two       0.00
                       o<<<<< Density ab        0.01
                       o<<<<< Spin adapt        0.33
                       o<<<<< Symm adapt        0.00

                       o<<<<< (ab) max sync:      0.00
       1.0000     -75.97093468 -4.99D-08 -5.00D-08  3.42D-07 1.3D-01      1.3

          Number of sigma calls:       16
                       o<<<<< (aa):             0.00
                       o<<<<< (bb):             0.00
                       o<<<<< (ab):             0.04
                       o<<<<< (total)           0.04
                       o<<<<< (aa) ff           0.00
                       o<<<<< (aa) gop          0.00
                       o<<<<< (aa) dot          0.00
                       o<<<<< (ab) str          0.00
                       o<<<<< (ab) gath         0.00
                       o<<<<< (ab) dotab        0.00
                       o<<<<< (ab) scat         0.00
                       o<<<<< (ab) sync         0.00
                       o<<<<< Density           0.01
                       o<<<<< Density one       0.00
                       o<<<<< Density two       0.00
                       o<<<<< Density ab        0.01
                       o<<<<< Spin adapt        0.33
                       o<<<<< Symm adapt        0.00

                       o<<<<< (ab) max sync:      0.00
       1.1461     -75.97093468  1.94D-11  2.08D-11  3.42D-07 5.0D-05      1.8
     --- Orbitals canonicalized ---



          %%%%% MacroIteration   2 %%%%%


          Number of sigma calls:       22
                       o<<<<< (aa):             0.00
                       o<<<<< (bb):             0.00
                       o<<<<< (ab):             0.05
                       o<<<<< (total)           0.06
                       o<<<<< (aa) ff           0.00
                       o<<<<< (aa) gop          0.00
                       o<<<<< (aa) dot          0.00
                       o<<<<< (ab) str          0.00
                       o<<<<< (ab) gath         0.00
                       o<<<<< (ab) dotab        0.00
                       o<<<<< (ab) scat         0.00
                       o<<<<< (ab) sync         0.00
                       o<<<<< Density           0.00
                       o<<<<< Density one       0.00
                       o<<<<< Density two       0.00
                       o<<<<< Density ab        0.00
                       o<<<<< Spin adapt        0.38
                       o<<<<< Symm adapt        0.00

                       o<<<<< (ab) max sync:      0.00

           >>>| Valence CI:            -82.176024329692
           >>>| MCSCF energy:          -75.970934679942
           >>>| Gradient norm:          0.152385828D-03
     --- Warning:    4 Hessian diagonals < 0.05 ---
     --- Conjugacy reset ---

                              ----- Line search ------

        step       energy         lsg     num-lsg   num-lsh   lsrat    time
      ------- ---------------- --------- --------- --------- ------- --------
       0.0000     -75.97093468 -7.35D-09  0.00D+00  0.00D+00 0.0D+00      2.4

          Number of sigma calls:       13
                       o<<<<< (aa):             0.00
                       o<<<<< (bb):             0.00
                       o<<<<< (ab):             0.04
                       o<<<<< (total)           0.05
                       o<<<<< (aa) ff           0.00
                       o<<<<< (aa) gop          0.00
                       o<<<<< (aa) dot          0.00
                       o<<<<< (ab) str          0.00
                       o<<<<< (ab) gath         0.00
                       o<<<<< (ab) dotab        0.00
                       o<<<<< (ab) scat         0.00
                       o<<<<< (ab) sync         0.00
                       o<<<<< Density           0.01
                       o<<<<< Density one       0.00
                       o<<<<< Density two       0.00
                       o<<<<< Density ab        0.01
                       o<<<<< Spin adapt        0.23
                       o<<<<< Symm adapt        0.00

                       o<<<<< (ab) max sync:      0.00
       1.0000     -75.97093468 -1.19D-09 -1.19D-09  6.16D-09 1.6D-01      2.8

          Number of sigma calls:       11
                       o<<<<< (aa):             0.00
                       o<<<<< (bb):             0.00
                       o<<<<< (ab):             0.04
                       o<<<<< (total)           0.04
                       o<<<<< (aa) ff           0.00
                       o<<<<< (aa) gop          0.00
                       o<<<<< (aa) dot          0.00
                       o<<<<< (ab) str          0.00
                       o<<<<< (ab) gath         0.00
                       o<<<<< (ab) dotab        0.00
                       o<<<<< (ab) scat         0.00
                       o<<<<< (ab) sync         0.00
                       o<<<<< Density           0.01
                       o<<<<< Density one       0.00
                       o<<<<< Density two       0.00
                       o<<<<< Density ab        0.01
                       o<<<<< Spin adapt        0.16
                       o<<<<< Symm adapt        0.00

                       o<<<<< (ab) max sync:      0.00
       1.1927     -75.97093468  1.20D-12  2.78D-12  6.16D-09 1.6D-04      3.0



          %%%%% MacroIteration   3 %%%%%


          Number of sigma calls:        1
                       o<<<<< (aa):             0.00
                       o<<<<< (bb):             0.00
                       o<<<<< (ab):             0.00
                       o<<<<< (total)           0.00
                       o<<<<< (aa) ff           0.00
                       o<<<<< (aa) gop          0.00
                       o<<<<< (aa) dot          0.00
                       o<<<<< (ab) str          0.00
                       o<<<<< (ab) gath         0.00
                       o<<<<< (ab) dotab        0.00
                       o<<<<< (ab) scat         0.00
                       o<<<<< (ab) sync         0.00
                       o<<<<< Density           0.00
                       o<<<<< Density one       0.00
                       o<<<<< Density two       0.00
                       o<<<<< Density ab        0.00
                       o<<<<< Spin adapt        0.00
                       o<<<<< Symm adapt        0.00

                       o<<<<< (ab) max sync:      0.00

           >>>| Valence CI:            -82.176024334076
           >>>| MCSCF energy:          -75.970934684325
           >>>| Gradient norm:          0.305803247D-04




     ==============================
            MCSCF Converged
     ==============================



          Canonical Eigenvalues

              1      
    1  -20.6115
    2   -1.3073
    3   -0.6726
    4   -0.5496
    5   -0.3615
    6   -0.2091
    7   -0.0261
    8   -0.0129
    9    0.2809
   10    0.4107
   11    0.6303
   12    0.6903
   13    0.7823
   14    0.8185
   15    0.8441
   16    0.8962
   17    0.9839
   18    1.2057
   19    1.3456
   20    1.7130
   21    1.7302
   22    2.0297
   23    2.0327
   24    2.1470
   25    2.5561
   26    2.7468
   27    3.4510
   28    3.4593
   29    3.4594
   30    3.4657
   31    3.4692
   32    3.4831
   33    3.4907
   34    3.5261
   35    3.7426
   36    3.8772
   37    3.9013
   38    3.9225
   39    3.9431
   40    4.0135
   41    4.1472
   42    4.3933
   43    4.4442
   44    4.7208
   45    5.1236
   46    5.5370
   47    5.5389
   48    5.7937
   49    5.7954
   50    6.7003
   51    6.7140
   52    6.8047
   53    6.8315
   54    6.8729
   55    7.0272
   56    7.0554
   57    7.5033
   58   10.7901


          Converged CI vector

   Index           Coefficient          Config. Occupation
         1          0.69691605          1  2  3  4  5  1  2  3  4  5
         2          0.35145320          1  2  3  4  5  1  2  3  4  6
        23          0.04016615          1  2  3  4  5  1  2  3  5  8
         9          0.02622867          1  2  3  4  5  1  2  4  5  7
        41          0.02070752          1  2  3  4  5  1  2  5  7  8
        57          0.35145320          1  2  3  4  6  1  2  3  4  5
        58         -0.48827338          1  2  3  4  6  1  2  3  4  6
        83         -0.03250123          1  2  3  4  6  1  2  3  6  8
        69         -0.02179788          1  2  3  4  6  1  2  4  6  7
      1233          0.04016615          1  2  3  5  8  1  2  3  4  5
      1255         -0.03964118          1  2  3  5  8  1  2  3  5  8
      1259         -0.02072339          1  2  3  5  8  1  2  3  6  8
      1241         -0.02514455          1  2  3  5  8  1  2  4  5  7
      1458         -0.03250123          1  2  3  6  8  1  2  3  4  6
      1479         -0.02072339          1  2  3  6  8  1  2  3  5  8
      1483          0.02915679          1  2  3  6  8  1  2  3  6  8
       449          0.02622867          1  2  4  5  7  1  2  3  4  5
       471         -0.02514455          1  2  4  5  7  1  2  3  5  8
       457         -0.05296121          1  2  4  5  7  1  2  4  5  7
       461         -0.02726865          1  2  4  5  7  1  2  4  6  7
       458          0.02219641          1  2  4  5  7  1  3  4  5  7
       674         -0.02179788          1  2  4  6  7  1  2  3  4  6
       681         -0.02726865          1  2  4  6  7  1  2  4  5  7
       685          0.03801469          1  2  4  6  7  1  2  4  6  7
      2241          0.02070752          1  2  5  7  8  1  2  3  4  5
       513          0.02219641          1  3  4  5  7  1  2  4  5  7
       514         -0.02085599          1  3  4  5  7  1  3  4  5  7

          Number of sigma calls:        1
                       o<<<<< (aa):             0.00
                       o<<<<< (bb):             0.00
                       o<<<<< (ab):             0.00
                       o<<<<< (total)           0.00
                       o<<<<< (aa) ff           0.00
                       o<<<<< (aa) gop          0.00
                       o<<<<< (aa) dot          0.00
                       o<<<<< (ab) str          0.00
                       o<<<<< (ab) gath         0.00
                       o<<<<< (ab) dotab        0.00
                       o<<<<< (ab) scat         0.00
                       o<<<<< (ab) sync         0.00
                       o<<<<< Density           0.01
                       o<<<<< Density one       0.00
                       o<<<<< Density two       0.00
                       o<<<<< Density ab        0.01
                       o<<<<< Spin adapt        0.00
                       o<<<<< Symm adapt        0.00

                       o<<<<< (ab) max sync:      0.00



          Natural orbital occupation numbers

              1      
    1    2.0000
    2    1.9988
    3    1.9853
    4    1.9747
    5    1.2939
    6    0.7064
    7    0.0264
    8    0.0146


          Number of sigma calls:       23
                       o<<<<< (aa):             0.00
                       o<<<<< (bb):             0.00
                       o<<<<< (ab):             0.04
                       o<<<<< (total)           0.05
                       o<<<<< (aa) ff           0.00
                       o<<<<< (aa) gop          0.00
                       o<<<<< (aa) dot          0.00
                       o<<<<< (ab) str          0.00
                       o<<<<< (ab) gath         0.00
                       o<<<<< (ab) dotab        0.00
                       o<<<<< (ab) scat         0.00
                       o<<<<< (ab) sync         0.00
                       o<<<<< Density           0.01
                       o<<<<< Density one       0.00
                       o<<<<< Density two       0.00
                       o<<<<< Density ab        0.01
                       o<<<<< Spin adapt        0.26
                       o<<<<< Symm adapt        0.00

                       o<<<<< (ab) max sync:      0.00


       Final MCSCF results 
       ------------------- 

       Total MCSCF energy =    -75.970934684325
            Gradient norm =      3.1D-05

    CPU time for solution =      3.5s
   Wall time for solution =      6.8s



                        Analysis of MCSCF natural orbitals
                        ----------------------------------

 Vector    1  Occ=1.999992D+00  E=-2.061153D+01  Symmetry=a
              MO Center= -9.1D-02, -2.2D-01, -7.8D-14, r^2= 1.5D-02
   Bfn.  Coefficient  Atom+Function         Bfn.  Coefficient  Atom+Function  
  ----- ------------  ---------------      ----- ------------  ---------------
     1      0.973954  1 O  s          

 Vector    2  Occ=1.998809D+00  E=-1.307328D+00  Symmetry=a
              MO Center= -2.6D-01, -1.6D-01,  6.0D-11, r^2= 4.2D-01
   Bfn.  Coefficient  Atom+Function         Bfn.  Coefficient  Atom+Function  
  ----- ------------  ---------------      ----- ------------  ---------------
     2      0.552500  1 O  s                  4      0.401917  1 O  s          
     3      0.154208  1 O  s          

 Vector    3  Occ=1.985254D+00  E=-6.726129D-01  Symmetry=a
              MO Center= -6.2D-02, -2.3D-01, -5.9D-11, r^2= 6.2D-01
   Bfn.  Coefficient  Atom+Function         Bfn.  Coefficient  Atom+Function  
  ----- ------------  ---------------      ----- ------------  ---------------
    10      0.448509  1 O  pz                13      0.378426  1 O  pz         
     7      0.369832  1 O  pz         

 Vector    4  Occ=1.974744D+00  E=-5.496021D-01  Symmetry=a
              MO Center=  3.3D-01, -3.7D-01, -1.7D-12, r^2= 5.8D-01
   Bfn.  Coefficient  Atom+Function         Bfn.  Coefficient  Atom+Function  
  ----- ------------  ---------------      ----- ------------  ---------------
     8      0.330636  1 O  px                46      0.284057  3 H  s          
     5      0.275889  1 O  px                45      0.188530  3 H  s          
    11      0.177530  1 O  px         

 Vector    5  Occ=1.293854D+00  E=-3.614999D-01  Symmetry=a
              MO Center= -7.2D-02,  9.9D-01, -3.1D-13, r^2= 2.2D+00
   Bfn.  Coefficient  Atom+Function         Bfn.  Coefficient  Atom+Function  
  ----- ------------  ---------------      ----- ------------  ---------------
    32      0.329791  2 H  s                  9      0.310968  1 O  py         
    33      0.269872  2 H  s                  6      0.242831  1 O  py         
    12      0.213027  1 O  py                31      0.159205  2 H  s          

 Vector    6  Occ=7.063802D-01  E=-2.090979D-01  Symmetry=a
              MO Center= -8.0D-02,  1.1D+00, -5.8D-13, r^2= 2.3D+00
   Bfn.  Coefficient  Atom+Function         Bfn.  Coefficient  Atom+Function  
  ----- ------------  ---------------      ----- ------------  ---------------
    32      0.383884  2 H  s                  9     -0.346474  1 O  py         
    33      0.273257  2 H  s                  6     -0.268394  1 O  py         
    12     -0.211913  1 O  py                31      0.177745  2 H  s          

 Vector    7  Occ=2.638126D-02  E=-2.614536D-02  Symmetry=a
              MO Center=  5.1D-01, -4.4D-01, -5.7D-13, r^2= 5.9D-01
   Bfn.  Coefficient  Atom+Function         Bfn.  Coefficient  Atom+Function  
  ----- ------------  ---------------      ----- ------------  ---------------
    46      0.703542  3 H  s                  5     -0.478049  1 O  px         
     8     -0.418763  1 O  px                45      0.349879  3 H  s          
     2     -0.289336  1 O  s                  4     -0.255257  1 O  s          
     6      0.173063  1 O  py                 9      0.153350  1 O  py         

 Vector    8  Occ=1.458679D-02  E=-1.285152D-02  Symmetry=a
              MO Center=  5.2D-02, -2.7D-01, -7.9D-11, r^2= 1.2D+00
   Bfn.  Coefficient  Atom+Function         Bfn.  Coefficient  Atom+Function  
  ----- ------------  ---------------      ----- ------------  ---------------
    13      0.801217  1 O  pz                 7     -0.644539  1 O  pz         
    10     -0.268679  1 O  pz                53      0.170785  3 H  pz         

 Vector    9  Occ=0.000000D+00  E= 2.808877D-01  Symmetry=a
              MO Center=  1.1D+00, -6.4D-01,  3.3D-11, r^2= 3.7D+00
   Bfn.  Coefficient  Atom+Function         Bfn.  Coefficient  Atom+Function  
  ----- ------------  ---------------      ----- ------------  ---------------
    47      1.930040  3 H  s                  4     -1.227769  1 O  s          
    11     -0.542848  1 O  px                51     -0.406847  3 H  px         
    46     -0.266510  3 H  s                 32     -0.172445  2 H  s          
    52      0.167196  3 H  py                12      0.157653  1 O  py         

 Vector   10  Occ=0.000000D+00  E= 4.107438D-01  Symmetry=a
              MO Center= -8.8D-02,  2.4D+00,  2.0D-13, r^2= 3.4D+00
   Bfn.  Coefficient  Atom+Function         Bfn.  Coefficient  Atom+Function  
  ----- ------------  ---------------      ----- ------------  ---------------
    33      1.693076  2 H  s                 32     -1.372478  2 H  s          
    47     -0.453432  3 H  s                 46      0.286221  3 H  s          
    12     -0.246439  1 O  py         

 Vector   11  Occ=0.000000D+00  E= 6.303394D-01  Symmetry=a
              MO Center= -5.9D-01,  4.2D-01, -3.2D-12, r^2= 2.4D+00
   Bfn.  Coefficient  Atom+Function         Bfn.  Coefficient  Atom+Function  
  ----- ------------  ---------------      ----- ------------  ---------------
    46      2.785259  3 H  s                  4     -2.198198  1 O  s          
    11     -2.191562  1 O  px                51     -0.846680  3 H  px         
    12      0.832048  1 O  py                37     -0.336849  2 H  px         
    47      0.293435  3 H  s                 52      0.282658  3 H  py         
    23     -0.194407  1 O  d  2               2     -0.170168  1 O  s          

 Vector   12  Occ=0.000000D+00  E= 6.903116D-01  Symmetry=a
              MO Center= -8.2D-02,  1.1D+00, -7.0D-13, r^2= 2.6D+00
   Bfn.  Coefficient  Atom+Function         Bfn.  Coefficient  Atom+Function  
  ----- ------------  ---------------      ----- ------------  ---------------
     4      0.843557  1 O  s                 11      0.693678  1 O  px         
    38     -0.643895  2 H  py                12      0.592513  1 O  py         
    46     -0.581201  3 H  s                  9     -0.496618  1 O  py         
    47     -0.299914  3 H  s                 51      0.236877  3 H  px         
    52     -0.219247  3 H  py                37      0.151738  2 H  px         

 Vector   13  Occ=0.000000D+00  E= 7.822779D-01  Symmetry=a
              MO Center= -2.3D-02,  2.0D+00,  1.6D-12, r^2= 1.7D+00
   Bfn.  Coefficient  Atom+Function         Bfn.  Coefficient  Atom+Function  
  ----- ------------  ---------------      ----- ------------  ---------------
    39      0.996551  2 H  pz                53     -0.401340  3 H  pz         
    13      0.251496  1 O  pz         

 Vector   14  Occ=0.000000D+00  E= 8.184655D-01  Symmetry=a
              MO Center= -1.5D-01,  1.7D+00, -1.7D-12, r^2= 2.5D+00
   Bfn.  Coefficient  Atom+Function         Bfn.  Coefficient  Atom+Function  
  ----- ------------  ---------------      ----- ------------  ---------------
    46      1.164427  3 H  s                 11     -1.013553  1 O  px         
     4     -0.966367  1 O  s                 37      0.944237  2 H  px         
    52      0.444147  3 H  py                12      0.241265  1 O  py         
    51     -0.235304  3 H  px         

 Vector   15  Occ=0.000000D+00  E= 8.440917D-01  Symmetry=a
              MO Center=  6.6D-01, -1.4D-01,  9.5D-13, r^2= 2.2D+00
   Bfn.  Coefficient  Atom+Function         Bfn.  Coefficient  Atom+Function  
  ----- ------------  ---------------      ----- ------------  ---------------
    52      0.956480  3 H  py                 4     -0.641745  1 O  s          
     9     -0.351099  1 O  py                46      0.310153  3 H  s          
    37     -0.303951  2 H  px                38      0.284678  2 H  py         
    47      0.276818  3 H  s                  8     -0.258419  1 O  px         
    12      0.222970  1 O  py                33     -0.171199  2 H  s          

 Vector   16  Occ=0.000000D+00  E= 8.962254D-01  Symmetry=a
              MO Center=  4.0D-01, -1.5D-01, -3.6D-12, r^2= 2.4D+00
   Bfn.  Coefficient  Atom+Function         Bfn.  Coefficient  Atom+Function  
  ----- ------------  ---------------      ----- ------------  ---------------
    53      1.183141  3 H  pz                13     -0.917476  1 O  pz         
    39      0.361361  2 H  pz         

 Vector   17  Occ=0.000000D+00  E= 9.838904D-01  Symmetry=a
              MO Center= -8.3D-02, -3.8D-01,  2.5D-11, r^2= 2.9D+00
   Bfn.  Coefficient  Atom+Function         Bfn.  Coefficient  Atom+Function  
  ----- ------------  ---------------      ----- ------------  ---------------
     4      2.892264  1 O  s                 46     -1.819369  3 H  s          
    12     -1.390637  1 O  py                51      1.101668  3 H  px         
    47     -0.809752  3 H  s                 11      0.705216  1 O  px         
     2     -0.674999  1 O  s                  8      0.556594  1 O  px         
    38     -0.515949  2 H  py                52      0.362121  3 H  py         

 Vector   18  Occ=0.000000D+00  E= 1.205653D+00  Symmetry=a
              MO Center= -4.8D-02,  7.4D-01,  3.8D-11, r^2= 2.4D+00
   Bfn.  Coefficient  Atom+Function         Bfn.  Coefficient  Atom+Function  
  ----- ------------  ---------------      ----- ------------  ---------------
     4      3.188979  1 O  s                 46     -1.758889  3 H  s          
     2     -0.936798  1 O  s                 11      0.904527  1 O  px         
    51      0.763958  3 H  px                52     -0.652530  3 H  py         
    38      0.630590  2 H  py                47     -0.542747  3 H  s          
     8      0.517003  1 O  px                 9     -0.456856  1 O  py         


 Wrote Lagrangian and 1- and 2-particle density matrices to ./H2O.mcpdm


     Multipole analysis of the density
     ---------------------------------

     L   x y z        total        nuclear
     -   - - -        -----        -------
     0   0 0 0     -0.000000     10.000000

     1   1 0 0      0.590338     -0.000000
     1   0 1 0     -0.185146     -0.000000
     1   0 0 1      0.000000      0.000000

     2   2 0 0     -4.434418      2.679864
     2   1 1 0     -0.573831     -1.824812
     2   1 0 1     -0.000000      0.000000
     2   0 2 0     -4.383313     21.194119
     2   0 1 1     -0.000000      0.000000
     2   0 0 2     -5.927322      0.000000


  Mulliken analysis of the total density
  --------------------------------------

    Atom       Charge   Shell Charges
 -----------   ------   -------------------------------------------------------
    1 O    8     8.24   1.95  1.06  0.25  0.64  1.22  1.95  1.16  0.00  0.01  0.00
    2 H    1     0.99   0.17  0.48  0.34 -0.00  0.00 -0.00
    3 H    1     0.77   0.25  0.40  0.03  0.02  0.06  0.01

    Mulliken analysis of the active space density
    ---------------------------------------------

    Atom       Charge   Shell Charges
 -----------   ------   -------------------------------------------------------
    1 O    8     8.24   1.95  1.06  0.25  0.64  1.22  1.95  1.16  0.00  0.01  0.00
    2 H    1     0.99   0.17  0.48  0.34 -0.00  0.00 -0.00
    3 H    1     0.77   0.25  0.40  0.03  0.02  0.06  0.01

 Parallel integral file used      14 records with       0 large values


 Task  times  cpu:        3.6s     wall:        6.8s


                                NWChem Input Module
                                -------------------


                                 NWChem SCF Module
                                 -----------------


                                        H2O



  ao basis        = "ao basis"
  functions       =    58
  atoms           =     3
  closed shells   =     5
  open shells     =     0
  charge          =   0.00
  wavefunction    = RHF 
  input vectors   = ./h2o.mos
  output vectors  = ./h2o-trash.mos
  use symmetry    = F
  symmetry adapt  = F


 Summary of "ao basis" -> "ao basis" (spherical)
 ------------------------------------------------------------------------------
       Tag                 Description            Shells   Functions and Types
 ---------------- ------------------------------  ------  ---------------------
 O                          cc-pVTZ                 10       30   4s3p2d1f
 H                          cc-pVTZ                  6       14   3s2p1d



 Forming initial guess at       6.9s


 Loading old vectors from job with title :

H2O


 Starting SCF solution at       6.9s



 ----------------------------------------------
         Quadratically convergent ROHF

 Convergence threshold     :          1.000E-04
 Maximum no. of iterations :           30
 Final Fock-matrix accuracy:          1.000E-07
 ----------------------------------------------


 Integral file          = ./H2O.aoints.0
 Record size in doubles =  65536        No. of integs per rec  =  43688
 Max. records in memory =     49        Max. records in file   = 250685
 No. of bits per label  =      8        No. of bits per value  =     64


 #quartets = 3.086D+04 #integrals = 5.664D+05 #direct =  0.0% #cached =100.0%



       Final RHF  results 
       ------------------ 

         Total SCF energy =    -75.725331415742
      One-electron energy =   -116.878413561602
      Two-electron energy =     34.947992496110
 Nuclear repulsion energy =      6.205089649750

        Time for solution =      0.1s


             Final eigenvalues
             -----------------

              1      
    1  -20.6115
    2   -1.3073
    3   -0.6726
    4   -0.5496
    5   -0.3615
    6   -0.2091
    7   -0.0261
    8   -0.0129
    9    0.2809
   10    0.4107
   11    0.6303
   12    0.6903
   13    0.7823
   14    0.8185
   15    0.8441

                       ROHF Final Molecular Orbital Analysis
                       -------------------------------------

 Vector    2  Occ=2.000000D+00  E=-1.307328D+00
              MO Center= -2.6D-01, -1.6D-01,  6.0D-11, r^2= 4.2D-01
   Bfn.  Coefficient  Atom+Function         Bfn.  Coefficient  Atom+Function  
  ----- ------------  ---------------      ----- ------------  ---------------
     2      0.552500  1 O  s                  4      0.401917  1 O  s          
     3      0.154208  1 O  s          

 Vector    3  Occ=2.000000D+00  E=-6.726129D-01
              MO Center= -6.2D-02, -2.3D-01, -5.9D-11, r^2= 6.2D-01
   Bfn.  Coefficient  Atom+Function         Bfn.  Coefficient  Atom+Function  
  ----- ------------  ---------------      ----- ------------  ---------------
    10      0.448509  1 O  pz                13      0.378426  1 O  pz         
     7      0.369832  1 O  pz         

 Vector    4  Occ=2.000000D+00  E=-5.496021D-01
              MO Center=  3.3D-01, -3.7D-01, -1.7D-12, r^2= 5.8D-01
   Bfn.  Coefficient  Atom+Function         Bfn.  Coefficient  Atom+Function  
  ----- ------------  ---------------      ----- ------------  ---------------
     8      0.330636  1 O  px                46      0.284057  3 H  s          
     5      0.275889  1 O  px                45      0.188530  3 H  s          
    11      0.177530  1 O  px         

 Vector    5  Occ=2.000000D+00  E=-3.614999D-01
              MO Center= -7.2D-02,  9.9D-01, -3.1D-13, r^2= 2.2D+00
   Bfn.  Coefficient  Atom+Function         Bfn.  Coefficient  Atom+Function  
  ----- ------------  ---------------      ----- ------------  ---------------
    32      0.329791  2 H  s                  9      0.310968  1 O  py         
    33      0.269872  2 H  s                  6      0.242831  1 O  py         
    12      0.213027  1 O  py                31      0.159205  2 H  s          

 Vector    6  Occ=0.000000D+00  E=-2.090979D-01
              MO Center= -8.0D-02,  1.1D+00, -5.8D-13, r^2= 2.3D+00
   Bfn.  Coefficient  Atom+Function         Bfn.  Coefficient  Atom+Function  
  ----- ------------  ---------------      ----- ------------  ---------------
    32      0.383884  2 H  s                  9     -0.346474  1 O  py         
    33      0.273257  2 H  s                  6     -0.268394  1 O  py         
    12     -0.211913  1 O  py                31      0.177745  2 H  s          

 Vector    7  Occ=0.000000D+00  E=-2.614536D-02
              MO Center=  5.1D-01, -4.4D-01, -5.7D-13, r^2= 5.9D-01
   Bfn.  Coefficient  Atom+Function         Bfn.  Coefficient  Atom+Function  
  ----- ------------  ---------------      ----- ------------  ---------------
    46      0.703542  3 H  s                  5     -0.478049  1 O  px         
     8     -0.418763  1 O  px                45      0.349879  3 H  s          
     2     -0.289336  1 O  s                  4     -0.255257  1 O  s          
     6      0.173063  1 O  py                 9      0.153350  1 O  py         

 Vector    8  Occ=0.000000D+00  E=-1.285152D-02
              MO Center=  5.2D-02, -2.7D-01, -7.9D-11, r^2= 1.2D+00
   Bfn.  Coefficient  Atom+Function         Bfn.  Coefficient  Atom+Function  
  ----- ------------  ---------------      ----- ------------  ---------------
    13      0.801217  1 O  pz                 7     -0.644539  1 O  pz         
    10     -0.268679  1 O  pz                53      0.170785  3 H  pz         

 Vector    9  Occ=0.000000D+00  E= 2.808877D-01
              MO Center=  1.1D+00, -6.4D-01,  3.3D-11, r^2= 3.7D+00
   Bfn.  Coefficient  Atom+Function         Bfn.  Coefficient  Atom+Function  
  ----- ------------  ---------------      ----- ------------  ---------------
    47      1.930040  3 H  s                  4     -1.227769  1 O  s          
    11     -0.542848  1 O  px                51     -0.406847  3 H  px         
    46     -0.266510  3 H  s                 32     -0.172445  2 H  s          
    52      0.167196  3 H  py                12      0.157653  1 O  py         

 Vector   10  Occ=0.000000D+00  E= 4.107438D-01
              MO Center= -8.8D-02,  2.4D+00,  2.0D-13, r^2= 3.4D+00
   Bfn.  Coefficient  Atom+Function         Bfn.  Coefficient  Atom+Function  
  ----- ------------  ---------------      ----- ------------  ---------------
    33      1.693076  2 H  s                 32     -1.372478  2 H  s          
    47     -0.453432  3 H  s                 46      0.286221  3 H  s          
    12     -0.246439  1 O  py         

 Vector   11  Occ=0.000000D+00  E= 6.303394D-01
              MO Center= -5.9D-01,  4.2D-01, -3.2D-12, r^2= 2.4D+00
   Bfn.  Coefficient  Atom+Function         Bfn.  Coefficient  Atom+Function  
  ----- ------------  ---------------      ----- ------------  ---------------
    46      2.785259  3 H  s                  4     -2.198198  1 O  s          
    11     -2.191562  1 O  px                51     -0.846680  3 H  px         
    12      0.832048  1 O  py                37     -0.336849  2 H  px         
    47      0.293435  3 H  s                 52      0.282658  3 H  py         
    23     -0.194407  1 O  d  2               2     -0.170168  1 O  s          

 Vector   12  Occ=0.000000D+00  E= 6.903116D-01
              MO Center= -8.2D-02,  1.1D+00, -7.0D-13, r^2= 2.6D+00
   Bfn.  Coefficient  Atom+Function         Bfn.  Coefficient  Atom+Function  
  ----- ------------  ---------------      ----- ------------  ---------------
     4      0.843557  1 O  s                 11      0.693678  1 O  px         
    38     -0.643895  2 H  py                12      0.592513  1 O  py         
    46     -0.581201  3 H  s                  9     -0.496618  1 O  py         
    47     -0.299914  3 H  s                 51      0.236877  3 H  px         
    52     -0.219247  3 H  py                37      0.151738  2 H  px         

 Vector   13  Occ=0.000000D+00  E= 7.822779D-01
              MO Center= -2.3D-02,  2.0D+00,  1.6D-12, r^2= 1.7D+00
   Bfn.  Coefficient  Atom+Function         Bfn.  Coefficient  Atom+Function  
  ----- ------------  ---------------      ----- ------------  ---------------
    39      0.996551  2 H  pz                53     -0.401340  3 H  pz         
    13      0.251496  1 O  pz         

 Vector   14  Occ=0.000000D+00  E= 8.184655D-01
              MO Center= -1.5D-01,  1.7D+00, -1.7D-12, r^2= 2.5D+00
   Bfn.  Coefficient  Atom+Function         Bfn.  Coefficient  Atom+Function  
  ----- ------------  ---------------      ----- ------------  ---------------
    46      1.164427  3 H  s                 11     -1.013553  1 O  px         
     4     -0.966367  1 O  s                 37      0.944237  2 H  px         
    52      0.444147  3 H  py                12      0.241265  1 O  py         
    51     -0.235304  3 H  px         

 Vector   15  Occ=0.000000D+00  E= 8.440917D-01
              MO Center=  6.6D-01, -1.4D-01,  9.5D-13, r^2= 2.2D+00
   Bfn.  Coefficient  Atom+Function         Bfn.  Coefficient  Atom+Function  
  ----- ------------  ---------------      ----- ------------  ---------------
    52      0.956480  3 H  py                 4     -0.641745  1 O  s          
     9     -0.351099  1 O  py                46      0.310153  3 H  s          
    37     -0.303951  2 H  px                38      0.284678  2 H  py         
    47      0.276818  3 H  s                  8     -0.258419  1 O  px         
    12      0.222970  1 O  py                33     -0.171199  2 H  s          


 center of mass
 --------------
 x =  -0.07599894 y =  -0.18009292 z =   0.00000000

 moments of inertia (a.u.)
 ------------------
          22.102137666897           1.525895009686           0.000000000000
           1.525895009686           2.833002082974           0.000000000000
           0.000000000000           0.000000000000          24.935139749871

  Mulliken analysis of the total density
  --------------------------------------

    Atom       Charge   Shell Charges
 -----------   ------   -------------------------------------------------------
    1 O    8     8.26   1.95  1.06  0.25  0.64  1.20  1.95  1.20  0.00  0.01  0.00
    2 H    1     0.98   0.16  0.45  0.36 -0.00  0.00 -0.00
    3 H    1     0.76   0.25  0.40  0.03  0.02  0.06  0.01

       Multipole analysis of the density wrt the origin
       ------------------------------------------------

     L   x y z        total         open         nuclear
     -   - - -        -----         ----         -------
     0   0 0 0     -0.000000      0.000000     10.000000

     1   1 0 0      0.592273      0.000000     -0.000000
     1   0 1 0     -0.079021      0.000000     -0.000000
     1   0 0 1      0.000000      0.000000      0.000000

     2   2 0 0     -4.480518      0.000000      2.679864
     2   1 1 0     -0.661514      0.000000     -1.824812
     2   1 0 1     -0.000000      0.000000      0.000000
     2   0 2 0     -3.611310      0.000000     21.194119
     2   0 1 1     -0.000000      0.000000      0.000000
     2   0 0 2     -5.971264      0.000000      0.000000


 Parallel integral file used      13 records with       0 large values

 ------------------------------------
     Number of active orbitals      8
     Number of active alpha electrons      5
     Number of active beta electrons       5
 ------------------------------------
                   NWChem Extensible Many-Electron Theory Module
                   ---------------------------------------------

              ======================================================
                   This portion of the program was automatically
                  generated by a Tensor Contraction Engine (TCE).
                  The development of this portion of the program
                 and TCE was supported by US Department of Energy,
                Office of Science, Office of Basic Energy Science.
                      TCE is a product of Battelle and PNNL.
              Please cite: S.Hirata, J.Phys.Chem.A 107, 9887 (2003).
              ======================================================

                                        H2O


            General Information
            -------------------
      Number of processors :     1
         Wavefunction type : Restricted Hartree-Fock
          No. of electrons :    10
           Alpha electrons :     5
            Beta electrons :     5
           No. of orbitals :   116
            Alpha orbitals :    58
             Beta orbitals :    58
        Alpha frozen cores :     0
         Beta frozen cores :     0
     Alpha frozen virtuals :    50
      Beta frozen virtuals :    50
         Spin multiplicity : singlet 
    Number of AO functions :    58
       Number of AO shells :    22
        Use of symmetry is : off
      Symmetry adaption is : off
         Schwarz screening : 0.10D-09

          Correlation Information
          -----------------------
          Calculation type : Coupled-cluster singles & doubles                           
   Perturbative correction : none                                                        
            Max iterations :      300
        Residual threshold : 0.10D-06
     T(0) DIIS level shift : 0.00D+00
     L(0) DIIS level shift : 0.00D+00
     T(1) DIIS level shift : 0.00D+00
     L(1) DIIS level shift : 0.00D+00
     T(R) DIIS level shift : 0.00D+00
     T(I) DIIS level shift : 0.00D+00
   CC-T/L Amplitude update :  5-th order DIIS
                I/O scheme : Global Array Library
        L-threshold :  0.10D-06
        EOM-threshold :  0.10D-06
 no EOMCCSD initial starts read in
 TCE RESTART OPTIONS
 READ_INT:   F
 WRITE_INT:  F
 READ_TA:    F
 WRITE_TA:   F
 READ_XA:    F
 WRITE_XA:   F
 READ_IN3:   F
 WRITE_IN3:  F
 SLICE:      F
 D4D5:       F
 quantumc:   T
 qrotation:  F
 pwtce:      F
 qducc:      F
 nacto:                         0
 nrotv:                         0
 nrot:                          0

            Memory Information
            ------------------
          Available GA space size is    1610609372 doubles
          Available MA space size is    1610609772 doubles

 Maximum block size supplied by input
 Maximum block size         1 doubles

 tile_dim =      1

 Block   Spin    Irrep     Size     Offset   Alpha
 -------------------------------------------------
   1    alpha     a      1 doubles       0       1
   2    alpha     a      1 doubles       1       2
   3    alpha     a      1 doubles       2       3
   4    alpha     a      1 doubles       3       4
   5    alpha     a      1 doubles       4       5
   6    beta      a      1 doubles       5       1
   7    beta      a      1 doubles       6       2
   8    beta      a      1 doubles       7       3
   9    beta      a      1 doubles       8       4
  10    beta      a      1 doubles       9       5
  11    alpha     a      1 doubles      10      11
  12    alpha     a      1 doubles      11      12
  13    alpha     a      1 doubles      12      13
  14    beta      a      1 doubles      13      11
  15    beta      a      1 doubles      14      12
  16    beta      a      1 doubles      15      13

 Global array virtual files algorithm will be used

 Parallel file system coherency ......... OK

 Integral file          = ./H2O.aoints.0
 Record size in doubles =  65536        No. of integs per rec  =  43688
 Max. records in memory =     49        Max. records in file   = 250685
 No. of bits per label  =      8        No. of bits per value  =     64


 #quartets = 3.176D+04 #integrals = 6.266D+05 #direct =  0.0% #cached =100.0%


 Fock matrix recomputed
 1-e file size   =               64
 1-e file name   = ./H2O.f1
 Cpu & wall time / sec            0.1            0.1
 4-electron integrals stored in orbital form

 v2    file size   =              666
 4-index algorithm nr.  13 is used
 imaxsize =       30
 imaxsize ichop =        0
 begin_one_electron_integrals
    1    1       -32.6489091673
    2    1        -1.0277800468
    4    1         0.1392615568
    5    1        -0.0236103425
    6    1        -0.0294392450
    7    1        -0.2116426410
    1    2        -1.0277800468
    2    2        -7.6355253089
    4    2        -0.2623558618
    5    2         0.0798234806
    6    2         0.1251779713
    7    2         0.1263430447
    3    3        -6.8416797731
    8    3         2.1144300521
    1    4         0.1392615568
    2    4        -0.2623558618
    4    4        -6.6165828547
    5    4        -0.0397919392
    6    4        -0.0296094773
    7    4         1.9116842663
    1    5        -0.0236103425
    2    5         0.0798234806
    4    5        -0.0397919392
    5    5        -4.6965096767
    6    5         2.3447630190
    7    5         0.0140020201
    1    6        -0.0294392450
    2    6         0.1251779713
    4    6        -0.0296094773
    5    6         2.3447630190
    6    6        -4.7207508973
    7    6         0.0119907483
    1    7        -0.2116426410
    2    7         0.1263430447
    4    7         1.9116842663
    5    7         0.0140020201
    6    7         0.0119907483
    7    7        -5.8856990191
    3    8         2.1144300521
    8    8        -5.2205676939
 end_one_electron_integrals
 begin_two_electron_integrals
    1    1    1    1        4.8289653491
    2    1    1    1       -0.2227312096
    2    1    2    1        0.0293795759
    3    1    3    1        0.0282842794
    4    1    1    1       -0.0898519565
    4    1    2    1        0.0024018847
    4    1    4    1        0.0211703629
    4    1    2    2       -0.0138605965
    4    1    3    3       -0.0025483821
    5    1    1    1        0.0138563092
    5    1    2    1       -0.0013599197
    5    1    4    1        0.0000769636
    5    1    5    1        0.0142869000
    5    1    2    2        0.0006998238
    5    1    4    2        0.0003635846
    5    1    3    3        0.0011228853
    5    1    4    4        0.0011285089
    6    1    1    1        0.0186393440
    6    1    2    1       -0.0015594624
    6    1    4    1       -0.0001633648
    6    1    5    1       -0.0152598232
    6    1    6    1        0.0166639921
    6    1    2    2        0.0013282836
    6    1    4    2        0.0003301809
    6    1    5    2       -0.0140406755
    6    1    3    3        0.0012849610
    6    1    4    4        0.0012772987
    6    1    5    4       -0.0027545971
    6    1    5    5        0.0005772987
    7    1    1    1        0.1718710161
    7    1    2    1       -0.0075227904
    7    1    4    1       -0.0328163062
    7    1    5    1        0.0001497688
    7    1    6    1        0.0003727698
    7    1    7    1        0.0515646477
    7    1    2    2        0.0222247497
    7    1    4    2       -0.0258172504
    7    1    5    2       -0.0008587330
    7    1    6    2       -0.0010253729
    7    1    3    3        0.0038528778
    7    1    4    4       -0.0144176518
    7    1    5    4        0.0004473197
    7    1    6    4        0.0006083040
    7    1    5    5        0.0024836476
    7    1    6    5       -0.0016764008
    7    1    6    6        0.0026148461
    8    1    3    1       -0.0396745634
    8    1    8    1        0.0561355627
    8    1    3    2       -0.0387551969
    8    1    4    3       -0.0075409023
    8    1    5    3        0.0007788267
    8    1    6    3        0.0011947512
    8    1    7    3        0.0104724217
    2    2    1    1        1.0812613424
    2    2    2    1        0.0093865920
    2    2    2    2        0.8283885196
    3    2    3    1        0.0252532184
    3    2    3    2        0.1448246353
    4    2    1    1       -0.0059999927
    4    2    2    1       -0.0038284287
    4    2    4    1        0.0162051608
    4    2    2    2       -0.0573610335
    4    2    4    2        0.0910329275
    4    2    3    3        0.0106642577
    5    2    1    1       -0.0224127871
    5    2    2    1       -0.0003415441
    5    2    4    1        0.0006123156
    5    2    5    1        0.0126889458
    5    2    2    2       -0.0150223398
    5    2    4    2        0.0018711932
    5    2    5    2        0.0758171680
    5    2    3    3       -0.0116092438
    5    2    4    4       -0.0091119227
    6    2    1    1       -0.0234370483
    6    2    2    1       -0.0001895052
    6    2    4    1        0.0005920445
    6    2    5    1       -0.0133960739
    6    2    6    1        0.0146369642
    6    2    2    2       -0.0136856181
    6    2    4    2        0.0023776338
    6    2    5    2       -0.0747438537
    6    2    6    2        0.0759714656
    6    2    3    3       -0.0125237475
    6    2    4    4       -0.0087739295
    6    2    5    4       -0.0113594449
    6    2    5    5       -0.0116228379
    7    2    1    1       -0.0264077308
    7    2    2    1        0.0044726593
    7    2    4    1       -0.0159578796
    7    2    5    1       -0.0003109132
    7    2    6    1       -0.0005037087
    7    2    7    1        0.0238154619
    7    2    2    2        0.0288562501
    7    2    4    2       -0.0612462806
    7    2    5    2       -0.0006597102
    7    2    6    2       -0.0021594472
    7    2    7    2        0.0536022078
    7    2    3    3       -0.0197233982
    7    2    4    4       -0.0361447638
    7    2    5    4        0.0009955583
    7    2    6    4        0.0014844382
    7    2    5    5       -0.0100505796
    7    2    6    5        0.0125722527
    7    2    6    6       -0.0114178946
    8    2    3    1       -0.0206960385
    8    2    8    1        0.0275447606
    8    2    3    2       -0.0544065148
    8    2    8    2        0.0453088286
    8    2    4    3       -0.0028352586
    8    2    5    3        0.0014312287
    8    2    6    3        0.0023070022
    8    2    7    3        0.0115202777
    3    3    1    1        1.0502921893
    3    3    2    1        0.0072654879
    3    3    2    2        0.7424816955
    3    3    3    3        0.7619101419
    4    3    3    1        0.0051254180
    4    3    3    2        0.0232297207
    4    3    4    3        0.0366187329
    5    3    3    1       -0.0005589609
    5    3    3    2       -0.0026626076
    5    3    4    3       -0.0000115395
    5    3    5    3        0.0191141125
    6    3    3    1       -0.0008285756
    6    3    3    2       -0.0037960973
    6    3    4    3       -0.0003139641
    6    3    5    3       -0.0190424366
    6    3    6    3        0.0195690166
    7    3    3    1       -0.0078258181
    7    3    3    2       -0.0224935024
    7    3    4    3       -0.0207214756
    7    3    5    3        0.0003889662
    7    3    6    3        0.0005189495
    7    3    7    3        0.0253254631
    8    3    1    1       -0.5374071973
    8    3    2    1       -0.0045124288
    8    3    4    1        0.0043698444
    8    3    5    1       -0.0008744007
    8    3    6    1       -0.0008846996
    8    3    7    1       -0.0077047994
    8    3    2    2       -0.2194214226
    8    3    4    2        0.0110147972
    8    3    5    2        0.0054473895
    8    3    6    2        0.0068866040
    8    3    7    2        0.0058913412
    8    3    3    3       -0.2122615821
    8    3    8    3        0.1662586385
    8    3    4    4       -0.1389858574
    8    3    5    4       -0.0019286297
    8    3    6    4       -0.0011450958
    8    3    7    4        0.1251011830
    8    3    5    5       -0.1001329070
    8    3    6    5        0.0974812976
    8    3    7    5        0.0012373732
    8    3    6    6       -0.1085542657
    8    3    7    6        0.0012977891
    8    3    7    7       -0.1639720145
    4    4    1    1        0.9085181330
    4    4    2    1        0.0039949936
    4    4    4    1        0.0082095997
    4    4    2    2        0.6365875471
    4    4    4    2        0.0804160477
    4    4    3    3        0.6385451662
    4    4    4    4        0.7749059716
    5    4    1    1        0.0081207247
    5    4    2    1        0.0001617501
    5    4    4    1       -0.0002979567
    5    4    5    1        0.0025554844
    5    4    2    2        0.0053745412
    5    4    4    2       -0.0010799721
    5    4    5    2        0.0105526668
    5    4    3    3        0.0043422579
    5    4    4    4        0.0043198862
    5    4    5    4        0.0182124912
    6    4    1    1        0.0060265542
    6    4    2    1        0.0002145861
    6    4    4    1       -0.0004433526
    6    4    5    1       -0.0027193782
    6    4    6    1        0.0029715916
    6    4    2    2        0.0052729789
    6    4    4    2       -0.0010987967
    6    4    5    2       -0.0123886803
    6    4    6    2        0.0122486292
    6    4    3    3        0.0035585030
    6    4    4    4        0.0044409649
    6    4    5    4       -0.0182849090
    6    4    6    4        0.0190460141
    6    4    5    5       -0.0019156760
    7    4    1    1       -0.4720011637
    7    4    2    1       -0.0020294396
    7    4    4    1       -0.0038062889
    7    4    5    1       -0.0008595396
    7    4    6    1       -0.0008933892
    7    4    7    1        0.0022921890
    7    4    2    2       -0.2124072889
    7    4    4    2        0.0153371216
    7    4    5    2        0.0046597260
    7    4    6    2        0.0061334667
    7    4    7    2        0.0161173105
    7    4    3    3       -0.1830135309
    7    4    4    4       -0.0942285108
    7    4    5    4       -0.0013107121
    7    4    6    4        0.0003918094
    7    4    7    4        0.2135539278
    7    4    5    5       -0.1019102822
    7    4    6    5        0.0905266096
    7    4    6    6       -0.1089677564
    8    4    3    1       -0.0022096810
    8    4    8    1        0.0019320295
    8    4    3    2        0.0076073719
    8    4    8    2        0.0028815073
    8    4    4    3       -0.0001433480
    8    4    5    3       -0.0001314588
    8    4    6    3        0.0000195335
    8    4    7    3        0.0151478387
    8    4    8    4        0.0197426090
    5    5    1    1        0.6414881101
    5    5    2    1        0.0036752695
    5    5    4    1       -0.0014988797
    5    5    5    1        0.0001826440
    5    5    2    2        0.4879497568
    5    5    4    2        0.0007245358
    5    5    5    2        0.0059434162
    5    5    3    3        0.4545095009
    5    5    4    4        0.4223850237
    5    5    5    4        0.0017053195
    5    5    5    5        0.4552310252
    6    5    1    1       -0.4428547437
    6    5    2    1       -0.0039243245
    6    5    4    1        0.0012461314
    6    5    5    1       -0.0006474990
    6    5    6    1       -0.0010395893
    6    5    2    2       -0.2746442324
    6    5    4    2       -0.0087122377
    6    5    5    2        0.0173584241
    6    5    6    2       -0.0001689760
    6    5    3    3       -0.2507710811
    6    5    4    4       -0.2293863144
    6    5    5    4       -0.0032239735
    6    5    6    4       -0.0050847414
    6    5    5    5       -0.0495787067
    6    5    6    5        0.2511178174
    7    5    1    1       -0.0036049542
    7    5    2    1       -0.0001185027
    7    5    4    1        0.0002972360
    7    5    5    1       -0.0043279193
    7    5    6    1        0.0047033513
    7    5    7    1       -0.0005010082
    7    5    2    2       -0.0023073720
    7    5    4    2        0.0018402024
    7    5    5    2       -0.0146182679
    7    5    6    2        0.0151519720
    7    5    7    2       -0.0012921182
    7    5    3    3       -0.0009760537
    7    5    4    4        0.0004146626
    7    5    5    4       -0.0113918151
    7    5    6    4        0.0121339592
    7    5    7    4        0.0021315705
    7    5    5    5       -0.0019494941
    7    5    6    5       -0.0009039614
    7    5    7    5        0.0140040470
    7    5    6    6       -0.0025392444
    8    5    3    1        0.0004663277
    8    5    8    1       -0.0007142361
    8    5    3    2        0.0026865463
    8    5    8    2       -0.0007889975
    8    5    4    3        0.0002151710
    8    5    5    3       -0.0056299959
    8    5    6    3        0.0064504262
    8    5    7    3       -0.0001036468
    8    5    8    4        0.0004184566
    8    5    8    5        0.0089591862
    6    6    1    1        0.6689144595
    6    6    2    1        0.0040328600
    6    6    4    1       -0.0015928159
    6    6    5    1        0.0013842758
    6    6    6    1       -0.0005893006
    6    6    2    2        0.4931924733
    6    6    4    2        0.0020599469
    6    6    5    2        0.0085336488
    6    6    6    2       -0.0151603155
    6    6    3    3        0.4596375037
    6    6    4    4        0.4264712148
    6    6    5    4        0.0013770864
    6    6    6    4       -0.0016940669
    6    6    5    5        0.4664115589
    6    6    6    5       -0.0429346070
    6    6    6    6        0.4820543785
    7    6    1    1       -0.0038297879
    7    6    2    1       -0.0002629640
    7    6    4    1        0.0005943689
    7    6    5    1        0.0046456889
    7    6    6    1       -0.0050140640
    7    6    7    1       -0.0009362069
    7    6    2    2       -0.0042176902
    7    6    4    2        0.0032211297
    7    6    5    2        0.0155552203
    7    6    6    2       -0.0158514530
    7    6    7    2       -0.0019291678
    7    6    3    3       -0.0011488485
    7    6    4    4        0.0021444538
    7    6    5    4        0.0123808486
    7    6    6    4       -0.0131644889
    7    6    7    4        0.0029113455
    7    6    5    5       -0.0008849005
    7    6    6    5        0.0005401328
    7    6    7    5       -0.0145661704
    7    6    6    6       -0.0003453092
    7    6    7    6        0.0156571010
    8    6    3    1        0.0008315516
    8    6    8    1       -0.0012765811
    8    6    3    2        0.0041538501
    8    6    8    2       -0.0015460329
    8    6    4    3        0.0006021962
    8    6    5    3        0.0070536940
    8    6    6    3       -0.0078321116
    8    6    7    3       -0.0003828142
    8    6    8    4        0.0004384841
    8    6    8    5       -0.0084370742
    8    6    8    6        0.0090040623
    7    7    1    1        1.0487051580
    7    7    2    1        0.0020610374
    7    7    4    1        0.0079911285
    7    7    5    1        0.0015355235
    7    7    6    1        0.0016708056
    7    7    7    1       -0.0129058931
    7    7    2    2        0.6309702028
    7    7    4    2        0.0706164064
    7    7    5    2       -0.0094116228
    7    7    6    2       -0.0094632106
    7    7    7    2       -0.0350517057
    7    7    3    3        0.6359798559
    7    7    4    4        0.7581821156
    7    7    5    4        0.0046642607
    7    7    6    4        0.0049199564
    7    7    7    4       -0.0895539163
    7    7    5    5        0.4183119736
    7    7    6    5       -0.2324537018
    7    7    7    5        0.0005132887
    7    7    6    6        0.4244307144
    7    7    7    6        0.0024963381
    7    7    7    7        0.7989391319
    8    7    3    1        0.0071410375
    8    7    8    1       -0.0101174666
    8    7    3    2        0.0242319418
    8    7    8    2       -0.0061172024
    8    7    4    3        0.0275288163
    8    7    5    3       -0.0000812069
    8    7    6    3       -0.0003735110
    8    7    7    3       -0.0166277651
    8    7    8    4       -0.0007908392
    8    7    8    5        0.0004162301
    8    7    8    6        0.0007955500
    8    7    8    7        0.0299599637
    8    8    1    1        1.0460978784
    8    8    2    1        0.0036892806
    8    8    4    1       -0.0050918709
    8    8    5    1        0.0013506487
    8    8    6    1        0.0013607719
    8    8    7    1        0.0078078047
    8    8    2    2        0.6376769954
    8    8    4    2        0.0114389069
    8    8    5    2       -0.0092256531
    8    8    6    2       -0.0103158592
    8    8    7    2       -0.0135666465
    8    8    3    3        0.6581719982
    8    8    8    3       -0.1832768548
    8    8    4    4        0.5769330795
    8    8    5    4        0.0038852193
    8    8    6    4        0.0033033488
    8    8    7    4       -0.1437182086
    8    8    5    5        0.4087093272
    8    8    6    5       -0.2116668388
    8    8    7    5       -0.0008021874
    8    8    6    6        0.4129790715
    8    8    7    6       -0.0005638644
    8    8    7    7        0.5925568028
    8    8    8    8        0.6133758910
 end_two_electron_integrals
 enrep_tce =    6.2050896497502315     
  EHF(A)             =       -75.72533142
  EHF(total)         =       -75.72533142
  Shift (HFtot-HFA)  =        -0.00000000
 Cpu & wall time / sec            1.0            1.0
 T1-number-of-tasks                   15

 t1 file size   =               15
 t1 file name   = ./H2O.t1
 t1 file handle =       -998
 T2-number-of-boxes                  315

 t2 file size   =              315
 t2 file name   = ./H2O.t2
 t2 file handle =       -996
CCSD iterations
 ---------------------------------------------------------
 Iter          Residuum       Correlation     Cpu    Wall 
 ---------------------------------------------------------
NEW TASK SCHEDULING
CCSD_T1_NTS --- OK
CCSD_T2_NTS --- OK
    1   0.8203244342104  -0.4165969504659     1.8     2.6
    2   1.4866043257465   0.2227810566971     1.6     2.6
    3   2.2234942926090  -0.5962740257570     1.9     2.6
    4   3.4080230264624   0.8249700240515     1.9     2.6
    5   5.3030418771651   0.5378049751627     1.8     2.7
 MICROCYCLE DIIS UPDATE:                    5                    5
    6   0.0930932744380  -0.2192859320252     1.8     2.6
    7   0.1996407487073  -0.2809497711165     1.8     2.7
    8   0.3817750517323  -0.0844722171781     2.0     2.7
    9   0.8656120779871  -0.2018248322496     1.8     2.7
   10   1.2304844999985   0.8093001492948     1.9     2.7
 MICROCYCLE DIIS UPDATE:                   10                    5
   11   0.0218648602747  -0.2360919338841     1.7     2.7
   12   0.0382184225754  -0.2558520017001     1.8     2.6
   13   0.0825690216281  -0.2131036421343     1.9     2.6
   14   0.2084049743256  -0.2738473575445     1.8     2.7
   15   0.3486827274016   0.1111987340706     1.8     2.7
 MICROCYCLE DIIS UPDATE:                   15                    5
   16   0.0145243496425  -0.2389828208928     1.9     2.7
   17   0.0271573355807  -0.2527548179260     1.7     2.7
   18   0.0591602645410  -0.2247477798360     2.0     2.7
   19   0.1428282431989  -0.2758590245543     1.6     2.7
   20   0.2745006013890  -0.0668700200597     1.8     2.6
 MICROCYCLE DIIS UPDATE:                   20                    5
   21   0.0078064412233  -0.2416444459114     1.9     2.7
   22   0.0140337063746  -0.2489119456317     2.0     2.7
   23   0.0306412440884  -0.2351448143353     1.8     2.7
   24   0.0720498484491  -0.2635296594372     1.8     2.7
   25   0.1559121042170  -0.1760186519974     1.6     2.7
 MICROCYCLE DIIS UPDATE:                   25                    5
   26   0.0027458661625  -0.2436765131025     1.7     2.7
   27   0.0047006696873  -0.2460970817504     1.8     2.7
   28   0.0103312874343  -0.2417336126986     1.9     2.7
   29   0.0243181897392  -0.2513516982577     2.0     2.6
   30   0.0573578048125  -0.2261983586429     1.9     2.6
 MICROCYCLE DIIS UPDATE:                   30                    5
   31   0.0004128695750  -0.2446376860004     1.9     2.6
   32   0.0006360141509  -0.2448580822323     2.0     2.6
   33   0.0015103251649  -0.2444465720994     1.8     2.6
   34   0.0039285239773  -0.2454179087233     2.0     2.7
   35   0.0105901471382  -0.2430130638396     1.9     2.6
 MICROCYCLE DIIS UPDATE:                   35                    5
   36   0.0000393514053  -0.2447420094725     1.9     2.7
   37   0.0000437476381  -0.2447252865613     1.7     2.7
   38   0.0000987104942  -0.2447432701254     1.8     2.7
   39   0.0002679040325  -0.2447087167504     1.8     2.7
   40   0.0007430641784  -0.2447874595679     1.7     2.6
 MICROCYCLE DIIS UPDATE:                   40                    5
   41   0.0000055576645  -0.2447316716474     1.8     2.7
   42   0.0000047415232  -0.2447334890314     1.8     2.7
   43   0.0000100207802  -0.2447299306299     1.8     2.6
   44   0.0000253652440  -0.2447387271543     1.7     2.6
   45   0.0000664327683  -0.2447169436054     1.8     2.7
 MICROCYCLE DIIS UPDATE:                   45                    5
   46   0.0000010043135  -0.2447325274673     1.8     2.7
   47   0.0000010720236  -0.2447323521760     1.8     2.7
   48   0.0000023649035  -0.2447327207229     1.8     2.6
   49   0.0000063927248  -0.2447319007200     1.8     2.6
   50   0.0000177086291  -0.2447337881649     1.8     2.7
 MICROCYCLE DIIS UPDATE:                   50                    5
   51   0.0000001516416  -0.2447324632732     1.8     2.7
   52   0.0000001190105  -0.2447324965281     2.0     2.7
   53   0.0000002629527  -0.2447324161986     1.9     2.7
   54   0.0000006698084  -0.2447326140771     2.0     2.7
   55   0.0000017821214  -0.2447321340571     1.9     2.6
 MICROCYCLE DIIS UPDATE:                   55                    5
   56   0.0000000253251  -0.2447324761466     1.8     2.6
 -----------------------------------------------------------------
 Iterations converged
 CCSD correlation energy / hartree =        -0.244732476146617
 CCSD total energy / hartree       =       -75.970063891888245

 Singles contributions

 Doubles contributions
     6a   (alpha)     6a   (beta ) ---     5a   (alpha)     5a   (beta )       -0.7350231265
     6a   (alpha)     7a   (beta ) ---     4a   (alpha)     5a   (beta )       -0.0228786856
     6a   (alpha)     7a   (beta ) ---     5a   (alpha)     4a   (beta )       -0.0210314034
     7a   (alpha)     8a   (alpha) ---     3a   (alpha)     4a   (alpha)        0.0331525621
     7a   (alpha)     6a   (beta ) ---     4a   (alpha)     5a   (beta )       -0.0210314034
     7a   (alpha)     6a   (beta ) ---     5a   (alpha)     4a   (beta )       -0.0228786856
     7a   (alpha)     7a   (beta ) ---     4a   (alpha)     4a   (beta )       -0.0933586032
     7a   (alpha)     8a   (beta ) ---     4a   (alpha)     3a   (beta )       -0.0425094230
     8a   (alpha)     7a   (beta ) ---     3a   (alpha)     4a   (beta )       -0.0425094230
     8a   (alpha)     8a   (beta ) ---     3a   (alpha)     3a   (beta )       -0.0591751005
 Ground state specification:
 exp(T)|Ref>~(1+T)|Ref>
 ------- a(p)+/a(q) strings ----------

 singles norm

 doubles norm

 Reference string
  0.80575521111865744      :(1a)+ (2a)+ (3a)+ (4a)+ (5a)+ (1b)+ (2b)+ (3b)+ (4b)+ (5b)+ |0>

 Singles strings

 Doubles strings
 -0.59224871443940486      :(6a)+ (6b)+ (5b)  (5a)  (1a)+ (2a)+ (3a)+ (4a)+ (5a)+ (1b)+ (2b)+ (3b)+ (4b)+ (5b)+ |0>
 -------------------------------------

 Parallel integral file used      15 records with       0 large values


 Task  times  cpu:      104.6s     wall:      151.4s


                                NWChem Input Module
                                -------------------


 Summary of allocated global arrays
-----------------------------------
  No active global arrays


MA_summarize_allocated_blocks: starting scan ...
MA_summarize_allocated_blocks: scan completed: 0 heap blocks, 0 stack blocks
MA usage statistics:

	allocation statistics:
					      heap	     stack
					      ----	     -----
	current number of blocks	         0	         0
	maximum number of blocks	        18	        42
	current total bytes		         0	         0
	maximum total bytes		  25775960	  38234456
	maximum total K-bytes		     25776	     38235
	maximum total M-bytes		        26	        39


                                     CITATION
                                     --------
                Please cite the following reference when publishing
                           results obtained with NWChem:

          E. Apra, E. J. Bylaska, W. A. de Jong, N. Govind, K. Kowalski,
       T. P. Straatsma, M. Valiev, H. J. J. van Dam, Y. Alexeev, J. Anchell,
       V. Anisimov, F. W. Aquino, R. Atta-Fynn, J. Autschbach, N. P. Bauman,
     J. C. Becca, D. E. Bernholdt, K. Bhaskaran-Nair, S. Bogatko, P. Borowski,
         J. Boschen, J. Brabec, A. Bruner, E. Cauet, Y. Chen, G. N. Chuev,
      C. J. Cramer, J. Daily, M. J. O. Deegan, T. H. Dunning Jr., M. Dupuis,
   K. G. Dyall, G. I. Fann, S. A. Fischer, A. Fonari, H. Fruchtl, L. Gagliardi,
      J. Garza, N. Gawande, S. Ghosh, K. Glaesemann, A. W. Gotz, J. Hammond,
       V. Helms, E. D. Hermes, K. Hirao, S. Hirata, M. Jacquelin, L. Jensen,
   B. G. Johnson, H. Jonsson, R. A. Kendall, M. Klemm, R. Kobayashi, V. Konkov,
      S. Krishnamoorthy, M. Krishnan, Z. Lin, R. D. Lins, R. J. Littlefield,
      A. J. Logsdail, K. Lopata, W. Ma, A. V. Marenich, J. Martin del Campo,
   D. Mejia-Rodriguez, J. E. Moore, J. M. Mullin, T. Nakajima, D. R. Nascimento,
    J. A. Nichols, P. J. Nichols, J. Nieplocha, A. Otero-de-la-Roza, B. Palmer,
    A. Panyala, T. Pirojsirikul, B. Peng, R. Peverati, J. Pittner, L. Pollack,
   R. M. Richard, P. Sadayappan, G. C. Schatz, W. A. Shelton, D. W. Silverstein,
   D. M. A. Smith, T. A. Soares, D. Song, M. Swart, H. L. Taylor, G. S. Thomas,
            V. Tipparaju, D. G. Truhlar, K. Tsemekhman, T. Van Voorhis,
      A. Vazquez-Mayagoitia, P. Verma, O. Villa, A. Vishnu, K. D. Vogiatzis,
        D. Wang, J. H. Weare, M. J. Williamson, T. L. Windus, K. Wolinski,
        A. T. Wong, Q. Wu, C. Yang, Q. Yu, M. Zacharias, Z. Zhang, Y. Zhao,
                                and R. J. Harrison
                        "NWChem: Past, present, and future
                         J. Chem. Phys. 152, 184102 (2020)
                               doi:10.1063/5.0004997

                                      AUTHORS
                                      -------
  E. Apra, E. J. Bylaska, N. Govind, K. Kowalski, M. Valiev, D. Mejia-Rodriguez,
       A. Kunitsa, N. P. Bauman, A. Panyala, W. A. de Jong, T. P. Straatsma,
        H. J. J. van Dam, D. Wang, T. L. Windus, J. Hammond, J. Autschbach,
    K. Bhaskaran-Nair, J. Brabec, K. Lopata, S. A. Fischer, S. Krishnamoorthy,
     M. Jacquelin, W. Ma, M. Klemm, O. Villa, Y. Chen, V. Anisimov, F. Aquino,
    S. Hirata, M. T. Hackler, Eric Hermes, L. Jensen, J. E. Moore, J. C. Becca,
      V. Konjkov, T. Risthaus, M. Malagoli, A. Marenich, A. Otero-de-la-Roza,
        J. Mullin, P. Nichols, R. Peverati, J. Pittner, Y. Zhao, P.-D. Fan,
        A. Fonari, M. J. Williamson, R. J. Harrison, J. R. Rehr, M. Dupuis,
     D. Silverstein, D. M. A. Smith, J. Nieplocha, V. Tipparaju, M. Krishnan,
     B. E. Van Kuiken, A. Vazquez-Mayagoitia, M. Swart, Q. Wu, T. Van Voorhis,
     A. A. Auer, M. Nooijen, L. D. Crosby, E. Brown, G. Cisneros, G. I. Fann,
   H. Fruchtl, J. Garza, K. Hirao, R. A. Kendall, J. A. Nichols, K. Tsemekhman,
    K. Wolinski, J. Anchell, D. E. Bernholdt, P. Borowski, T. Clark, D. Clerc,
   H. Dachsel, M. J. O. Deegan, K. Dyall, D. Elwood, E. Glendening, M. Gutowski,
   A. C. Hess, J. Jaffe, B. G. Johnson, J. Ju, R. Kobayashi, R. Kutteh, Z. Lin,
   R. Littlefield, X. Long, B. Meng, T. Nakajima, S. Niu, L. Pollack, M. Rosing,
   K. Glaesemann, G. Sandrone, M. Stave, H. Taylor, G. Thomas, J. H. van Lenthe,
                               A. T. Wong, Z. Zhang.

 Total times  cpu:      108.2s     wall:      158.3s
