 argument  1 = input.nw
  NWChem w/ OpenMP: maximum threads =    1



============================== echo of input deck ==============================
 echo
 start H2O
 title "H2O"

 memory total 24 gb

 geometry units bohr
 symmetry c1
        O  0.00000000  0.00000000  0.00000000
        H  0.00000000  4.756101  0.00000000
        H  1.72558000 -0.64860000  0.00000000
 end

 basis spherical
   * library cc-pVTZ
 end

 mcscf
   active  8
   actelec 10
   multiplicity 1
   maxiter 40
   vectors input h2o.mos
   vectors output h2o.mos
 end

 task mcscf

 scf
   vectors input h2o.mos
   vectors output h2o-trash.mos
   noscf
 end

 tce
   2eorb
   2emet 13
   ccsd
   maxiter 300
 end

 set tce:print_integrals T
 set tce:qorb 8
 set tce:qela 5
 set tce:qelb 5

# set tce:qducc T
# set tce:nactv 3
# set tce:nonhf T
# set tce:ducc_model 6

 set tce:printtol 0.02

 task tce
================================================================================


                                         
                                         


             Northwest Computational Chemistry Package (NWChem) 7.0.1
             --------------------------------------------------------


                    Environmental Molecular Sciences Laboratory
                       Pacific Northwest National Laboratory
                                Richland, WA 99352

                              Copyright (c) 1994-2020
                       Pacific Northwest National Laboratory
                            Battelle Memorial Institute

             NWChem is an open-source computational chemistry package
                        distributed under the terms of the
                      Educational Community License (ECL) 2.0
             A copy of the license is included with this distribution
                              in the LICENSE.TXT file

                                  ACKNOWLEDGMENT
                                  --------------

            This software and its documentation were developed at the
            EMSL at Pacific Northwest National Laboratory, a multiprogram
            national laboratory, operated for the U.S. Department of Energy
            by Battelle under Contract Number DE-AC05-76RL01830. Support
            for this work was provided by the Department of Energy Office
            of Biological and Environmental Research, Office of Basic
            Energy Sciences, and the Office of Advanced Scientific Computing.


           Job information
           ---------------

    hostname        = WE46210
    program         = /home/baum612/code/nwchem/bin/LINUX64/nwchem
    date            = Thu May  2 13:28:55 2024

    compiled        = Tue_Apr_30_12:43:26_2024
    source          = /home/baum612/code/nwchem
    nwchem branch   = 7.0.0
    nwchem revision = nwchem_on_git-4191-g39d87d64de
    ga revision     = 5.8.1
    use scalapack   = F
    input           = input.nw
    prefix          = H2O.
    data base       = ./H2O.db
    status          = startup
    nproc           =        1
    time left       =     -1s



           Memory information
           ------------------

    heap     =  805306362 doubles =   6144.0 Mbytes
    stack    =  805306367 doubles =   6144.0 Mbytes
    global   = 1610612736 doubles =  12288.0 Mbytes (distinct from heap & stack)
    total    = 3221225465 doubles =  24576.0 Mbytes
    verify   = yes
    hardfail = no 


           Directory information
           ---------------------

  0 permanent = .
  0 scratch   = .




                                NWChem Input Module
                                -------------------


                                        H2O
                                        ---
 Turning off AUTOSYM since
 SYMMETRY directive was detected!


          ------
          auto-z
          ------
  autoz: The atoms group into disjoint clusters
 cluster   1:    1    3
 cluster   2:    2
 Connecting clusters   1   2 via atoms    1    2 r = 2.52
  autoz: regenerating connections with new bonds
  no constraints, skipping    0.0000000000000000     
  no constraints, skipping    0.0000000000000000     


                             Geometry "geometry" -> ""
                             -------------------------

 Output coordinates in a.u. (scale by  1.000000000 to convert to a.u.)

  No.       Tag          Charge          X              Y              Z
 ---- ---------------- ---------- -------------- -------------- --------------
    1 O                    8.0000    -0.17255800    -0.41075010     0.00000000
    2 H                    1.0000    -0.17255800     4.34535090     0.00000000
    3 H                    1.0000     1.55302200    -1.05935010     0.00000000

      Atomic Mass 
      ----------- 

      O                 15.994910
      H                  1.007825


 Effective nuclear repulsion energy (a.u.)       6.1979975269

            Nuclear Dipole moment (a.u.) 
            ----------------------------
        X                 Y               Z
 ---------------- ---------------- ----------------
    -0.0000000000    -0.0000000000     0.0000000000



                                Z-matrix (autoz)
                                -------- 

 Units are Angstrom for bonds and degrees for angles

      Type          Name      I     J     K     L     M      Value
      ----------- --------  ----- ----- ----- ----- ----- ----------
    1 Stretch                  1     2                       2.51682
    2 Stretch                  1     3                       0.97551
    3 Bend                     2     1     3               110.59992


            XYZ format geometry
            -------------------
     3
 geometry
 O                    -0.09131377    -0.21735961     0.00000000
 H                    -0.09131377     2.29946084     0.00000000
 H                     0.82182391    -0.56058397     0.00000000

 ==============================================================================
                                internuclear distances
 ------------------------------------------------------------------------------
       center one      |      center two      | atomic units |       a.u.
 ------------------------------------------------------------------------------
    3 H                |   1 O                |     1.84345  |     1.84345
 ------------------------------------------------------------------------------
                         number of included internuclear distances:          1
 ==============================================================================





 Summary of "ao basis" -> "" (spherical)
 ------------------------------------------------------------------------------
       Tag                 Description            Shells   Functions and Types
 ---------------- ------------------------------  ------  ---------------------
 *                          cc-pVTZ                   on all atoms 


                      Basis "ao basis" -> "ao basis" (spherical)
                      -----
  O (Oxygen)
  ----------
            Exponent  Coefficients 
       -------------- ---------------------------------------------------------
  1 S  1.53300000E+04  0.000508
  1 S  2.29900000E+03  0.003929
  1 S  5.22400000E+02  0.020243
  1 S  1.47300000E+02  0.079181
  1 S  4.75500000E+01  0.230687
  1 S  1.67600000E+01  0.433118
  1 S  6.20700000E+00  0.350260
  1 S  6.88200000E-01 -0.008154

  2 S  1.53300000E+04 -0.000115
  2 S  2.29900000E+03 -0.000895
  2 S  5.22400000E+02 -0.004636
  2 S  1.47300000E+02 -0.018724
  2 S  4.75500000E+01 -0.058463
  2 S  1.67600000E+01 -0.136463
  2 S  6.20700000E+00 -0.175740
  2 S  6.88200000E-01  0.603418

  3 S  1.75200000E+00  1.000000

  4 S  2.38400000E-01  1.000000

  5 P  3.44600000E+01  0.015928
  5 P  7.74900000E+00  0.099740
  5 P  2.28000000E+00  0.310492

  6 P  7.15600000E-01  1.000000

  7 P  2.14000000E-01  1.000000

  8 D  2.31400000E+00  1.000000

  9 D  6.45000000E-01  1.000000

 10 F  1.42800000E+00  1.000000

  H (Hydrogen)
  ------------
            Exponent  Coefficients 
       -------------- ---------------------------------------------------------
  1 S  3.38700000E+01  0.006068
  1 S  5.09500000E+00  0.045308
  1 S  1.15900000E+00  0.202822

  2 S  3.25800000E-01  1.000000

  3 S  1.02700000E-01  1.000000

  4 P  1.40700000E+00  1.000000

  5 P  3.88000000E-01  1.000000

  6 D  1.05700000E+00  1.000000



 Summary of "ao basis" -> "ao basis" (spherical)
 ------------------------------------------------------------------------------
       Tag                 Description            Shells   Functions and Types
 ---------------- ------------------------------  ------  ---------------------
 O                          cc-pVTZ                 10       30   4s3p2d1f
 H                          cc-pVTZ                  6       14   3s2p1d



                            NWChem Direct MCSCF Module
                            --------------------------


                                        H2O


     -----------------------------------
       Basis functions:             58
       Inactive shells:              0
       Active shells:                8
       Active electrons:            10
       Symmetry:                    a       
       Multiplicity:                 1
       Orbital rotations:          400
     -----------------------------------

     -----------------------------------
       E2 extrapolation:             F
       Conjugacy:                    T
       Micro CI relax:               T
       Canonical orbitals:           T
       Maximum iterations:          40
       Converge threshold:    1.00E-04
       Conjugacy resets:            20
       Initial levelshift:        0.10
     -----------------------------------

 Loading old vectors from job with title :

H2O


   input molecular orbitals = ./h2o.mos
  output molecular orbtials = ./h2o.mos

       No. of determinants:          3136


  Starting Orbital Energies
   -20.611527    -1.307328    -0.672613    -0.549602    -0.361500    -0.209098
    -0.026145    -0.012852     0.280888     0.410744     0.630339     0.690312
     0.782278     0.818465     0.844092     0.896225     0.983890     1.205653
     1.345601     1.713042     1.730175     2.029665     2.032736     2.146989
     2.556117     2.746813     3.451049     3.459333     3.459418     3.465680
     3.469199     3.483062     3.490719     3.526072     3.742567     3.877219
     3.901251     3.922470     3.943092     4.013472     4.147184     4.393271
     4.444168     4.720809     5.123589     5.536966     5.538868     5.793724
     5.795403     6.700335     6.713983     6.804664     6.831518     6.872924
     7.027196     7.055404     7.503255    10.790081

  Orbital Symmetry Irreps
a    a    a    a    a    a    a    a    a    a    a    a    a    a    a   
a    a    a    a    a    a    a    a    a    a    a    a    a    a    a   
a    a    a    a    a    a    a    a    a    a    a    a    a    a    a   
a    a    a    a    a    a    a    a    a    a    a    a    a   

 Integral file          = ./H2O.aoints.0
 Record size in doubles =  65536        No. of integs per rec  =  43688
 Max. records in memory =     49        Max. records in file   = 250649
 No. of bits per label  =      8        No. of bits per value  =     64


 #quartets = 3.147D+04 #integrals = 5.803D+05 #direct =  0.0% #cached =100.0%




          %%%%% MacroIteration   1 %%%%%


          Number of sigma calls:       23
                       o<<<<< (aa):             0.00
                       o<<<<< (bb):             0.00
                       o<<<<< (ab):             0.05
                       o<<<<< (total)           0.06
                       o<<<<< (aa) ff           0.00
                       o<<<<< (aa) gop          0.00
                       o<<<<< (aa) dot          0.00
                       o<<<<< (ab) str          0.00
                       o<<<<< (ab) gath         0.00
                       o<<<<< (ab) dotab        0.00
                       o<<<<< (ab) scat         0.00
                       o<<<<< (ab) sync         0.00
                       o<<<<< Density           0.01
                       o<<<<< Density one       0.00
                       o<<<<< Density two       0.00
                       o<<<<< Density ab        0.00
                       o<<<<< Spin adapt        0.27
                       o<<<<< Symm adapt        0.00

                       o<<<<< (ab) max sync:      0.00

           >>>| Valence CI:            -82.168790716257
           >>>| MCSCF energy:          -75.970793189353
           >>>| Gradient norm:          0.118530765D-02
     --- Warning:    2 Hessian diagonals < 0.05 ---

                              ----- Line search ------

        step       energy         lsg     num-lsg   num-lsh   lsrat    time
      ------- ---------------- --------- --------- --------- ------- --------
       0.0000     -75.97079319 -3.66D-07  0.00D+00  0.00D+00 0.0D+00      0.9

          Number of sigma calls:       21
                       o<<<<< (aa):             0.00
                       o<<<<< (bb):             0.00
                       o<<<<< (ab):             0.05
                       o<<<<< (total)           0.05
                       o<<<<< (aa) ff           0.00
                       o<<<<< (aa) gop          0.00
                       o<<<<< (aa) dot          0.00
                       o<<<<< (ab) str          0.00
                       o<<<<< (ab) gath         0.00
                       o<<<<< (ab) dotab        0.00
                       o<<<<< (ab) scat         0.00
                       o<<<<< (ab) sync         0.00
                       o<<<<< Density           0.01
                       o<<<<< Density one       0.00
                       o<<<<< Density two       0.00
                       o<<<<< Density ab        0.00
                       o<<<<< Spin adapt        0.26
                       o<<<<< Symm adapt        0.00

                       o<<<<< (ab) max sync:      0.00
       1.0000     -75.97079340 -4.63D-08 -4.63D-08  3.20D-07 1.3D-01      1.2

          Number of sigma calls:       16
                       o<<<<< (aa):             0.00
                       o<<<<< (bb):             0.00
                       o<<<<< (ab):             0.05
                       o<<<<< (total)           0.05
                       o<<<<< (aa) ff           0.00
                       o<<<<< (aa) gop          0.00
                       o<<<<< (aa) dot          0.00
                       o<<<<< (ab) str          0.00
                       o<<<<< (ab) gath         0.00
                       o<<<<< (ab) dotab        0.00
                       o<<<<< (ab) scat         0.00
                       o<<<<< (ab) sync         0.00
                       o<<<<< Density           0.01
                       o<<<<< Density one       0.00
                       o<<<<< Density two       0.00
                       o<<<<< Density ab        0.01
                       o<<<<< Spin adapt        0.50
                       o<<<<< Symm adapt        0.00

                       o<<<<< (ab) max sync:      0.00
       1.1445     -75.97079340  1.73D-11  1.68D-11  3.20D-07 4.7D-05      1.9
     --- Orbitals canonicalized ---



          %%%%% MacroIteration   2 %%%%%


          Number of sigma calls:       22
                       o<<<<< (aa):             0.00
                       o<<<<< (bb):             0.00
                       o<<<<< (ab):             0.05
                       o<<<<< (total)           0.05
                       o<<<<< (aa) ff           0.00
                       o<<<<< (aa) gop          0.00
                       o<<<<< (aa) dot          0.00
                       o<<<<< (ab) str          0.00
                       o<<<<< (ab) gath         0.00
                       o<<<<< (ab) dotab        0.00
                       o<<<<< (ab) scat         0.00
                       o<<<<< (ab) sync         0.00
                       o<<<<< Density           0.00
                       o<<<<< Density one       0.00
                       o<<<<< Density two       0.00
                       o<<<<< Density ab        0.00
                       o<<<<< Spin adapt        0.30
                       o<<<<< Symm adapt        0.00

                       o<<<<< (ab) max sync:      0.00

           >>>| Valence CI:            -82.168790925963
           >>>| MCSCF energy:          -75.970793399059
           >>>| Gradient norm:          0.145415028D-03
     --- Warning:    4 Hessian diagonals < 0.05 ---
     --- Conjugacy reset ---

                              ----- Line search ------

        step       energy         lsg     num-lsg   num-lsh   lsrat    time
      ------- ---------------- --------- --------- --------- ------- --------
       0.0000     -75.97079340 -6.59D-09  0.00D+00  0.00D+00 0.0D+00      2.4

          Number of sigma calls:       13
                       o<<<<< (aa):             0.00
                       o<<<<< (bb):             0.00
                       o<<<<< (ab):             0.03
                       o<<<<< (total)           0.03
                       o<<<<< (aa) ff           0.00
                       o<<<<< (aa) gop          0.00
                       o<<<<< (aa) dot          0.00
                       o<<<<< (ab) str          0.00
                       o<<<<< (ab) gath         0.00
                       o<<<<< (ab) dotab        0.00
                       o<<<<< (ab) scat         0.00
                       o<<<<< (ab) sync         0.00
                       o<<<<< Density           0.01
                       o<<<<< Density one       0.00
                       o<<<<< Density two       0.00
                       o<<<<< Density ab        0.01
                       o<<<<< Spin adapt        0.14
                       o<<<<< Symm adapt        0.00

                       o<<<<< (ab) max sync:      0.00
       1.0000     -75.97079340 -1.03D-09 -1.04D-09  5.55D-09 1.6D-01      2.6

          Number of sigma calls:       11
                       o<<<<< (aa):             0.00
                       o<<<<< (bb):             0.00
                       o<<<<< (ab):             0.03
                       o<<<<< (total)           0.04
                       o<<<<< (aa) ff           0.00
                       o<<<<< (aa) gop          0.00
                       o<<<<< (aa) dot          0.00
                       o<<<<< (ab) str          0.00
                       o<<<<< (ab) gath         0.00
                       o<<<<< (ab) dotab        0.00
                       o<<<<< (ab) scat         0.00
                       o<<<<< (ab) sync         0.00
                       o<<<<< Density           0.01
                       o<<<<< Density one       0.00
                       o<<<<< Density two       0.00
                       o<<<<< Density ab        0.01
                       o<<<<< Spin adapt        0.20
                       o<<<<< Symm adapt        0.00

                       o<<<<< (ab) max sync:      0.00
       1.1863     -75.97079340  1.07D-12 -9.15D-13  5.56D-09 1.6D-04      3.0



          %%%%% MacroIteration   3 %%%%%


          Number of sigma calls:        1
                       o<<<<< (aa):             0.00
                       o<<<<< (bb):             0.00
                       o<<<<< (ab):             0.00
                       o<<<<< (total)           0.00
                       o<<<<< (aa) ff           0.00
                       o<<<<< (aa) gop          0.00
                       o<<<<< (aa) dot          0.00
                       o<<<<< (ab) str          0.00
                       o<<<<< (ab) gath         0.00
                       o<<<<< (ab) dotab        0.00
                       o<<<<< (ab) scat         0.00
                       o<<<<< (ab) sync         0.00
                       o<<<<< Density           0.01
                       o<<<<< Density one       0.00
                       o<<<<< Density two       0.00
                       o<<<<< Density ab        0.01
                       o<<<<< Spin adapt        0.00
                       o<<<<< Symm adapt        0.00

                       o<<<<< (ab) max sync:      0.00

           >>>| Valence CI:            -82.168790929874
           >>>| MCSCF energy:          -75.970793402971
           >>>| Gradient norm:          0.283552686D-04




     ==============================
            MCSCF Converged
     ==============================



          Canonical Eigenvalues

              1      
    1  -20.6115
    2   -1.3073
    3   -0.6726
    4   -0.5496
    5   -0.3607
    6   -0.2100
    7   -0.0261
    8   -0.0128
    9    0.2807
   10    0.4111
   11    0.6306
   12    0.6895
   13    0.7825
   14    0.8179
   15    0.8438
   16    0.8958
   17    0.9841
   18    1.2028
   19    1.3455
   20    1.7129
   21    1.7295
   22    2.0296
   23    2.0327
   24    2.1468
   25    2.5559
   26    2.7465
   27    3.4514
   28    3.4594
   29    3.4595
   30    3.4657
   31    3.4689
   32    3.4830
   33    3.4900
   34    3.5256
   35    3.7426
   36    3.8774
   37    3.9010
   38    3.9199
   39    3.9426
   40    4.0133
   41    4.1461
   42    4.3932
   43    4.4438
   44    4.7207
   45    5.1226
   46    5.5369
   47    5.5387
   48    5.7937
   49    5.7953
   50    6.7003
   51    6.7133
   52    6.8046
   53    6.8315
   54    6.8721
   55    7.0271
   56    7.0554
   57    7.5030
   58   10.7895


          Converged CI vector

   Index           Coefficient          Config. Occupation
         1          0.69308458          1  2  3  4  5  1  2  3  4  5
         2          0.35567845          1  2  3  4  5  1  2  3  4  6
        23          0.03991026          1  2  3  4  5  1  2  3  5  8
         9          0.02606613          1  2  3  4  5  1  2  4  5  7
        41          0.02060376          1  2  3  4  5  1  2  5  7  8
        57          0.35567845          1  2  3  4  6  1  2  3  4  5
        58         -0.48764683          1  2  3  4  6  1  2  3  4  6
        83         -0.03241051          1  2  3  4  6  1  2  3  6  8
        69         -0.02173373          1  2  3  4  6  1  2  4  6  7
      1233          0.03991026          1  2  3  5  8  1  2  3  4  5
      1255         -0.03943342          1  2  3  5  8  1  2  3  5  8
      1259         -0.02096198          1  2  3  5  8  1  2  3  6  8
      1241         -0.02501484          1  2  3  5  8  1  2  4  5  7
      1458         -0.03241051          1  2  3  6  8  1  2  3  4  6
      1479         -0.02096198          1  2  3  6  8  1  2  3  5  8
      1483          0.02910775          1  2  3  6  8  1  2  3  6  8
       449          0.02606613          1  2  4  5  7  1  2  3  4  5
       471         -0.02501484          1  2  4  5  7  1  2  3  5  8
       457         -0.05268094          1  2  4  5  7  1  2  4  5  7
       461         -0.02758929          1  2  4  5  7  1  2  4  6  7
       458          0.02207845          1  2  4  5  7  1  3  4  5  7
       674         -0.02173373          1  2  4  6  7  1  2  3  4  6
       681         -0.02758929          1  2  4  6  7  1  2  4  5  7
       685          0.03796139          1  2  4  6  7  1  2  4  6  7
      2241          0.02060376          1  2  5  7  8  1  2  3  4  5
       513          0.02207845          1  3  4  5  7  1  2  4  5  7
       514         -0.02074501          1  3  4  5  7  1  3  4  5  7

          Number of sigma calls:        1
                       o<<<<< (aa):             0.00
                       o<<<<< (bb):             0.00
                       o<<<<< (ab):             0.00
                       o<<<<< (total)           0.00
                       o<<<<< (aa) ff           0.00
                       o<<<<< (aa) gop          0.00
                       o<<<<< (aa) dot          0.00
                       o<<<<< (ab) str          0.00
                       o<<<<< (ab) gath         0.00
                       o<<<<< (ab) dotab        0.00
                       o<<<<< (ab) scat         0.00
                       o<<<<< (ab) sync         0.00
                       o<<<<< Density           0.01
                       o<<<<< Density one       0.00
                       o<<<<< Density two       0.00
                       o<<<<< Density ab        0.01
                       o<<<<< Spin adapt        0.00
                       o<<<<< Symm adapt        0.00

                       o<<<<< (ab) max sync:      0.00



          Natural orbital occupation numbers

              1      
    1    2.0000
    2    1.9988
    3    1.9853
    4    1.9747
    5    1.2894
    6    0.7108
    7    0.0264
    8    0.0146


          Number of sigma calls:       23
                       o<<<<< (aa):             0.00
                       o<<<<< (bb):             0.00
                       o<<<<< (ab):             0.05
                       o<<<<< (total)           0.06
                       o<<<<< (aa) ff           0.00
                       o<<<<< (aa) gop          0.00
                       o<<<<< (aa) dot          0.00
                       o<<<<< (ab) str          0.00
                       o<<<<< (ab) gath         0.00
                       o<<<<< (ab) dotab        0.00
                       o<<<<< (ab) scat         0.00
                       o<<<<< (ab) sync         0.00
                       o<<<<< Density           0.01
                       o<<<<< Density one       0.00
                       o<<<<< Density two       0.00
                       o<<<<< Density ab        0.01
                       o<<<<< Spin adapt        0.32
                       o<<<<< Symm adapt        0.00

                       o<<<<< (ab) max sync:      0.00


       Final MCSCF results 
       ------------------- 

       Total MCSCF energy =    -75.970793402970
            Gradient norm =      2.8D-05

    CPU time for solution =      3.6s
   Wall time for solution =      6.8s



                        Analysis of MCSCF natural orbitals
                        ----------------------------------

 Vector    1  Occ=1.999992D+00  E=-2.061152D+01  Symmetry=a
              MO Center= -9.1D-02, -2.2D-01, -5.4D-14, r^2= 1.5D-02
   Bfn.  Coefficient  Atom+Function         Bfn.  Coefficient  Atom+Function  
  ----- ------------  ---------------      ----- ------------  ---------------
     1      0.973946  1 O  s          

 Vector    2  Occ=1.998812D+00  E=-1.307348D+00  Symmetry=a
              MO Center= -2.6D-01, -1.6D-01,  5.9D-11, r^2= 4.2D-01
   Bfn.  Coefficient  Atom+Function         Bfn.  Coefficient  Atom+Function  
  ----- ------------  ---------------      ----- ------------  ---------------
     2      0.552499  1 O  s                  4      0.401894  1 O  s          
     3      0.154210  1 O  s          

 Vector    3  Occ=1.985266D+00  E=-6.726328D-01  Symmetry=a
              MO Center= -6.2D-02, -2.3D-01, -5.8D-11, r^2= 6.2D-01
   Bfn.  Coefficient  Atom+Function         Bfn.  Coefficient  Atom+Function  
  ----- ------------  ---------------      ----- ------------  ---------------
    10      0.448524  1 O  pz                13      0.378410  1 O  pz         
     7      0.369828  1 O  pz         

 Vector    4  Occ=1.974748D+00  E=-5.496304D-01  Symmetry=a
              MO Center=  3.3D-01, -3.7D-01, -1.8D-12, r^2= 5.8D-01
   Bfn.  Coefficient  Atom+Function         Bfn.  Coefficient  Atom+Function  
  ----- ------------  ---------------      ----- ------------  ---------------
     8      0.330570  1 O  px                46      0.284101  3 H  s          
     5      0.275837  1 O  px                45      0.188532  3 H  s          
    11      0.177473  1 O  px         

 Vector    5  Occ=1.289439D+00  E=-3.606668D-01  Symmetry=a
              MO Center= -7.2D-02,  1.0D+00, -3.1D-13, r^2= 2.2D+00
   Bfn.  Coefficient  Atom+Function         Bfn.  Coefficient  Atom+Function  
  ----- ------------  ---------------      ----- ------------  ---------------
    32      0.330161  2 H  s                  9      0.311092  1 O  py         
    33      0.270001  2 H  s                  6      0.242906  1 O  py         
    12      0.212958  1 O  py                31      0.159339  2 H  s          

 Vector    6  Occ=7.107890D-01  E=-2.099802D-01  Symmetry=a
              MO Center= -8.0D-02,  1.1D+00, -5.9D-13, r^2= 2.3D+00
   Bfn.  Coefficient  Atom+Function         Bfn.  Coefficient  Atom+Function  
  ----- ------------  ---------------      ----- ------------  ---------------
    32      0.383389  2 H  s                  9     -0.346147  1 O  py         
    33      0.273234  2 H  s                  6     -0.268140  1 O  py         
    12     -0.212040  1 O  py                31      0.177591  2 H  s          

 Vector    7  Occ=2.637765D-02  E=-2.614347D-02  Symmetry=a
              MO Center=  5.1D-01, -4.4D-01, -4.3D-13, r^2= 5.9D-01
   Bfn.  Coefficient  Atom+Function         Bfn.  Coefficient  Atom+Function  
  ----- ------------  ---------------      ----- ------------  ---------------
    46      0.703660  3 H  s                  5     -0.477964  1 O  px         
     8     -0.418715  1 O  px                45      0.349970  3 H  s          
     2     -0.289364  1 O  s                  4     -0.255307  1 O  s          
     6      0.173237  1 O  py                 9      0.153442  1 O  py         

 Vector    8  Occ=1.457666D-02  E=-1.284739D-02  Symmetry=a
              MO Center=  5.2D-02, -2.7D-01, -7.9D-11, r^2= 1.2D+00
   Bfn.  Coefficient  Atom+Function         Bfn.  Coefficient  Atom+Function  
  ----- ------------  ---------------      ----- ------------  ---------------
    13      0.801012  1 O  pz                 7     -0.644633  1 O  pz         
    10     -0.268498  1 O  pz                53      0.170898  3 H  pz         

 Vector    9  Occ=0.000000D+00  E= 2.806708D-01  Symmetry=a
              MO Center=  1.1D+00, -6.3D-01,  3.3D-11, r^2= 3.7D+00
   Bfn.  Coefficient  Atom+Function         Bfn.  Coefficient  Atom+Function  
  ----- ------------  ---------------      ----- ------------  ---------------
    47      1.929030  3 H  s                  4     -1.226950  1 O  s          
    11     -0.542424  1 O  px                51     -0.406550  3 H  px         
    46     -0.266391  3 H  s                 32     -0.173335  2 H  s          
    52      0.167004  3 H  py                12      0.157919  1 O  py         

 Vector   10  Occ=0.000000D+00  E= 4.110820D-01  Symmetry=a
              MO Center= -8.8D-02,  2.4D+00,  1.9D-13, r^2= 3.4D+00
   Bfn.  Coefficient  Atom+Function         Bfn.  Coefficient  Atom+Function  
  ----- ------------  ---------------      ----- ------------  ---------------
    33      1.691290  2 H  s                 32     -1.372711  2 H  s          
    47     -0.454961  3 H  s                 46      0.284918  3 H  s          
    12     -0.243516  1 O  py         

 Vector   11  Occ=0.000000D+00  E= 6.306483D-01  Symmetry=a
              MO Center= -5.9D-01,  4.1D-01, -3.2D-12, r^2= 2.4D+00
   Bfn.  Coefficient  Atom+Function         Bfn.  Coefficient  Atom+Function  
  ----- ------------  ---------------      ----- ------------  ---------------
    46      2.785839  3 H  s                  4     -2.196185  1 O  s          
    11     -2.190464  1 O  px                51     -0.846459  3 H  px         
    12      0.837302  1 O  py                37     -0.333563  2 H  px         
    47      0.291313  3 H  s                 52      0.282001  3 H  py         
    23     -0.194212  1 O  d  2               2     -0.171093  1 O  s          

 Vector   12  Occ=0.000000D+00  E= 6.894870D-01  Symmetry=a
              MO Center= -8.3D-02,  1.1D+00, -7.2D-13, r^2= 2.6D+00
   Bfn.  Coefficient  Atom+Function         Bfn.  Coefficient  Atom+Function  
  ----- ------------  ---------------      ----- ------------  ---------------
     4      0.859945  1 O  s                 11      0.711235  1 O  px         
    38     -0.644075  2 H  py                46     -0.602930  3 H  s          
    12      0.589521  1 O  py                 9     -0.497198  1 O  py         
    47     -0.301348  3 H  s                 51      0.242917  3 H  px         
    52     -0.224468  3 H  py                37      0.152829  2 H  px         

 Vector   13  Occ=0.000000D+00  E= 7.825029D-01  Symmetry=a
              MO Center= -2.4D-02,  2.0D+00,  1.6D-12, r^2= 1.7D+00
   Bfn.  Coefficient  Atom+Function         Bfn.  Coefficient  Atom+Function  
  ----- ------------  ---------------      ----- ------------  ---------------
    39      0.997980  2 H  pz                53     -0.397314  3 H  pz         
    13      0.249629  1 O  pz         

 Vector   14  Occ=0.000000D+00  E= 8.179443D-01  Symmetry=a
              MO Center= -1.5D-01,  1.7D+00, -1.7D-12, r^2= 2.4D+00
   Bfn.  Coefficient  Atom+Function         Bfn.  Coefficient  Atom+Function  
  ----- ------------  ---------------      ----- ------------  ---------------
    46      1.149257  3 H  s                 11     -1.002048  1 O  px         
     4     -0.948994  1 O  s                 37      0.949566  2 H  px         
    52      0.428581  3 H  py                12      0.236476  1 O  py         
    51     -0.234196  3 H  px         

 Vector   15  Occ=0.000000D+00  E= 8.438361D-01  Symmetry=a
              MO Center=  6.6D-01, -1.6D-01,  9.8D-13, r^2= 2.1D+00
   Bfn.  Coefficient  Atom+Function         Bfn.  Coefficient  Atom+Function  
  ----- ------------  ---------------      ----- ------------  ---------------
    52      0.963417  3 H  py                 4     -0.650103  1 O  s          
     9     -0.351673  1 O  py                46      0.325154  3 H  s          
    37     -0.290140  2 H  px                38      0.285785  2 H  py         
    47      0.275793  3 H  s                  8     -0.257613  1 O  px         
    12      0.224113  1 O  py                33     -0.170424  2 H  s          

 Vector   16  Occ=0.000000D+00  E= 8.958236D-01  Symmetry=a
              MO Center=  4.0D-01, -1.5D-01, -3.6D-12, r^2= 2.4D+00
   Bfn.  Coefficient  Atom+Function         Bfn.  Coefficient  Atom+Function  
  ----- ------------  ---------------      ----- ------------  ---------------
    53      1.184430  3 H  pz                13     -0.918098  1 O  pz         
    39      0.357348  2 H  pz         

 Vector   17  Occ=0.000000D+00  E= 9.840643D-01  Symmetry=a
              MO Center= -8.4D-02, -3.7D-01,  2.4D-11, r^2= 2.9D+00
   Bfn.  Coefficient  Atom+Function         Bfn.  Coefficient  Atom+Function  
  ----- ------------  ---------------      ----- ------------  ---------------
     4      2.883245  1 O  s                 46     -1.814315  3 H  s          
    12     -1.388725  1 O  py                51      1.098655  3 H  px         
    47     -0.807261  3 H  s                 11      0.702085  1 O  px         
     2     -0.672153  1 O  s                  8      0.555538  1 O  px         
    38     -0.518706  2 H  py                52      0.361940  3 H  py         

 Vector   18  Occ=0.000000D+00  E= 1.202839D+00  Symmetry=a
              MO Center= -4.7D-02,  7.4D-01,  3.8D-11, r^2= 2.4D+00
   Bfn.  Coefficient  Atom+Function         Bfn.  Coefficient  Atom+Function  
  ----- ------------  ---------------      ----- ------------  ---------------
     4      3.198290  1 O  s                 46     -1.764817  3 H  s          
     2     -0.939652  1 O  s                 11      0.907509  1 O  px         
    51      0.767027  3 H  px                52     -0.650756  3 H  py         
    38      0.625113  2 H  py                47     -0.547693  3 H  s          
     8      0.518624  1 O  px                 9     -0.455400  1 O  py         


 Wrote Lagrangian and 1- and 2-particle density matrices to ./H2O.mcpdm


     Multipole analysis of the density
     ---------------------------------

     L   x y z        total        nuclear
     -   - - -        -----        -------
     0   0 0 0     -0.000000     10.000000

     1   1 0 0      0.590610     -0.000000
     1   0 1 0     -0.186661     -0.000000
     1   0 0 1      0.000000      0.000000

     2   2 0 0     -4.433795      2.679864
     2   1 1 0     -0.573267     -1.827993
     2   1 0 1     -0.000000      0.000000
     2   0 2 0     -4.390208     21.354022
     2   0 1 1     -0.000000      0.000000
     2   0 0 2     -5.926990      0.000000


  Mulliken analysis of the total density
  --------------------------------------

    Atom       Charge   Shell Charges
 -----------   ------   -------------------------------------------------------
    1 O    8     8.24   1.95  1.06  0.25  0.64  1.22  1.95  1.16  0.00  0.01  0.00
    2 H    1     0.99   0.17  0.48  0.34 -0.00  0.00 -0.00
    3 H    1     0.77   0.25  0.40  0.03  0.02  0.06  0.01

    Mulliken analysis of the active space density
    ---------------------------------------------

    Atom       Charge   Shell Charges
 -----------   ------   -------------------------------------------------------
    1 O    8     8.24   1.95  1.06  0.25  0.64  1.22  1.95  1.16  0.00  0.01  0.00
    2 H    1     0.99   0.17  0.48  0.34 -0.00  0.00 -0.00
    3 H    1     0.77   0.25  0.40  0.03  0.02  0.06  0.01

 Parallel integral file used      14 records with       0 large values


 Task  times  cpu:        3.6s     wall:        6.8s


                                NWChem Input Module
                                -------------------


                                 NWChem SCF Module
                                 -----------------


                                        H2O



  ao basis        = "ao basis"
  functions       =    58
  atoms           =     3
  closed shells   =     5
  open shells     =     0
  charge          =   0.00
  wavefunction    = RHF 
  input vectors   = ./h2o.mos
  output vectors  = ./h2o-trash.mos
  use symmetry    = F
  symmetry adapt  = F


 Summary of "ao basis" -> "ao basis" (spherical)
 ------------------------------------------------------------------------------
       Tag                 Description            Shells   Functions and Types
 ---------------- ------------------------------  ------  ---------------------
 O                          cc-pVTZ                 10       30   4s3p2d1f
 H                          cc-pVTZ                  6       14   3s2p1d



 Forming initial guess at       6.9s


 Loading old vectors from job with title :

H2O


 Starting SCF solution at       6.9s



 ----------------------------------------------
         Quadratically convergent ROHF

 Convergence threshold     :          1.000E-04
 Maximum no. of iterations :           30
 Final Fock-matrix accuracy:          1.000E-07
 ----------------------------------------------


 Integral file          = ./H2O.aoints.0
 Record size in doubles =  65536        No. of integs per rec  =  43688
 Max. records in memory =     49        Max. records in file   = 250685
 No. of bits per label  =      8        No. of bits per value  =     64


 #quartets = 3.086D+04 #integrals = 5.643D+05 #direct =  0.0% #cached =100.0%



       Final RHF  results 
       ------------------ 

         Total SCF energy =    -75.724101391303
      One-electron energy =   -116.863144979724
      Two-electron energy =     34.941046061518
 Nuclear repulsion energy =      6.197997526904

        Time for solution =      0.1s


             Final eigenvalues
             -----------------

              1      
    1  -20.6115
    2   -1.3073
    3   -0.6726
    4   -0.5496
    5   -0.3607
    6   -0.2100
    7   -0.0261
    8   -0.0128
    9    0.2807
   10    0.4111
   11    0.6306
   12    0.6895
   13    0.7825
   14    0.8179
   15    0.8438

                       ROHF Final Molecular Orbital Analysis
                       -------------------------------------

 Vector    2  Occ=2.000000D+00  E=-1.307348D+00
              MO Center= -2.6D-01, -1.6D-01,  5.9D-11, r^2= 4.2D-01
   Bfn.  Coefficient  Atom+Function         Bfn.  Coefficient  Atom+Function  
  ----- ------------  ---------------      ----- ------------  ---------------
     2      0.552499  1 O  s                  4      0.401894  1 O  s          
     3      0.154210  1 O  s          

 Vector    3  Occ=2.000000D+00  E=-6.726328D-01
              MO Center= -6.2D-02, -2.3D-01, -5.8D-11, r^2= 6.2D-01
   Bfn.  Coefficient  Atom+Function         Bfn.  Coefficient  Atom+Function  
  ----- ------------  ---------------      ----- ------------  ---------------
    10      0.448524  1 O  pz                13      0.378410  1 O  pz         
     7      0.369828  1 O  pz         

 Vector    4  Occ=2.000000D+00  E=-5.496304D-01
              MO Center=  3.3D-01, -3.7D-01, -1.8D-12, r^2= 5.8D-01
   Bfn.  Coefficient  Atom+Function         Bfn.  Coefficient  Atom+Function  
  ----- ------------  ---------------      ----- ------------  ---------------
     8      0.330570  1 O  px                46      0.284101  3 H  s          
     5      0.275837  1 O  px                45      0.188532  3 H  s          
    11      0.177473  1 O  px         

 Vector    5  Occ=2.000000D+00  E=-3.606668D-01
              MO Center= -7.2D-02,  1.0D+00, -3.1D-13, r^2= 2.2D+00
   Bfn.  Coefficient  Atom+Function         Bfn.  Coefficient  Atom+Function  
  ----- ------------  ---------------      ----- ------------  ---------------
    32      0.330161  2 H  s                  9      0.311092  1 O  py         
    33      0.270001  2 H  s                  6      0.242906  1 O  py         
    12      0.212958  1 O  py                31      0.159339  2 H  s          

 Vector    6  Occ=0.000000D+00  E=-2.099802D-01
              MO Center= -8.0D-02,  1.1D+00, -5.9D-13, r^2= 2.3D+00
   Bfn.  Coefficient  Atom+Function         Bfn.  Coefficient  Atom+Function  
  ----- ------------  ---------------      ----- ------------  ---------------
    32      0.383389  2 H  s                  9     -0.346147  1 O  py         
    33      0.273234  2 H  s                  6     -0.268140  1 O  py         
    12     -0.212040  1 O  py                31      0.177591  2 H  s          

 Vector    7  Occ=0.000000D+00  E=-2.614347D-02
              MO Center=  5.1D-01, -4.4D-01, -4.3D-13, r^2= 5.9D-01
   Bfn.  Coefficient  Atom+Function         Bfn.  Coefficient  Atom+Function  
  ----- ------------  ---------------      ----- ------------  ---------------
    46      0.703660  3 H  s                  5     -0.477964  1 O  px         
     8     -0.418715  1 O  px                45      0.349970  3 H  s          
     2     -0.289364  1 O  s                  4     -0.255307  1 O  s          
     6      0.173237  1 O  py                 9      0.153442  1 O  py         

 Vector    8  Occ=0.000000D+00  E=-1.284739D-02
              MO Center=  5.2D-02, -2.7D-01, -7.9D-11, r^2= 1.2D+00
   Bfn.  Coefficient  Atom+Function         Bfn.  Coefficient  Atom+Function  
  ----- ------------  ---------------      ----- ------------  ---------------
    13      0.801012  1 O  pz                 7     -0.644633  1 O  pz         
    10     -0.268498  1 O  pz                53      0.170898  3 H  pz         

 Vector    9  Occ=0.000000D+00  E= 2.806708D-01
              MO Center=  1.1D+00, -6.3D-01,  3.3D-11, r^2= 3.7D+00
   Bfn.  Coefficient  Atom+Function         Bfn.  Coefficient  Atom+Function  
  ----- ------------  ---------------      ----- ------------  ---------------
    47      1.929030  3 H  s                  4     -1.226950  1 O  s          
    11     -0.542424  1 O  px                51     -0.406550  3 H  px         
    46     -0.266391  3 H  s                 32     -0.173335  2 H  s          
    52      0.167004  3 H  py                12      0.157919  1 O  py         

 Vector   10  Occ=0.000000D+00  E= 4.110820D-01
              MO Center= -8.8D-02,  2.4D+00,  1.9D-13, r^2= 3.4D+00
   Bfn.  Coefficient  Atom+Function         Bfn.  Coefficient  Atom+Function  
  ----- ------------  ---------------      ----- ------------  ---------------
    33      1.691290  2 H  s                 32     -1.372711  2 H  s          
    47     -0.454961  3 H  s                 46      0.284918  3 H  s          
    12     -0.243516  1 O  py         

 Vector   11  Occ=0.000000D+00  E= 6.306483D-01
              MO Center= -5.9D-01,  4.1D-01, -3.2D-12, r^2= 2.4D+00
   Bfn.  Coefficient  Atom+Function         Bfn.  Coefficient  Atom+Function  
  ----- ------------  ---------------      ----- ------------  ---------------
    46      2.785839  3 H  s                  4     -2.196185  1 O  s          
    11     -2.190464  1 O  px                51     -0.846459  3 H  px         
    12      0.837302  1 O  py                37     -0.333563  2 H  px         
    47      0.291313  3 H  s                 52      0.282001  3 H  py         
    23     -0.194212  1 O  d  2               2     -0.171093  1 O  s          

 Vector   12  Occ=0.000000D+00  E= 6.894870D-01
              MO Center= -8.3D-02,  1.1D+00, -7.2D-13, r^2= 2.6D+00
   Bfn.  Coefficient  Atom+Function         Bfn.  Coefficient  Atom+Function  
  ----- ------------  ---------------      ----- ------------  ---------------
     4      0.859945  1 O  s                 11      0.711235  1 O  px         
    38     -0.644075  2 H  py                46     -0.602930  3 H  s          
    12      0.589521  1 O  py                 9     -0.497198  1 O  py         
    47     -0.301348  3 H  s                 51      0.242917  3 H  px         
    52     -0.224468  3 H  py                37      0.152829  2 H  px         

 Vector   13  Occ=0.000000D+00  E= 7.825029D-01
              MO Center= -2.4D-02,  2.0D+00,  1.6D-12, r^2= 1.7D+00
   Bfn.  Coefficient  Atom+Function         Bfn.  Coefficient  Atom+Function  
  ----- ------------  ---------------      ----- ------------  ---------------
    39      0.997980  2 H  pz                53     -0.397314  3 H  pz         
    13      0.249629  1 O  pz         

 Vector   14  Occ=0.000000D+00  E= 8.179443D-01
              MO Center= -1.5D-01,  1.7D+00, -1.7D-12, r^2= 2.4D+00
   Bfn.  Coefficient  Atom+Function         Bfn.  Coefficient  Atom+Function  
  ----- ------------  ---------------      ----- ------------  ---------------
    46      1.149257  3 H  s                 11     -1.002048  1 O  px         
     4     -0.948994  1 O  s                 37      0.949566  2 H  px         
    52      0.428581  3 H  py                12      0.236476  1 O  py         
    51     -0.234196  3 H  px         

 Vector   15  Occ=0.000000D+00  E= 8.438361D-01
              MO Center=  6.6D-01, -1.6D-01,  9.8D-13, r^2= 2.1D+00
   Bfn.  Coefficient  Atom+Function         Bfn.  Coefficient  Atom+Function  
  ----- ------------  ---------------      ----- ------------  ---------------
    52      0.963417  3 H  py                 4     -0.650103  1 O  s          
     9     -0.351673  1 O  py                46      0.325154  3 H  s          
    37     -0.290140  2 H  px                38      0.285785  2 H  py         
    47      0.275793  3 H  s                  8     -0.257613  1 O  px         
    12      0.224113  1 O  py                33     -0.170424  2 H  s          


 center of mass
 --------------
 x =  -0.07599894 y =  -0.18090482 z =   0.00000000

 moments of inertia (a.u.)
 ------------------
          22.269998688395           1.527688956235           0.000000000000
           1.527688956235           2.833002082974           0.000000000000
           0.000000000000           0.000000000000          25.103000771369

  Mulliken analysis of the total density
  --------------------------------------

    Atom       Charge   Shell Charges
 -----------   ------   -------------------------------------------------------
    1 O    8     8.26   1.95  1.06  0.25  0.64  1.20  1.95  1.20  0.00  0.01  0.00
    2 H    1     0.98   0.16  0.46  0.36 -0.00  0.00 -0.00
    3 H    1     0.76   0.25  0.40  0.03  0.02  0.06  0.01

       Multipole analysis of the density wrt the origin
       ------------------------------------------------

     L   x y z        total         open         nuclear
     -   - - -        -----         ----         -------
     0   0 0 0     -0.000000      0.000000     10.000000

     1   1 0 0      0.592608      0.000000     -0.000000
     1   0 1 0     -0.081518      0.000000     -0.000000
     1   0 0 1      0.000000      0.000000      0.000000

     2   2 0 0     -4.479673      0.000000      2.679864
     2   1 1 0     -0.660463      0.000000     -1.827993
     2   1 0 1     -0.000000      0.000000      0.000000
     2   0 2 0     -3.619345      0.000000     21.354022
     2   0 1 1     -0.000000      0.000000      0.000000
     2   0 0 2     -5.970823      0.000000      0.000000


 Parallel integral file used      13 records with       0 large values

 ------------------------------------
     Number of active orbitals      8
     Number of active alpha electrons      5
     Number of active beta electrons       5
 ------------------------------------
                   NWChem Extensible Many-Electron Theory Module
                   ---------------------------------------------

              ======================================================
                   This portion of the program was automatically
                  generated by a Tensor Contraction Engine (TCE).
                  The development of this portion of the program
                 and TCE was supported by US Department of Energy,
                Office of Science, Office of Basic Energy Science.
                      TCE is a product of Battelle and PNNL.
              Please cite: S.Hirata, J.Phys.Chem.A 107, 9887 (2003).
              ======================================================

                                        H2O


            General Information
            -------------------
      Number of processors :     1
         Wavefunction type : Restricted Hartree-Fock
          No. of electrons :    10
           Alpha electrons :     5
            Beta electrons :     5
           No. of orbitals :   116
            Alpha orbitals :    58
             Beta orbitals :    58
        Alpha frozen cores :     0
         Beta frozen cores :     0
     Alpha frozen virtuals :    50
      Beta frozen virtuals :    50
         Spin multiplicity : singlet 
    Number of AO functions :    58
       Number of AO shells :    22
        Use of symmetry is : off
      Symmetry adaption is : off
         Schwarz screening : 0.10D-09

          Correlation Information
          -----------------------
          Calculation type : Coupled-cluster singles & doubles                           
   Perturbative correction : none                                                        
            Max iterations :      300
        Residual threshold : 0.10D-06
     T(0) DIIS level shift : 0.00D+00
     L(0) DIIS level shift : 0.00D+00
     T(1) DIIS level shift : 0.00D+00
     L(1) DIIS level shift : 0.00D+00
     T(R) DIIS level shift : 0.00D+00
     T(I) DIIS level shift : 0.00D+00
   CC-T/L Amplitude update :  5-th order DIIS
                I/O scheme : Global Array Library
        L-threshold :  0.10D-06
        EOM-threshold :  0.10D-06
 no EOMCCSD initial starts read in
 TCE RESTART OPTIONS
 READ_INT:   F
 WRITE_INT:  F
 READ_TA:    F
 WRITE_TA:   F
 READ_XA:    F
 WRITE_XA:   F
 READ_IN3:   F
 WRITE_IN3:  F
 SLICE:      F
 D4D5:       F
 quantumc:   T
 qrotation:  F
 pwtce:      F
 qducc:      F
 nacto:                         0
 nrotv:                         0
 nrot:                          0

            Memory Information
            ------------------
          Available GA space size is    1610609372 doubles
          Available MA space size is    1610609772 doubles

 Maximum block size supplied by input
 Maximum block size         1 doubles

 tile_dim =      1

 Block   Spin    Irrep     Size     Offset   Alpha
 -------------------------------------------------
   1    alpha     a      1 doubles       0       1
   2    alpha     a      1 doubles       1       2
   3    alpha     a      1 doubles       2       3
   4    alpha     a      1 doubles       3       4
   5    alpha     a      1 doubles       4       5
   6    beta      a      1 doubles       5       1
   7    beta      a      1 doubles       6       2
   8    beta      a      1 doubles       7       3
   9    beta      a      1 doubles       8       4
  10    beta      a      1 doubles       9       5
  11    alpha     a      1 doubles      10      11
  12    alpha     a      1 doubles      11      12
  13    alpha     a      1 doubles      12      13
  14    beta      a      1 doubles      13      11
  15    beta      a      1 doubles      14      12
  16    beta      a      1 doubles      15      13

 Global array virtual files algorithm will be used

 Parallel file system coherency ......... OK

 Integral file          = ./H2O.aoints.0
 Record size in doubles =  65536        No. of integs per rec  =  43688
 Max. records in memory =     49        Max. records in file   = 250685
 No. of bits per label  =      8        No. of bits per value  =     64


 #quartets = 3.175D+04 #integrals = 6.253D+05 #direct =  0.0% #cached =100.0%


 Fock matrix recomputed
 1-e file size   =               64
 1-e file name   = ./H2O.f1
 Cpu & wall time / sec            0.1            0.1
 4-electron integrals stored in orbital form

 v2    file size   =              666
 4-index algorithm nr.  13 is used
 imaxsize =       30
 imaxsize ichop =        0
 begin_one_electron_integrals
    1    1       -32.6477917079
    2    1        -1.0314081241
    4    1         0.1393571182
    5    1        -0.0233667783
    6    1        -0.0289643845
    7    1        -0.2116776477
    1    2        -1.0314081241
    2    2        -7.6350183546
    4    2        -0.2623577772
    5    2         0.0788030210
    6    2         0.1235665381
    7    2         0.1263881465
    3    3        -6.8409460113
    8    3         2.1143186100
    1    4         0.1393571182
    2    4        -0.2623577772
    4    4        -6.6159124960
    5    4        -0.0394081371
    6    4        -0.0293867584
    7    4         1.9114217221
    1    5        -0.0233667783
    2    5         0.0788030210
    4    5        -0.0394081371
    5    5        -4.6919039201
    6    5         2.3475251893
    7    5         0.0138989417
    1    6        -0.0289643845
    2    6         0.1235665381
    4    6        -0.0293867584
    5    6         2.3475251893
    6    6        -4.7167605418
    7    6         0.0118668736
    1    7        -0.2116776477
    2    7         0.1263881465
    4    7         1.9114217221
    5    7         0.0138989417
    6    7         0.0118668736
    7    7        -5.8850910980
    3    8         2.1143186100
    8    8        -5.2201142078
 end_one_electron_integrals
 begin_two_electron_integrals
    1    1    1    1        4.8290936645
    2    1    1    1       -0.2221971759
    2    1    2    1        0.0293125433
    3    1    3    1        0.0282767949
    4    1    1    1       -0.0898622573
    4    1    2    1        0.0023918741
    4    1    4    1        0.0211658013
    4    1    2    2       -0.0138531540
    4    1    3    3       -0.0025507252
    5    1    1    1        0.0137089761
    5    1    2    1       -0.0013408817
    5    1    4    1        0.0000745935
    5    1    5    1        0.0142905427
    5    1    2    2        0.0006981362
    5    1    4    2        0.0003586833
    5    1    3    3        0.0011114938
    5    1    4    4        0.0011168409
    6    1    1    1        0.0183212998
    6    1    2    1       -0.0015319679
    6    1    4    1       -0.0001582695
    6    1    5    1       -0.0152532866
    6    1    6    1        0.0166352778
    6    1    2    2        0.0013051102
    6    1    4    2        0.0003256992
    6    1    5    2       -0.0140208304
    6    1    3    3        0.0012675356
    6    1    4    4        0.0012597697
    6    1    5    4       -0.0027524095
    6    1    5    5        0.0005724942
    7    1    1    1        0.1718946329
    7    1    2    1       -0.0075032803
    7    1    4    1       -0.0328098974
    7    1    5    1        0.0001485942
    7    1    6    1        0.0003643789
    7    1    7    1        0.0515564635
    7    1    2    2        0.0222192416
    7    1    4    2       -0.0258113712
    7    1    5    2       -0.0008494404
    7    1    6    2       -0.0010093288
    7    1    3    3        0.0038561741
    7    1    4    4       -0.0144112752
    7    1    5    4        0.0004418365
    7    1    6    4        0.0005969872
    7    1    5    5        0.0024819597
    7    1    6    5       -0.0016810690
    7    1    6    6        0.0026113128
    8    1    3    1       -0.0396697989
    8    1    8    1        0.0561388543
    8    1    3    2       -0.0387565821
    8    1    4    3       -0.0075411588
    8    1    5    3        0.0007714534
    8    1    6    3        0.0011729798
    8    1    7    3        0.0104729681
    2    2    1    1        1.0812032489
    2    2    2    1        0.0094316567
    2    2    2    2        0.8284099518
    3    2    3    1        0.0252364389
    3    2    3    2        0.1448350757
    4    2    1    1       -0.0060167016
    4    2    2    1       -0.0038207112
    4    2    4    1        0.0161948624
    4    2    2    2       -0.0573710561
    4    2    4    2        0.0910344613
    4    2    3    3        0.0106616100
    5    2    1    1       -0.0221277480
    5    2    2    1       -0.0003369457
    5    2    4    1        0.0006042539
    5    2    5    1        0.0126880927
    5    2    2    2       -0.0148204677
    5    2    4    2        0.0018543684
    5    2    5    2        0.0757688536
    5    2    3    3       -0.0114712055
    5    2    4    4       -0.0089922421
    6    2    1    1       -0.0231004398
    6    2    2    1       -0.0001899924
    6    2    4    1        0.0005836991
    6    2    5    1       -0.0133880767
    6    2    6    1        0.0146134593
    6    2    2    2       -0.0135180453
    6    2    4    2        0.0023420172
    6    2    5    2       -0.0747546891
    6    2    6    2        0.0759771247
    6    2    3    3       -0.0123472246
    6    2    4    4       -0.0086589615
    6    2    5    4       -0.0113607747
    6    2    5    5       -0.0115288527
    7    2    1    1       -0.0263981099
    7    2    2    1        0.0044634624
    7    2    4    1       -0.0159530442
    7    2    5    1       -0.0003087605
    7    2    6    1       -0.0004947038
    7    2    7    1        0.0238133894
    7    2    2    2        0.0288600986
    7    2    4    2       -0.0612549358
    7    2    5    2       -0.0006656958
    7    2    6    2       -0.0021179285
    7    2    7    2        0.0536140113
    7    2    3    3       -0.0197308340
    7    2    4    4       -0.0361491334
    7    2    5    4        0.0009848360
    7    2    6    4        0.0014575299
    7    2    5    5       -0.0100669304
    7    2    6    5        0.0125693920
    7    2    6    6       -0.0114229850
    8    2    3    1       -0.0206947442
    8    2    8    1        0.0275502344
    8    2    3    2       -0.0544193804
    8    2    8    2        0.0453215704
    8    2    4    3       -0.0028291365
    8    2    5    3        0.0014180865
    8    2    6    3        0.0022667268
    8    2    7    3        0.0115203223
    3    3    1    1        1.0502951740
    3    3    2    1        0.0073099222
    3    3    2    2        0.7424930000
    3    3    3    3        0.7619188845
    4    3    3    1        0.0051222447
    4    3    3    2        0.0232315420
    4    3    4    3        0.0366197732
    5    3    3    1       -0.0005530896
    5    3    3    2       -0.0026369513
    5    3    4    3       -0.0000130337
    5    3    5    3        0.0191052300
    6    3    3    1       -0.0008131536
    6    3    3    2       -0.0037307693
    6    3    4    3       -0.0003056391
    6    3    5    3       -0.0190442557
    6    3    6    3        0.0195643914
    7    3    3    1       -0.0078236570
    7    3    3    2       -0.0225007928
    7    3    4    3       -0.0207230792
    7    3    5    3        0.0003843178
    7    3    6    3        0.0005093360
    7    3    7    3        0.0253275799
    8    3    1    1       -0.5374142866
    8    3    2    1       -0.0045583889
    8    3    4    1        0.0043716124
    8    3    5    1       -0.0008637861
    8    3    6    1       -0.0008722546
    8    3    7    1       -0.0077102729
    8    3    2    2       -0.2194280793
    8    3    4    2        0.0110344902
    8    3    5    2        0.0053853246
    8    3    6    2        0.0067796031
    8    3    7    2        0.0058838327
    8    3    3    3       -0.2122531627
    8    3    8    3        0.1662655603
    8    3    4    4       -0.1389577404
    8    3    5    4       -0.0019019489
    8    3    6    4       -0.0011399486
    8    3    7    4        0.1251012940
    8    3    5    5       -0.1001083185
    8    3    6    5        0.0974907250
    8    3    7    5        0.0012262423
    8    3    6    6       -0.1084515644
    8    3    7    6        0.0012827638
    8    3    7    7       -0.1639484437
    4    4    1    1        0.9085163732
    4    4    2    1        0.0040341750
    4    4    4    1        0.0081979820
    4    4    2    2        0.6365890101
    4    4    4    2        0.0804141183
    4    4    3    3        0.6385506625
    4    4    4    4        0.7749187304
    5    4    1    1        0.0080232329
    5    4    2    1        0.0001605267
    5    4    4    1       -0.0002946416
    5    4    5    1        0.0025555221
    5    4    2    2        0.0053213434
    5    4    4    2       -0.0010625984
    5    4    5    2        0.0105677512
    5    4    3    3        0.0042965185
    5    4    4    4        0.0042872356
    5    4    5    4        0.0182071829
    6    4    1    1        0.0059868882
    6    4    2    1        0.0002111677
    6    4    4    1       -0.0004349408
    6    4    5    1       -0.0027174515
    6    4    6    1        0.0029662904
    6    4    2    2        0.0052168920
    6    4    4    2       -0.0010794932
    6    4    5    2       -0.0123738263
    6    4    6    2        0.0122454570
    6    4    3    3        0.0035338038
    6    4    4    4        0.0044019469
    6    4    5    4       -0.0182879022
    6    4    6    4        0.0190396586
    6    4    5    5       -0.0018847095
    7    4    1    1       -0.4719729972
    7    4    2    1       -0.0020666027
    7    4    4    1       -0.0038062285
    7    4    5    1       -0.0008493076
    7    4    6    1       -0.0008810186
    7    4    7    1        0.0022868713
    7    4    2    2       -0.2124027891
    7    4    4    2        0.0153494263
    7    4    5    2        0.0046111770
    7    4    6    2        0.0060359723
    7    4    7    2        0.0161123451
    7    4    3    3       -0.1830004668
    7    4    4    4       -0.0941876047
    7    4    5    4       -0.0012823618
    7    4    6    4        0.0003691291
    7    4    7    4        0.2135608161
    7    4    5    5       -0.1018552462
    7    4    6    5        0.0905587141
    7    4    6    6       -0.1088488182
    8    4    3    1       -0.0022085124
    8    4    8    1        0.0019274709
    8    4    3    2        0.0076264228
    8    4    8    2        0.0028782108
    8    4    4    3       -0.0001324763
    8    4    5    3       -0.0001291338
    8    4    6    3        0.0000175862
    8    4    7    3        0.0151439850
    8    4    8    4        0.0197523535
    5    5    1    1        0.6410850808
    5    5    2    1        0.0036979427
    5    5    4    1       -0.0014981167
    5    5    5    1        0.0001801542
    5    5    2    2        0.4874766944
    5    5    4    2        0.0007513001
    5    5    5    2        0.0058931509
    5    5    3    3        0.4540787338
    5    5    4    4        0.4219923431
    5    5    5    4        0.0016947073
    5    5    5    5        0.4548160651
    6    5    1    1       -0.4431918843
    6    5    2    1       -0.0039478026
    6    5    4    1        0.0012487216
    6    5    5    1       -0.0006373807
    6    5    6    1       -0.0010278370
    6    5    2    2       -0.2750308395
    6    5    4    2       -0.0086872195
    6    5    5    2        0.0171931637
    6    5    6    2       -0.0002518563
    6    5    3    3       -0.2511250689
    6    5    4    4       -0.2297078214
    6    5    5    4       -0.0031748476
    6    5    6    4       -0.0050382066
    6    5    5    5       -0.0494869857
    6    5    6    5        0.2515050119
    7    5    1    1       -0.0035741683
    7    5    2    1       -0.0001183446
    7    5    4    1        0.0002950758
    7    5    5    1       -0.0043298014
    7    5    6    1        0.0047004925
    7    5    7    1       -0.0004972236
    7    5    2    2       -0.0022989150
    7    5    4    2        0.0018267047
    7    5    5    2       -0.0146290160
    7    5    6    2        0.0151598839
    7    5    7    2       -0.0012787800
    7    5    3    3       -0.0009701947
    7    5    4    4        0.0004205621
    7    5    5    4       -0.0114004664
    7    5    6    4        0.0121345219
    7    5    7    4        0.0021176784
    7    5    5    5       -0.0019257990
    7    5    6    5       -0.0008890527
    7    5    7    5        0.0140104265
    7    5    6    6       -0.0025039069
    8    5    3    1        0.0004621275
    8    5    8    1       -0.0007082325
    8    5    3    2        0.0026587117
    8    5    8    2       -0.0007837294
    8    5    4    3        0.0002143894
    8    5    5    3       -0.0056425959
    8    5    6    3        0.0064503726
    8    5    7    3       -0.0001035144
    8    5    8    4        0.0004136253
    8    5    8    5        0.0089495161
    6    6    1    1        0.6682844918
    6    6    2    1        0.0040559350
    6    6    4    1       -0.0015912773
    6    6    5    1        0.0013640654
    6    6    6    1       -0.0005765958
    6    6    2    2        0.4927539934
    6    6    4    2        0.0020757209
    6    6    5    2        0.0084423041
    6    6    6    2       -0.0150094835
    6    6    3    3        0.4592301578
    6    6    4    4        0.4261113945
    6    6    5    4        0.0013715418
    6    6    6    4       -0.0016600437
    6    6    5    5        0.4659404954
    6    6    6    5       -0.0429692718
    6    6    6    6        0.4814219184
    7    6    1    1       -0.0037890677
    7    6    2    1       -0.0002577587
    7    6    4    1        0.0005824124
    7    6    5    1        0.0046436627
    7    6    6    1       -0.0050077550
    7    6    7    1       -0.0009182829
    7    6    2    2       -0.0041485160
    7    6    4    2        0.0031636468
    7    6    5    2        0.0155555274
    7    6    6    2       -0.0158545470
    7    6    7    2       -0.0018954289
    7    6    3    3       -0.0011383114
    7    6    4    4        0.0020957887
    7    6    5    4        0.0123771925
    7    6    6    4       -0.0131520756
    7    6    7    4        0.0028716435
    7    6    5    5       -0.0008622095
    7    6    6    5        0.0005522079
    7    6    7    5       -0.0145694895
    7    6    6    6       -0.0003295211
    7    6    7    6        0.0156432454
    8    6    3    1        0.0008155843
    8    6    8    1       -0.0012530195
    8    6    3    2        0.0040819941
    8    6    8    2       -0.0015176971
    8    6    4    3        0.0005900282
    8    6    5    3        0.0070435525
    8    6    6    3       -0.0078113149
    8    6    7    3       -0.0003746574
    8    6    8    4        0.0004333127
    8    6    8    5       -0.0084437148
    8    6    8    6        0.0089955358
    7    7    1    1        1.0487024336
    7    7    2    1        0.0021215521
    7    7    4    1        0.0079791833
    7    7    5    1        0.0015184173
    7    7    6    1        0.0016472862
    7    7    7    1       -0.0128973674
    7    7    2    2        0.6309852324
    7    7    4    2        0.0706120225
    7    7    5    2       -0.0092903015
    7    7    6    2       -0.0093351501
    7    7    7    2       -0.0350539891
    7    7    3    3        0.6359938802
    7    7    4    4        0.7582103481
    7    7    5    4        0.0046280393
    7    7    6    4        0.0048725532
    7    7    7    4       -0.0895017677
    7    7    5    5        0.4179575271
    7    7    6    5       -0.2327561332
    7    7    7    5        0.0005199256
    7    7    6    6        0.4240786994
    7    7    7    6        0.0024415903
    7    7    7    7        0.7989814801
    8    7    3    1        0.0071368956
    8    7    8    1       -0.0101160103
    8    7    3    2        0.0242282451
    8    7    8    2       -0.0061129252
    8    7    4    3        0.0275280605
    8    7    5    3       -0.0000815187
    8    7    6    3       -0.0003649203
    8    7    7    3       -0.0166261587
    8    7    8    4       -0.0007807378
    8    7    8    5        0.0004125410
    8    7    8    6        0.0007806095
    8    7    8    7        0.0299608820
    8    8    1    1        1.0462040985
    8    8    2    1        0.0037487857
    8    8    4    1       -0.0050973415
    8    8    5    1        0.0013349492
    8    8    6    1        0.0013425888
    8    8    7    1        0.0078142019
    8    8    2    2        0.6377219393
    8    8    4    2        0.0114421845
    8    8    5    2       -0.0091196071
    8    8    6    2       -0.0101693916
    8    8    7    2       -0.0135708217
    8    8    3    3        0.6582182799
    8    8    8    3       -0.1832923659
    8    8    4    4        0.5769895712
    8    8    5    4        0.0038455157
    8    8    6    4        0.0032790417
    8    8    7    4       -0.1437062278
    8    8    5    5        0.4083379052
    8    8    6    5       -0.2120134427
    8    8    7    5       -0.0007943903
    8    8    6    6        0.4126212232
    8    8    7    6       -0.0005630214
    8    8    7    7        0.5926217431
    8    8    8    8        0.6134605880
 end_two_electron_integrals
 enrep_tce =    6.1979975269038787     
  EHF(A)             =       -75.72410139
  EHF(total)         =       -75.72410139
  Shift (HFtot-HFA)  =        -0.00000000
 Cpu & wall time / sec            1.0            1.0
 T1-number-of-tasks                   15

 t1 file size   =               15
 t1 file name   = ./H2O.t1
 t1 file handle =       -998
 T2-number-of-boxes                  315

 t2 file size   =              315
 t2 file name   = ./H2O.t2
 t2 file handle =       -996
CCSD iterations
 ---------------------------------------------------------
 Iter          Residuum       Correlation     Cpu    Wall 
 ---------------------------------------------------------
NEW TASK SCHEDULING
CCSD_T1_NTS --- OK
CCSD_T2_NTS --- OK
    1   0.8247404937310  -0.4198112478441     1.9     2.6
    2   1.4924991141853   0.2332140981309     1.9     2.6
    3   2.1978881379465  -0.5796948079261     1.7     2.7
    4   3.3688012397264   0.7828785949578     1.8     2.6
    5   5.4493384660682   0.4223303273815     1.9     2.6
 MICROCYCLE DIIS UPDATE:                    5                    5
    6   0.0988353950660  -0.2195746930230     1.7     2.6
    7   0.1967484986198  -0.2783357796490     1.7     2.6
    8   0.3636845399847  -0.0966448649960     1.7     2.6
    9   0.8265990556329  -0.2049123329925     1.8     2.6
   10   1.1559828746346   0.8196479527325     1.8     2.7
 MICROCYCLE DIIS UPDATE:                   10                    5
   11   0.0248555227940  -0.2354149417257     1.7     2.6
   12   0.0435053254532  -0.2584275679007     1.8     2.6
   13   0.0946475266804  -0.2090431948142     1.8     2.6
   14   0.2449695562352  -0.2725121815526     1.9     2.6
   15   0.4026978663591   0.2024379812768     1.9     2.6
 MICROCYCLE DIIS UPDATE:                   15                    5
   16   0.0174313199419  -0.2386865694398     1.8     2.6
   17   0.0326433444947  -0.2554375414376     1.8     2.6
   18   0.0714131065669  -0.2214775023598     1.8     2.6
   19   0.1762151379246  -0.2806321188400     1.8     2.6
   20   0.3279117601783  -0.0093584800488     1.7     2.6
 MICROCYCLE DIIS UPDATE:                   20                    5
   21   0.0100528211410  -0.2417546802966     1.8     2.7
   22   0.0182567609221  -0.2512457822313     2.0     2.6
   23   0.0402423458587  -0.2332488558167     1.9     2.6
   24   0.0968041871483  -0.2694290368643     1.8     2.6
   25   0.2079025298785  -0.1478908218205     1.8     2.6
 MICROCYCLE DIIS UPDATE:                   25                    5
   26   0.0040709390690  -0.2442301898738     1.8     2.6
   27   0.0070791494839  -0.2478803524485     1.7     2.6
   28   0.0157585040666  -0.2413108391588     1.8     2.6
   29   0.0377699391665  -0.2556174668055     2.0     2.6
   30   0.0896667901938  -0.2165094543443     1.7     2.6
 MICROCYCLE DIIS UPDATE:                   30                    5
   31   0.0007686899804  -0.2456080899800     1.8     2.6
   32   0.0012348249811  -0.2461145664538     1.7     2.6
   33   0.0028871524323  -0.2452009880591     1.5     2.6
   34   0.0073645595790  -0.2473147152029     1.8     2.7
   35   0.0194809652142  -0.2420627031283     1.9     2.6
 MICROCYCLE DIIS UPDATE:                   35                    5
   36   0.0000777818797  -0.2458465923206     1.8     2.7
   37   0.0000955707401  -0.2458194296879     1.8     2.6
   38   0.0002341637344  -0.2458443469637     1.7     2.6
   39   0.0006475747661  -0.2458031769977     1.9     2.6
   40   0.0018214456226  -0.2458879783831     2.0     2.6
 MICROCYCLE DIIS UPDATE:                   40                    5
   41   0.0000101877119  -0.2458300071785     1.8     2.6
   42   0.0000088117549  -0.2458323503965     1.6     2.6
   43   0.0000179471127  -0.2458252389230     1.9     2.6
   44   0.0000411113023  -0.2458427335901     1.9     2.6
   45   0.0000966179102  -0.2458012743662     2.1     2.6
 MICROCYCLE DIIS UPDATE:                   45                    5
   46   0.0000019272845  -0.2458305331326     1.8     2.6
   47   0.0000016700759  -0.2458302923348     1.7     2.6
   48   0.0000032752183  -0.2458306044306     1.9     2.6
   49   0.0000084951122  -0.2458302186349     1.8     2.6
   50   0.0000234147746  -0.2458304668563     1.6     2.6
 MICROCYCLE DIIS UPDATE:                   50                    5
   51   0.0000002669989  -0.2458304434954     1.8     2.7
   52   0.0000002351058  -0.2458304152261     1.9     2.6
   53   0.0000004094172  -0.2458304721320     1.8     2.6
   54   0.0000010237107  -0.2458303201232     1.8     2.6
   55   0.0000027415596  -0.2458307519288     1.9     2.6
 MICROCYCLE DIIS UPDATE:                   55                    5
   56   0.0000000415974  -0.2458304344173     1.6     2.6
 -----------------------------------------------------------------
 Iterations converged
 CCSD correlation energy / hartree =        -0.245830434417327
 CCSD total energy / hartree       =       -75.969931825719854

 Singles contributions

 Doubles contributions
     6a   (alpha)     6a   (beta ) ---     5a   (alpha)     5a   (beta )       -0.7386444360
     6a   (alpha)     7a   (beta ) ---     4a   (alpha)     5a   (beta )       -0.0229286843
     6a   (alpha)     7a   (beta ) ---     5a   (alpha)     4a   (beta )       -0.0209270874
     7a   (alpha)     8a   (alpha) ---     3a   (alpha)     4a   (alpha)        0.0331661088
     7a   (alpha)     6a   (beta ) ---     4a   (alpha)     5a   (beta )       -0.0209270874
     7a   (alpha)     6a   (beta ) ---     5a   (alpha)     4a   (beta )       -0.0229286843
     7a   (alpha)     7a   (beta ) ---     4a   (alpha)     4a   (beta )       -0.0933762317
     7a   (alpha)     8a   (beta ) ---     4a   (alpha)     3a   (beta )       -0.0425207777
     8a   (alpha)     7a   (beta ) ---     3a   (alpha)     4a   (beta )       -0.0425207777
     8a   (alpha)     8a   (beta ) ---     3a   (alpha)     3a   (beta )       -0.0591873401
 Ground state specification:
 exp(T)|Ref>~(1+T)|Ref>
 ------- a(p)+/a(q) strings ----------

 singles norm

 doubles norm

 Reference string
  0.80436295931706003      :(1a)+ (2a)+ (3a)+ (4a)+ (5a)+ (1b)+ (2b)+ (3b)+ (4b)+ (5b)+ |0>

 Singles strings

 Doubles strings
 -0.59413822438781150      :(6a)+ (6b)+ (5b)  (5a)  (1a)+ (2a)+ (3a)+ (4a)+ (5a)+ (1b)+ (2b)+ (3b)+ (4b)+ (5b)+ |0>
 -------------------------------------

 Parallel integral file used      15 records with       0 large values


 Task  times  cpu:      102.9s     wall:      150.3s


                                NWChem Input Module
                                -------------------


 Summary of allocated global arrays
-----------------------------------
  No active global arrays


MA_summarize_allocated_blocks: starting scan ...
MA_summarize_allocated_blocks: scan completed: 0 heap blocks, 0 stack blocks
MA usage statistics:

	allocation statistics:
					      heap	     stack
					      ----	     -----
	current number of blocks	         0	         0
	maximum number of blocks	        18	        42
	current total bytes		         0	         0
	maximum total bytes		  25775960	  38234456
	maximum total K-bytes		     25776	     38235
	maximum total M-bytes		        26	        39


                                     CITATION
                                     --------
                Please cite the following reference when publishing
                           results obtained with NWChem:

          E. Apra, E. J. Bylaska, W. A. de Jong, N. Govind, K. Kowalski,
       T. P. Straatsma, M. Valiev, H. J. J. van Dam, Y. Alexeev, J. Anchell,
       V. Anisimov, F. W. Aquino, R. Atta-Fynn, J. Autschbach, N. P. Bauman,
     J. C. Becca, D. E. Bernholdt, K. Bhaskaran-Nair, S. Bogatko, P. Borowski,
         J. Boschen, J. Brabec, A. Bruner, E. Cauet, Y. Chen, G. N. Chuev,
      C. J. Cramer, J. Daily, M. J. O. Deegan, T. H. Dunning Jr., M. Dupuis,
   K. G. Dyall, G. I. Fann, S. A. Fischer, A. Fonari, H. Fruchtl, L. Gagliardi,
      J. Garza, N. Gawande, S. Ghosh, K. Glaesemann, A. W. Gotz, J. Hammond,
       V. Helms, E. D. Hermes, K. Hirao, S. Hirata, M. Jacquelin, L. Jensen,
   B. G. Johnson, H. Jonsson, R. A. Kendall, M. Klemm, R. Kobayashi, V. Konkov,
      S. Krishnamoorthy, M. Krishnan, Z. Lin, R. D. Lins, R. J. Littlefield,
      A. J. Logsdail, K. Lopata, W. Ma, A. V. Marenich, J. Martin del Campo,
   D. Mejia-Rodriguez, J. E. Moore, J. M. Mullin, T. Nakajima, D. R. Nascimento,
    J. A. Nichols, P. J. Nichols, J. Nieplocha, A. Otero-de-la-Roza, B. Palmer,
    A. Panyala, T. Pirojsirikul, B. Peng, R. Peverati, J. Pittner, L. Pollack,
   R. M. Richard, P. Sadayappan, G. C. Schatz, W. A. Shelton, D. W. Silverstein,
   D. M. A. Smith, T. A. Soares, D. Song, M. Swart, H. L. Taylor, G. S. Thomas,
            V. Tipparaju, D. G. Truhlar, K. Tsemekhman, T. Van Voorhis,
      A. Vazquez-Mayagoitia, P. Verma, O. Villa, A. Vishnu, K. D. Vogiatzis,
        D. Wang, J. H. Weare, M. J. Williamson, T. L. Windus, K. Wolinski,
        A. T. Wong, Q. Wu, C. Yang, Q. Yu, M. Zacharias, Z. Zhang, Y. Zhao,
                                and R. J. Harrison
                        "NWChem: Past, present, and future
                         J. Chem. Phys. 152, 184102 (2020)
                               doi:10.1063/5.0004997

                                      AUTHORS
                                      -------
  E. Apra, E. J. Bylaska, N. Govind, K. Kowalski, M. Valiev, D. Mejia-Rodriguez,
       A. Kunitsa, N. P. Bauman, A. Panyala, W. A. de Jong, T. P. Straatsma,
        H. J. J. van Dam, D. Wang, T. L. Windus, J. Hammond, J. Autschbach,
    K. Bhaskaran-Nair, J. Brabec, K. Lopata, S. A. Fischer, S. Krishnamoorthy,
     M. Jacquelin, W. Ma, M. Klemm, O. Villa, Y. Chen, V. Anisimov, F. Aquino,
    S. Hirata, M. T. Hackler, Eric Hermes, L. Jensen, J. E. Moore, J. C. Becca,
      V. Konjkov, T. Risthaus, M. Malagoli, A. Marenich, A. Otero-de-la-Roza,
        J. Mullin, P. Nichols, R. Peverati, J. Pittner, Y. Zhao, P.-D. Fan,
        A. Fonari, M. J. Williamson, R. J. Harrison, J. R. Rehr, M. Dupuis,
     D. Silverstein, D. M. A. Smith, J. Nieplocha, V. Tipparaju, M. Krishnan,
     B. E. Van Kuiken, A. Vazquez-Mayagoitia, M. Swart, Q. Wu, T. Van Voorhis,
     A. A. Auer, M. Nooijen, L. D. Crosby, E. Brown, G. Cisneros, G. I. Fann,
   H. Fruchtl, J. Garza, K. Hirao, R. A. Kendall, J. A. Nichols, K. Tsemekhman,
    K. Wolinski, J. Anchell, D. E. Bernholdt, P. Borowski, T. Clark, D. Clerc,
   H. Dachsel, M. J. O. Deegan, K. Dyall, D. Elwood, E. Glendening, M. Gutowski,
   A. C. Hess, J. Jaffe, B. G. Johnson, J. Ju, R. Kobayashi, R. Kutteh, Z. Lin,
   R. Littlefield, X. Long, B. Meng, T. Nakajima, S. Niu, L. Pollack, M. Rosing,
   K. Glaesemann, G. Sandrone, M. Stave, H. Taylor, G. Thomas, J. H. van Lenthe,
                               A. T. Wong, Z. Zhang.

 Total times  cpu:      106.5s     wall:      157.2s
