 argument  1 = input.nw
  NWChem w/ OpenMP: maximum threads =    1



============================== echo of input deck ==============================
 echo
 start H2
 title "H2"

 memory total 24 gb

 geometry units bohr
 symmetry c1
        H  0.00000000  0.00000000  0.00000000
        H  0.00000000  1.15  0.00000000
 end

 basis
   * library cc-pVQZ
 end

 mcscf
   active  2
   actelec 2
   multiplicity 1
   maxiter 40
   vectors input H2.mos
   vectors output H2.mos
 end

 task mcscf

 scf
   vectors input H2.mos
   vectors output H2.mos
   noscf
 end

 tce
   2eorb
   2emet 13
   ccsd
   maxiter 300
   lshift 0.2
 end

# set tce:print_integrals T
# set tce:qorb 4
# set tce:qela 1
# set tce:qelb 1

 set tce:qducc T
 set tce:nactv 1
 set tce:nonhf T
 set tce:ducc_model 3

 set tce:printtol 0.02

 task tce
================================================================================


                                         
                                         


             Northwest Computational Chemistry Package (NWChem) 7.0.1
             --------------------------------------------------------


                    Environmental Molecular Sciences Laboratory
                       Pacific Northwest National Laboratory
                                Richland, WA 99352

                              Copyright (c) 1994-2020
                       Pacific Northwest National Laboratory
                            Battelle Memorial Institute

             NWChem is an open-source computational chemistry package
                        distributed under the terms of the
                      Educational Community License (ECL) 2.0
             A copy of the license is included with this distribution
                              in the LICENSE.TXT file

                                  ACKNOWLEDGMENT
                                  --------------

            This software and its documentation were developed at the
            EMSL at Pacific Northwest National Laboratory, a multiprogram
            national laboratory, operated for the U.S. Department of Energy
            by Battelle under Contract Number DE-AC05-76RL01830. Support
            for this work was provided by the Department of Energy Office
            of Biological and Environmental Research, Office of Basic
            Energy Sciences, and the Office of Advanced Scientific Computing.


           Job information
           ---------------

    hostname        = WE46210
    program         = /home/baum612/code/nwchem/bin/LINUX64/nwchem
    date            = Wed Nov  8 17:03:31 2023

    compiled        = Mon_Nov_06_10:06:57_2023
    source          = /home/baum612/code/nwchem
    nwchem branch   = 7.0.0
    nwchem revision = nwchem_on_git-4191-g39d87d64de
    ga revision     = 5.8.1
    use scalapack   = F
    input           = input.nw
    prefix          = H2.
    data base       = ./H2.db
    status          = startup
    nproc           =        1
    time left       =     -1s



           Memory information
           ------------------

    heap     =  805306366 doubles =   6144.0 Mbytes
    stack    =  805306363 doubles =   6144.0 Mbytes
    global   = 1610612736 doubles =  12288.0 Mbytes (distinct from heap & stack)
    total    = 3221225465 doubles =  24576.0 Mbytes
    verify   = yes
    hardfail = no 


           Directory information
           ---------------------

  0 permanent = .
  0 scratch   = .




                                NWChem Input Module
                                -------------------


                                        H2
                                        --
 Turning off AUTOSYM since
 SYMMETRY directive was detected!


          ------
          auto-z
          ------
  no constraints, skipping    0.0000000000000000     
  no constraints, skipping    0.0000000000000000     


                             Geometry "geometry" -> ""
                             -------------------------

 Output coordinates in a.u. (scale by  1.000000000 to convert to a.u.)

  No.       Tag          Charge          X              Y              Z
 ---- ---------------- ---------- -------------- -------------- --------------
    1 H                    1.0000     0.00000000    -0.57500000     0.00000000
    2 H                    1.0000     0.00000000     0.57500000     0.00000000

      Atomic Mass 
      ----------- 

      H                  1.007825


 Effective nuclear repulsion energy (a.u.)       0.8695652174

            Nuclear Dipole moment (a.u.) 
            ----------------------------
        X                 Y               Z
 ---------------- ---------------- ----------------
     0.0000000000     0.0000000000     0.0000000000



                                Z-matrix (autoz)
                                -------- 

 Units are Angstrom for bonds and degrees for angles

      Type          Name      I     J     K     L     M      Value
      ----------- --------  ----- ----- ----- ----- ----- ----------
    1 Stretch                  1     2                       0.60855


            XYZ format geometry
            -------------------
     2
 geometry
 H                     0.00000000    -0.30427692     0.00000000
 H                     0.00000000     0.30427692     0.00000000

 ==============================================================================
                                internuclear distances
 ------------------------------------------------------------------------------
       center one      |      center two      | atomic units |       a.u.
 ------------------------------------------------------------------------------
    2 H                |   1 H                |     1.15000  |     1.15000
 ------------------------------------------------------------------------------
                         number of included internuclear distances:          1
 ==============================================================================





 Summary of "ao basis" -> "" (cartesian)
 ------------------------------------------------------------------------------
       Tag                 Description            Shells   Functions and Types
 ---------------- ------------------------------  ------  ---------------------
 *                          cc-pVQZ                   on all atoms 


                      Basis "ao basis" -> "ao basis" (cartesian)
                      -----
  H (Hydrogen)
  ------------
            Exponent  Coefficients 
       -------------- ---------------------------------------------------------
  1 S  8.26400000E+01  0.002006
  1 S  1.24100000E+01  0.015343
  1 S  2.82400000E+00  0.075579

  2 S  7.97700000E-01  1.000000

  3 S  2.58100000E-01  1.000000

  4 S  8.98900000E-02  1.000000

  5 P  2.29200000E+00  1.000000

  6 P  8.38000000E-01  1.000000

  7 P  2.92000000E-01  1.000000

  8 D  2.06200000E+00  1.000000

  9 D  6.62000000E-01  1.000000

 10 F  1.39700000E+00  1.000000



 Summary of "ao basis" -> "ao basis" (cartesian)
 ------------------------------------------------------------------------------
       Tag                 Description            Shells   Functions and Types
 ---------------- ------------------------------  ------  ---------------------
 H                          cc-pVQZ                 10       35   4s3p2d1f



                            NWChem Direct MCSCF Module
                            --------------------------


                                        H2


     -----------------------------------
       Basis functions:             70
       Inactive shells:              0
       Active shells:                2
       Active electrons:             2
       Symmetry:                    a       
       Multiplicity:                 1
       Orbital rotations:          136
     -----------------------------------

     -----------------------------------
       E2 extrapolation:             F
       Conjugacy:                    T
       Micro CI relax:               T
       Canonical orbitals:           T
       Maximum iterations:          40
       Converge threshold:    1.00E-04
       Conjugacy resets:            20
       Initial levelshift:        0.10
     -----------------------------------

 Loading old vectors from job with title :

H2


   input molecular orbitals = ./H2.mos
  output molecular orbtials = ./H2.mos

       No. of determinants:             4


  Starting Orbital Energies
    -0.638407    -0.013278     0.203967     0.253921     0.468939     0.468939
     0.766223     0.780429     0.780429     1.027878     1.065317     1.172507
     1.705988     1.705988     1.964948     1.964948     2.100480     2.217624
     2.217624     2.579982     2.579982     2.601918     2.601918     2.666536
     2.892070     3.222328     3.425546     3.425546     3.485449     4.213429
     4.213429     4.645697     5.131749     5.131749     5.232688     5.712856
     5.712856     6.532064     6.532064     6.915467     6.915467     7.303923
     7.303923     7.337530     7.342484     7.342484     7.495386     7.774750
     7.774750     7.946860     7.946860     8.666641     8.666641     8.881440
     9.467325     9.879715     9.948206     9.948206     9.971003     9.971003
    10.002279    10.002279    10.424931    13.308502    13.533802    13.929577
    13.929577    17.310331    26.928291    28.916910

  Orbital Symmetry Irreps
a    a    a    a    a    a    a    a    a    a    a    a    a    a    a   
a    a    a    a    a    a    a    a    a    a    a    a    a    a    a   
a    a    a    a    a    a    a    a    a    a    a    a    a    a    a   
a    a    a    a    a    a    a    a    a    a    a    a    a    a    a   
a    a    a    a    a    a    a    a    a    a   

 Integral file          = ./H2.aoints.0
 Record size in doubles =  65536        No. of integs per rec  =  43688
 Max. records in memory =     99        Max. records in file   = 280257
 No. of bits per label  =      8        No. of bits per value  =     64


 #quartets = 2.216D+04 #integrals = 8.606D+05 #direct =  0.0% #cached =100.0%




          %%%%% MacroIteration   1 %%%%%


          Number of sigma calls:        2
                       o<<<<< (aa):             0.00
                       o<<<<< (bb):             0.00
                       o<<<<< (ab):             0.00
                       o<<<<< (total)           0.00
                       o<<<<< (aa) ff           0.00
                       o<<<<< (aa) gop          0.00
                       o<<<<< (aa) dot          0.00
                       o<<<<< (ab) str          0.00
                       o<<<<< (ab) gath         0.00
                       o<<<<< (ab) dotab        0.00
                       o<<<<< (ab) scat         0.00
                       o<<<<< (ab) sync         0.00
                       o<<<<< Density           0.00
                       o<<<<< Density one       0.00
                       o<<<<< Density two       0.00
                       o<<<<< Density ab        0.00
                       o<<<<< Spin adapt        0.00
                       o<<<<< Symm adapt        0.00

                       o<<<<< (ab) max sync:      0.00

           >>>| Valence CI:             -2.003235227827
           >>>| MCSCF energy:           -1.133670010436
           >>>| Gradient norm:          0.619217671D-01

                              ----- Line search ------

        step       energy         lsg     num-lsg   num-lsh   lsrat    time
      ------- ---------------- --------- --------- --------- ------- --------
       0.0000      -1.13367001 -3.21D-04  0.00D+00  0.00D+00 0.0D+00      0.8

          Number of sigma calls:        2
                       o<<<<< (aa):             0.00
                       o<<<<< (bb):             0.00
                       o<<<<< (ab):             0.00
                       o<<<<< (total)           0.00
                       o<<<<< (aa) ff           0.00
                       o<<<<< (aa) gop          0.00
                       o<<<<< (aa) dot          0.00
                       o<<<<< (ab) str          0.00
                       o<<<<< (ab) gath         0.00
                       o<<<<< (ab) dotab        0.00
                       o<<<<< (ab) scat         0.00
                       o<<<<< (ab) sync         0.00
                       o<<<<< Density           0.00
                       o<<<<< Density one       0.00
                       o<<<<< Density two       0.00
                       o<<<<< Density ab        0.00
                       o<<<<< Spin adapt        0.00
                       o<<<<< Symm adapt        0.00

                       o<<<<< (ab) max sync:      0.00
       1.0000      -1.13383226 -3.48D-06 -3.46D-06  3.18D-04 1.1D-02      0.8
     --- Orbitals canonicalized ---



          %%%%% MacroIteration   2 %%%%%


          Number of sigma calls:        2
                       o<<<<< (aa):             0.00
                       o<<<<< (bb):             0.00
                       o<<<<< (ab):             0.00
                       o<<<<< (total)           0.00
                       o<<<<< (aa) ff           0.00
                       o<<<<< (aa) gop          0.00
                       o<<<<< (aa) dot          0.00
                       o<<<<< (ab) str          0.00
                       o<<<<< (ab) gath         0.00
                       o<<<<< (ab) dotab        0.00
                       o<<<<< (ab) scat         0.00
                       o<<<<< (ab) sync         0.00
                       o<<<<< Density           0.00
                       o<<<<< Density one       0.00
                       o<<<<< Density two       0.00
                       o<<<<< Density ab        0.00
                       o<<<<< Spin adapt        0.00
                       o<<<<< Symm adapt        0.00

                       o<<<<< (ab) max sync:      0.00

           >>>| Valence CI:             -2.003397480247
           >>>| MCSCF energy:           -1.133832262856
           >>>| Gradient norm:          0.819433227D-03
     --- Conjugacy reset ---

                              ----- Line search ------

        step       energy         lsg     num-lsg   num-lsh   lsrat    time
      ------- ---------------- --------- --------- --------- ------- --------
       0.0000      -1.13383226 -6.39D-07  0.00D+00  0.00D+00 0.0D+00      1.0

          Number of sigma calls:        2
                       o<<<<< (aa):             0.00
                       o<<<<< (bb):             0.00
                       o<<<<< (ab):             0.00
                       o<<<<< (total)           0.00
                       o<<<<< (aa) ff           0.00
                       o<<<<< (aa) gop          0.00
                       o<<<<< (aa) dot          0.00
                       o<<<<< (ab) str          0.00
                       o<<<<< (ab) gath         0.00
                       o<<<<< (ab) dotab        0.00
                       o<<<<< (ab) scat         0.00
                       o<<<<< (ab) sync         0.00
                       o<<<<< Density           0.00
                       o<<<<< Density one       0.00
                       o<<<<< Density two       0.00
                       o<<<<< Density ab        0.00
                       o<<<<< Spin adapt        0.00
                       o<<<<< Symm adapt        0.00

                       o<<<<< (ab) max sync:      0.00
       1.0000      -1.13383260 -4.52D-08 -4.50D-08  5.94D-07 7.1D-02      1.0



          %%%%% MacroIteration   3 %%%%%


          Number of sigma calls:        1
                       o<<<<< (aa):             0.00
                       o<<<<< (bb):             0.00
                       o<<<<< (ab):             0.00
                       o<<<<< (total)           0.00
                       o<<<<< (aa) ff           0.00
                       o<<<<< (aa) gop          0.00
                       o<<<<< (aa) dot          0.00
                       o<<<<< (ab) str          0.00
                       o<<<<< (ab) gath         0.00
                       o<<<<< (ab) dotab        0.00
                       o<<<<< (ab) scat         0.00
                       o<<<<< (ab) sync         0.00
                       o<<<<< Density           0.00
                       o<<<<< Density one       0.00
                       o<<<<< Density two       0.00
                       o<<<<< Density ab        0.00
                       o<<<<< Spin adapt        0.00
                       o<<<<< Symm adapt        0.00

                       o<<<<< (ab) max sync:      0.00

           >>>| Valence CI:             -2.003397822255
           >>>| MCSCF energy:           -1.133832604864
           >>>| Gradient norm:          0.729400490D-04




     ==============================
            MCSCF Converged
     ==============================



          Canonical Eigenvalues

              1      
    1   -0.6478
    2   -0.0126
    3    0.2024
    4    0.2528
    5    0.4710
    6    0.4710
    7    0.7704
    8    0.7837
    9    0.7837
   10    1.0221
   11    1.0617
   12    1.1760
   13    1.7074
   14    1.7074
   15    1.9714
   16    1.9714
   17    2.1125
   18    2.2210
   19    2.2210
   20    2.5811
   21    2.5811
   22    2.6142
   23    2.6142
   24    2.6889
   25    2.8828
   26    3.1973
   27    3.4845
   28    3.4845
   29    3.5077
   30    4.2060
   31    4.2060
   32    4.6970
   33    5.2116
   34    5.2116
   35    5.2873
   36    5.7210
   37    5.7210
   38    6.6069
   39    6.6069
   40    6.9567
   41    6.9567
   42    7.2549
   43    7.2549
   44    7.3253
   45    7.3264
   46    7.3264
   47    7.3717
   48    7.6862
   49    7.6862
   50    7.9347
   51    7.9347
   52    8.8104
   53    8.8104
   54    8.8887
   55    9.4808
   56    9.7175
   57    9.9974
   58    9.9974
   59   10.0264
   60   10.0264
   61   10.2392
   62   10.2392
   63   10.6200
   64   13.4658
   65   13.6460
   66   14.2005
   67   14.2005
   68   17.4838
   69   27.0678
   70   30.1711


          Converged CI vector

   Index           Coefficient          Config. Occupation
         1          0.99605652          1  1
         4         -0.08872097          2  2

          Number of sigma calls:        1
                       o<<<<< (aa):             0.00
                       o<<<<< (bb):             0.00
                       o<<<<< (ab):             0.00
                       o<<<<< (total)           0.00
                       o<<<<< (aa) ff           0.00
                       o<<<<< (aa) gop          0.00
                       o<<<<< (aa) dot          0.00
                       o<<<<< (ab) str          0.00
                       o<<<<< (ab) gath         0.00
                       o<<<<< (ab) dotab        0.00
                       o<<<<< (ab) scat         0.00
                       o<<<<< (ab) sync         0.00
                       o<<<<< Density           0.00
                       o<<<<< Density one       0.00
                       o<<<<< Density two       0.00
                       o<<<<< Density ab        0.00
                       o<<<<< Spin adapt        0.00
                       o<<<<< Symm adapt        0.00

                       o<<<<< (ab) max sync:      0.00



          Natural orbital occupation numbers

              1      
    1    1.9843
    2    0.0157


          Number of sigma calls:        2
                       o<<<<< (aa):             0.00
                       o<<<<< (bb):             0.00
                       o<<<<< (ab):             0.00
                       o<<<<< (total)           0.00
                       o<<<<< (aa) ff           0.00
                       o<<<<< (aa) gop          0.00
                       o<<<<< (aa) dot          0.00
                       o<<<<< (ab) str          0.00
                       o<<<<< (ab) gath         0.00
                       o<<<<< (ab) dotab        0.00
                       o<<<<< (ab) scat         0.00
                       o<<<<< (ab) sync         0.00
                       o<<<<< Density           0.00
                       o<<<<< Density one       0.00
                       o<<<<< Density two       0.00
                       o<<<<< Density ab        0.00
                       o<<<<< Spin adapt        0.00
                       o<<<<< Symm adapt        0.00

                       o<<<<< (ab) max sync:      0.00


       Final MCSCF results 
       ------------------- 

       Total MCSCF energy =     -1.133832604864
            Gradient norm =      7.3D-05

    CPU time for solution =      1.1s
   Wall time for solution =      1.2s



                        Analysis of MCSCF natural orbitals
                        ----------------------------------

 Vector    1  Occ=1.984257D+00  E=-6.477886D-01  Symmetry=a
              MO Center=  2.7D-16,  1.9D-13,  1.2D-16, r^2= 6.2D-01
   Bfn.  Coefficient  Atom+Function         Bfn.  Coefficient  Atom+Function  
  ----- ------------  ---------------      ----- ------------  ---------------
     3      0.251461  1 H  s                 38      0.251461  2 H  s          
     2      0.195234  1 H  s                 37      0.195234  2 H  s          

 Vector    2  Occ=1.574282D-02  E=-1.260111D-02  Symmetry=a
              MO Center= -4.7D-15, -5.0D-13, -1.1D-15, r^2= 6.1D-01
   Bfn.  Coefficient  Atom+Function         Bfn.  Coefficient  Atom+Function  
  ----- ------------  ---------------      ----- ------------  ---------------
     3      0.713015  1 H  s                 38     -0.713015  2 H  s          
     2      0.661096  1 H  s                 37     -0.661096  2 H  s          

 Vector    3  Occ=0.000000D+00  E= 2.024168D-01  Symmetry=a
              MO Center= -1.0D-16, -1.3D-12, -1.3D-16, r^2= 4.6D+00
   Bfn.  Coefficient  Atom+Function         Bfn.  Coefficient  Atom+Function  
  ----- ------------  ---------------      ----- ------------  ---------------
     3      1.465284  1 H  s                 38      1.465284  2 H  s          
     4     -1.094351  1 H  s                 39     -1.094351  2 H  s          
     9      0.254043  1 H  py                23     -0.252958  1 H  dyy        
    44     -0.254043  2 H  py                58     -0.252958  2 H  dyy        
    20     -0.185497  1 H  dxx               25     -0.185497  1 H  dzz        

 Vector    4  Occ=0.000000D+00  E= 2.528366D-01  Symmetry=a
              MO Center=  4.6D-16,  1.3D-12,  2.9D-16, r^2= 5.9D+00
   Bfn.  Coefficient  Atom+Function         Bfn.  Coefficient  Atom+Function  
  ----- ------------  ---------------      ----- ------------  ---------------
     4      4.718375  1 H  s                 39     -4.718375  2 H  s          
     3     -2.760556  1 H  s                 38      2.760556  2 H  s          
     2      1.064632  1 H  s                 37     -1.064632  2 H  s          
     9      0.534251  1 H  py                44      0.534251  2 H  py         
    23      0.405492  1 H  dyy               58     -0.405492  2 H  dyy        

 Vector    5  Occ=0.000000D+00  E= 4.709659D-01  Symmetry=a
              MO Center= -2.7D-16, -4.8D-14, -8.0D-16, r^2= 1.7D+00
   Bfn.  Coefficient  Atom+Function         Bfn.  Coefficient  Atom+Function  
  ----- ------------  ---------------      ----- ------------  ---------------
    10      1.530725  1 H  pz                45      1.530725  2 H  pz         
    13     -0.750741  1 H  pz                48     -0.750741  2 H  pz         
     8      0.651021  1 H  px                43      0.651021  2 H  px         
    28     -0.628863  1 H  fxxz              33     -0.627380  1 H  fyyz       
    35     -0.628863  1 H  fzzz              63     -0.628863  2 H  fxxz       

 Vector    6  Occ=0.000000D+00  E= 4.709659D-01  Symmetry=a
              MO Center=  4.8D-16, -3.5D-14, -1.7D-16, r^2= 1.7D+00
   Bfn.  Coefficient  Atom+Function         Bfn.  Coefficient  Atom+Function  
  ----- ------------  ---------------      ----- ------------  ---------------
     8      1.530725  1 H  px                43      1.530725  2 H  px         
    11     -0.750741  1 H  px                46     -0.750741  2 H  px         
    10     -0.651021  1 H  pz                45     -0.651021  2 H  pz         
    26     -0.628863  1 H  fxxx              29     -0.627380  1 H  fxyy       
    31     -0.628863  1 H  fxzz              61     -0.628863  2 H  fxxx       

 Vector    7  Occ=0.000000D+00  E= 7.703635D-01  Symmetry=a
              MO Center=  1.6D-16, -3.1D-14,  3.1D-16, r^2= 2.5D+00
   Bfn.  Coefficient  Atom+Function         Bfn.  Coefficient  Atom+Function  
  ----- ------------  ---------------      ----- ------------  ---------------
    12      2.049890  1 H  py                47     -2.049890  2 H  py         
     9     -1.695135  1 H  py                44      1.695135  2 H  py         
     3     -1.281966  1 H  s                 38     -1.281966  2 H  s          
    32      0.786375  1 H  fyyy              67     -0.786375  2 H  fyyy       
    27      0.653837  1 H  fxxy              34      0.653837  1 H  fyzz       

 Vector    8  Occ=0.000000D+00  E= 7.836624D-01  Symmetry=a
              MO Center= -2.6D-17,  5.0D-14, -6.5D-17, r^2= 2.3D+00
   Bfn.  Coefficient  Atom+Function         Bfn.  Coefficient  Atom+Function  
  ----- ------------  ---------------      ----- ------------  ---------------
    13      2.633590  1 H  pz                48     -2.633590  2 H  pz         
    10     -1.715351  1 H  pz                45      1.715351  2 H  pz         
    33      0.971763  1 H  fyyz              68     -0.971763  2 H  fyyz       
    28      0.787442  1 H  fxxz              35      0.787442  1 H  fzzz       
    63     -0.787442  2 H  fxxz              70     -0.787442  2 H  fzzz       

 Vector    9  Occ=0.000000D+00  E= 7.836624D-01  Symmetry=a
              MO Center=  8.3D-15,  4.1D-14, -6.8D-16, r^2= 2.3D+00
   Bfn.  Coefficient  Atom+Function         Bfn.  Coefficient  Atom+Function  
  ----- ------------  ---------------      ----- ------------  ---------------
    11      2.633590  1 H  px                46     -2.633590  2 H  px         
     8     -1.715351  1 H  px                43      1.715351  2 H  px         
    29      0.971763  1 H  fxyy              64     -0.971763  2 H  fxyy       
    26      0.787442  1 H  fxxx              31      0.787442  1 H  fxzz       
    61     -0.787442  2 H  fxxx              66     -0.787442  2 H  fxzz       

 Vector   10  Occ=0.000000D+00  E= 1.022089D+00  Symmetry=a
              MO Center= -6.7D-16, -1.7D-12,  5.3D-16, r^2= 2.3D+00
   Bfn.  Coefficient  Atom+Function         Bfn.  Coefficient  Atom+Function  
  ----- ------------  ---------------      ----- ------------  ---------------
     3      3.135774  1 H  s                 38      3.135774  2 H  s          
     2     -1.147090  1 H  s                 37     -1.147090  2 H  s          
     4     -0.772853  1 H  s                 39     -0.772853  2 H  s          
    20     -0.711277  1 H  dxx               25     -0.711277  1 H  dzz        
    55     -0.711277  2 H  dxx               60     -0.711277  2 H  dzz        

 Vector   11  Occ=0.000000D+00  E= 1.061708D+00  Symmetry=a
              MO Center= -3.1D-15,  1.5D-12,  1.5D-15, r^2= 2.9D+00
   Bfn.  Coefficient  Atom+Function         Bfn.  Coefficient  Atom+Function  
  ----- ------------  ---------------      ----- ------------  ---------------
     3     46.342211  1 H  s                 38    -46.342211  2 H  s          
    12     15.870005  1 H  py                47     15.870005  2 H  py         
     2     10.906597  1 H  s                 37    -10.906597  2 H  s          
     9      6.712334  1 H  py                44      6.712334  2 H  py         
    23      3.015102  1 H  dyy               58     -3.015102  2 H  dyy        

 Vector   12  Occ=0.000000D+00  E= 1.176028D+00  Symmetry=a
              MO Center= -4.3D-15, -2.0D-13, -5.7D-16, r^2= 3.1D+00
   Bfn.  Coefficient  Atom+Function         Bfn.  Coefficient  Atom+Function  
  ----- ------------  ---------------      ----- ------------  ---------------
     2      7.258195  1 H  s                 37     -7.258195  2 H  s          
    12      3.627309  1 H  py                47      3.627309  2 H  py         
     9      3.165195  1 H  py                44      3.165195  2 H  py         
     4      3.146203  1 H  s                 39     -3.146203  2 H  s          
     3      2.809107  1 H  s                 38     -2.809107  2 H  s          


 Wrote Lagrangian and 1- and 2-particle density matrices to ./H2.mcpdm


     Multipole analysis of the density
     ---------------------------------

     L   x y z        total        nuclear
     -   - - -        -----        -------
     0   0 0 0     -0.000000      2.000000

     1   1 0 0     -0.000000      0.000000
     1   0 1 0     -0.000000      0.000000
     1   0 0 1     -0.000000      0.000000

     2   2 0 0     -1.363508      0.000000
     2   1 1 0      0.000000      0.000000
     2   1 0 1      0.000000      0.000000
     2   0 2 0     -1.060834      0.661250
     2   0 1 1     -0.000000      0.000000
     2   0 0 2     -1.363508      0.000000


  Mulliken analysis of the total density
  --------------------------------------

    Atom       Charge   Shell Charges
 -----------   ------   -------------------------------------------------------
    1 H    1     1.00   0.08  0.33  0.46  0.11  0.00  0.00  0.01  0.01  0.00  0.00
    2 H    1     1.00   0.08  0.33  0.46  0.11  0.00  0.00  0.01  0.01  0.00  0.00

    Mulliken analysis of the active space density
    ---------------------------------------------

    Atom       Charge   Shell Charges
 -----------   ------   -------------------------------------------------------
    1 H    1     1.00   0.08  0.33  0.46  0.11  0.00  0.00  0.01  0.01  0.00  0.00
    2 H    1     1.00   0.08  0.33  0.46  0.11  0.00  0.00  0.01  0.01  0.00  0.00

 Parallel integral file used      20 records with       0 large values


 Task  times  cpu:        1.1s     wall:        1.3s


                                NWChem Input Module
                                -------------------


                                 NWChem SCF Module
                                 -----------------


                                        H2



  ao basis        = "ao basis"
  functions       =    70
  atoms           =     2
  closed shells   =     1
  open shells     =     0
  charge          =   0.00
  wavefunction    = RHF 
  input vectors   = ./H2.mos
  output vectors  = ./H2.mos
  use symmetry    = F
  symmetry adapt  = F


 Summary of "ao basis" -> "ao basis" (cartesian)
 ------------------------------------------------------------------------------
       Tag                 Description            Shells   Functions and Types
 ---------------- ------------------------------  ------  ---------------------
 H                          cc-pVQZ                 10       35   4s3p2d1f



 Forming initial guess at       1.3s


 Loading old vectors from job with title :

H2


 Starting SCF solution at       1.3s



 ----------------------------------------------
         Quadratically convergent ROHF

 Convergence threshold     :          1.000E-04
 Maximum no. of iterations :           30
 Final Fock-matrix accuracy:          1.000E-07
 ----------------------------------------------


 Integral file          = ./H2.aoints.0
 Record size in doubles =  65536        No. of integs per rec  =  43688
 Max. records in memory =     99        Max. records in file   = 280308
 No. of bits per label  =      8        No. of bits per value  =     64


 #quartets = 2.216D+04 #integrals = 8.606D+05 #direct =  0.0% #cached =100.0%



       Final RHF  results 
       ------------------ 

         Total SCF energy =     -1.118486559251
      One-electron energy =     -2.701007164415
      Two-electron energy =      0.712955387773
 Nuclear repulsion energy =      0.869565217391

        Time for solution =      0.1s


             Final eigenvalues
             -----------------

              1      
    1   -0.6478
    2   -0.0126
    3    0.2024
    4    0.2528
    5    0.4710
    6    0.4710
    7    0.7704
    8    0.7837
    9    0.7837
   10    1.0221
   11    1.0617

                       ROHF Final Molecular Orbital Analysis
                       -------------------------------------

 Vector    1  Occ=2.000000D+00  E=-6.477886D-01
              MO Center=  2.7D-16,  1.9D-13,  1.2D-16, r^2= 6.2D-01
   Bfn.  Coefficient  Atom+Function         Bfn.  Coefficient  Atom+Function  
  ----- ------------  ---------------      ----- ------------  ---------------
     3      0.251461  1 H  s                 38      0.251461  2 H  s          
     2      0.195234  1 H  s                 37      0.195234  2 H  s          

 Vector    2  Occ=0.000000D+00  E=-1.260111D-02
              MO Center= -4.7D-15, -5.0D-13, -1.1D-15, r^2= 6.1D-01
   Bfn.  Coefficient  Atom+Function         Bfn.  Coefficient  Atom+Function  
  ----- ------------  ---------------      ----- ------------  ---------------
     3      0.713015  1 H  s                 38     -0.713015  2 H  s          
     2      0.661096  1 H  s                 37     -0.661096  2 H  s          

 Vector    3  Occ=0.000000D+00  E= 2.024168D-01
              MO Center= -1.0D-16, -1.3D-12, -1.3D-16, r^2= 4.6D+00
   Bfn.  Coefficient  Atom+Function         Bfn.  Coefficient  Atom+Function  
  ----- ------------  ---------------      ----- ------------  ---------------
     3      1.465284  1 H  s                 38      1.465284  2 H  s          
     4     -1.094351  1 H  s                 39     -1.094351  2 H  s          
     9      0.254043  1 H  py                23     -0.252958  1 H  dyy        
    44     -0.254043  2 H  py                58     -0.252958  2 H  dyy        
    20     -0.185497  1 H  dxx               25     -0.185497  1 H  dzz        

 Vector    4  Occ=0.000000D+00  E= 2.528366D-01
              MO Center=  4.6D-16,  1.3D-12,  2.9D-16, r^2= 5.9D+00
   Bfn.  Coefficient  Atom+Function         Bfn.  Coefficient  Atom+Function  
  ----- ------------  ---------------      ----- ------------  ---------------
     4      4.718375  1 H  s                 39     -4.718375  2 H  s          
     3     -2.760556  1 H  s                 38      2.760556  2 H  s          
     2      1.064632  1 H  s                 37     -1.064632  2 H  s          
     9      0.534251  1 H  py                44      0.534251  2 H  py         
    23      0.405492  1 H  dyy               58     -0.405492  2 H  dyy        

 Vector    5  Occ=0.000000D+00  E= 4.709659D-01
              MO Center= -2.7D-16, -4.8D-14, -8.0D-16, r^2= 1.7D+00
   Bfn.  Coefficient  Atom+Function         Bfn.  Coefficient  Atom+Function  
  ----- ------------  ---------------      ----- ------------  ---------------
    10      1.530725  1 H  pz                45      1.530725  2 H  pz         
    13     -0.750741  1 H  pz                48     -0.750741  2 H  pz         
     8      0.651021  1 H  px                43      0.651021  2 H  px         
    28     -0.628863  1 H  fxxz              33     -0.627380  1 H  fyyz       
    35     -0.628863  1 H  fzzz              63     -0.628863  2 H  fxxz       

 Vector    6  Occ=0.000000D+00  E= 4.709659D-01
              MO Center=  4.8D-16, -3.5D-14, -1.7D-16, r^2= 1.7D+00
   Bfn.  Coefficient  Atom+Function         Bfn.  Coefficient  Atom+Function  
  ----- ------------  ---------------      ----- ------------  ---------------
     8      1.530725  1 H  px                43      1.530725  2 H  px         
    11     -0.750741  1 H  px                46     -0.750741  2 H  px         
    10     -0.651021  1 H  pz                45     -0.651021  2 H  pz         
    26     -0.628863  1 H  fxxx              29     -0.627380  1 H  fxyy       
    31     -0.628863  1 H  fxzz              61     -0.628863  2 H  fxxx       

 Vector    7  Occ=0.000000D+00  E= 7.703635D-01
              MO Center=  1.6D-16, -3.0D-14,  3.1D-16, r^2= 2.5D+00
   Bfn.  Coefficient  Atom+Function         Bfn.  Coefficient  Atom+Function  
  ----- ------------  ---------------      ----- ------------  ---------------
    12      2.049890  1 H  py                47     -2.049890  2 H  py         
     9     -1.695135  1 H  py                44      1.695135  2 H  py         
     3     -1.281966  1 H  s                 38     -1.281966  2 H  s          
    32      0.786375  1 H  fyyy              67     -0.786375  2 H  fyyy       
    27      0.653837  1 H  fxxy              34      0.653837  1 H  fyzz       

 Vector    8  Occ=0.000000D+00  E= 7.836624D-01
              MO Center= -2.6D-17,  5.0D-14, -6.5D-17, r^2= 2.3D+00
   Bfn.  Coefficient  Atom+Function         Bfn.  Coefficient  Atom+Function  
  ----- ------------  ---------------      ----- ------------  ---------------
    13      2.633590  1 H  pz                48     -2.633590  2 H  pz         
    10     -1.715351  1 H  pz                45      1.715351  2 H  pz         
    33      0.971763  1 H  fyyz              68     -0.971763  2 H  fyyz       
    28      0.787442  1 H  fxxz              35      0.787442  1 H  fzzz       
    63     -0.787442  2 H  fxxz              70     -0.787442  2 H  fzzz       

 Vector    9  Occ=0.000000D+00  E= 7.836624D-01
              MO Center=  8.3D-15,  4.0D-14, -6.8D-16, r^2= 2.3D+00
   Bfn.  Coefficient  Atom+Function         Bfn.  Coefficient  Atom+Function  
  ----- ------------  ---------------      ----- ------------  ---------------
    11      2.633590  1 H  px                46     -2.633590  2 H  px         
     8     -1.715351  1 H  px                43      1.715351  2 H  px         
    29      0.971763  1 H  fxyy              64     -0.971763  2 H  fxyy       
    26      0.787442  1 H  fxxx              31      0.787442  1 H  fxzz       
    61     -0.787442  2 H  fxxx              66     -0.787442  2 H  fxzz       

 Vector   10  Occ=0.000000D+00  E= 1.022089D+00
              MO Center= -6.7D-16, -1.7D-12,  5.3D-16, r^2= 2.3D+00
   Bfn.  Coefficient  Atom+Function         Bfn.  Coefficient  Atom+Function  
  ----- ------------  ---------------      ----- ------------  ---------------
     3      3.135774  1 H  s                 38      3.135774  2 H  s          
     2     -1.147090  1 H  s                 37     -1.147090  2 H  s          
     4     -0.772853  1 H  s                 39     -0.772853  2 H  s          
    20     -0.711277  1 H  dxx               25     -0.711277  1 H  dzz        
    55     -0.711277  2 H  dxx               60     -0.711277  2 H  dzz        

 Vector   11  Occ=0.000000D+00  E= 1.061708D+00
              MO Center= -3.1D-15,  1.8D-12,  1.5D-15, r^2= 2.9D+00
   Bfn.  Coefficient  Atom+Function         Bfn.  Coefficient  Atom+Function  
  ----- ------------  ---------------      ----- ------------  ---------------
     3     46.342211  1 H  s                 38    -46.342211  2 H  s          
    12     15.870005  1 H  py                47     15.870005  2 H  py         
     2     10.906597  1 H  s                 37    -10.906597  2 H  s          
     9      6.712334  1 H  py                44      6.712334  2 H  py         
    23      3.015102  1 H  dyy               58     -3.015102  2 H  dyy        


 center of mass
 --------------
 x =   0.00000000 y =   0.00000000 z =   0.00000000

 moments of inertia (a.u.)
 ------------------
           0.666424281250           0.000000000000           0.000000000000
           0.000000000000           0.000000000000           0.000000000000
           0.000000000000           0.000000000000           0.666424281250

  Mulliken analysis of the total density
  --------------------------------------

    Atom       Charge   Shell Charges
 -----------   ------   -------------------------------------------------------
    1 H    1     1.00   0.08  0.33  0.46  0.11  0.00  0.00  0.01  0.01  0.00  0.00
    2 H    1     1.00   0.08  0.33  0.46  0.11  0.00  0.00  0.01  0.01  0.00  0.00

       Multipole analysis of the density wrt the origin
       ------------------------------------------------

     L   x y z        total         open         nuclear
     -   - - -        -----         ----         -------
     0   0 0 0     -0.000000      0.000000      2.000000

     1   1 0 0     -0.000000      0.000000      0.000000
     1   0 1 0     -0.000000      0.000000      0.000000
     1   0 0 1     -0.000000      0.000000      0.000000

     2   2 0 0     -1.367935      0.000000      0.000000
     2   1 1 0      0.000000      0.000000      0.000000
     2   1 0 1      0.000000      0.000000      0.000000
     2   0 2 0     -1.052557      0.000000      0.661250
     2   0 1 1     -0.000000      0.000000      0.000000
     2   0 0 2     -1.367935      0.000000      0.000000


 Parallel integral file used      20 records with       0 large values

                   NWChem Extensible Many-Electron Theory Module
                   ---------------------------------------------

              ======================================================
                   This portion of the program was automatically
                  generated by a Tensor Contraction Engine (TCE).
                  The development of this portion of the program
                 and TCE was supported by US Department of Energy,
                Office of Science, Office of Basic Energy Science.
                      TCE is a product of Battelle and PNNL.
              Please cite: S.Hirata, J.Phys.Chem.A 107, 9887 (2003).
              ======================================================

                                        H2


            General Information
            -------------------
      Number of processors :     1
         Wavefunction type : Restricted Hartree-Fock
          No. of electrons :     2
           Alpha electrons :     1
            Beta electrons :     1
           No. of orbitals :   140
            Alpha orbitals :    70
             Beta orbitals :    70
        Alpha frozen cores :     0
         Beta frozen cores :     0
     Alpha frozen virtuals :     0
      Beta frozen virtuals :     0
         Spin multiplicity : singlet 
    Number of AO functions :    70
       Number of AO shells :    20
        Use of symmetry is : off
      Symmetry adaption is : off
         Schwarz screening : 0.10D-09

          Correlation Information
          -----------------------
          Calculation type : Coupled-cluster singles & doubles                           
   Perturbative correction : none                                                        
            Max iterations :      300
        Residual threshold : 0.10D-06
     T(0) DIIS level shift : 0.20D+00
     L(0) DIIS level shift : 0.00D+00
     T(1) DIIS level shift : 0.00D+00
     L(1) DIIS level shift : 0.00D+00
     T(R) DIIS level shift : 0.00D+00
     T(I) DIIS level shift : 0.00D+00
   CC-T/L Amplitude update :  5-th order DIIS
                I/O scheme : Global Array Library
        L-threshold :  0.10D-06
        EOM-threshold :  0.10D-06
 no EOMCCSD initial starts read in
 TCE RESTART OPTIONS
 READ_INT:   F
 WRITE_INT:  F
 READ_TA:    F
 WRITE_TA:   F
 READ_XA:    F
 WRITE_XA:   F
 READ_IN3:   F
 WRITE_IN3:  F
 SLICE:      F
 D4D5:       F
 quantumc:   F
 qrotation:  F
 pwtce:      F
 qducc:      T
 nacto:                         0
 nrotv:                         0
 nrot:                          0

            Memory Information
            ------------------
          Available GA space size is    1610607836 doubles
          Available MA space size is    1610610644 doubles

 Maximum block size        32 doubles

 tile_dim =     23

 Block   Spin    Irrep     Size     Offset   Alpha
 -------------------------------------------------
   1    alpha     a      1 doubles       0       1
   2    beta      a      1 doubles       1       1
   3    alpha     a     23 doubles       2       3
   4    alpha     a     23 doubles      25       4
   5    alpha     a     23 doubles      48       5
   6    beta      a     23 doubles      71       3
   7    beta      a     23 doubles      94       4
   8    beta      a     23 doubles     117       5

 Global array virtual files algorithm will be used

 Parallel file system coherency ......... OK

 Integral file          = ./H2.aoints.0
 Record size in doubles =  65536        No. of integs per rec  =  43688
 Max. records in memory =     99        Max. records in file   = 280308
 No. of bits per label  =      8        No. of bits per value  =     64


 #quartets = 2.216D+04 #integrals = 8.606D+05 #direct =  0.0% #cached =100.0%


 Fock matrix recomputed
 1-e file size   =             4900
 1-e file name   = ./H2.f1
 Cpu & wall time / sec            0.1            0.1
 4-electron integrals stored in orbital form

 v2    file size   =          6102085
 4-index algorithm nr.  13 is used
 imaxsize =       30
 imaxsize ichop =        0
 Cpu & wall time / sec            3.2            3.2
 T1-number-of-tasks                    3

 t1 file size   =               69
 t1 file name   = ./H2.t1
 t1 file handle =       -998
 T2-number-of-boxes                   15

 t2 file size   =             7935
 t2 file name   = ./H2.t2
 t2 file handle =       -996
CCSD iterations
 ---------------------------------------------------------
 Iter          Residuum       Correlation     Cpu    Wall 
 ---------------------------------------------------------
NEW TASK SCHEDULING
CCSD_T1_NTS --- OK
CCSD_T2_NTS --- OK
    1   0.2083196166365  -0.0479030419266     0.2     0.2
    2   0.1001279185141  -0.0322052916506     0.2     0.2
    3   0.0493541035232  -0.0416511642486     0.2     0.2
    4   0.0228235225807  -0.0378453805520     0.2     0.2
    5   0.0113005865928  -0.0399439167966     0.2     0.2
 MICROCYCLE DIIS UPDATE:                    5                    5
    6   0.0002494044567  -0.0393844718650     0.2     0.2
    7   0.0000966229236  -0.0393850568719     0.2     0.2
    8   0.0000463362601  -0.0393840957892     0.2     0.2
    9   0.0000240049742  -0.0393846487877     0.2     0.2
   10   0.0000118509745  -0.0393846142007     0.2     0.2
 MICROCYCLE DIIS UPDATE:                   10                    5
   11   0.0000011418113  -0.0393848764029     0.2     0.2
   12   0.0000003255834  -0.0393849053078     0.2     0.2
   13   0.0000001200720  -0.0393849191850     0.2     0.2
   14   0.0000000453873  -0.0393849232604     0.2     0.2
 -----------------------------------------------------------------
 Iterations converged
 CCSD correlation energy / hartree =        -0.039384923260408
 CCSD total energy / hartree       =        -1.157871482511762

 Singles contributions

 Doubles contributions
     2a   (alpha)     2a   (beta ) ---     1a   (alpha)     1a   (beta )       -0.0815505469
     3a   (alpha)     3a   (beta ) ---     1a   (alpha)     1a   (beta )       -0.0241530273
     3a   (alpha)    10a   (beta ) ---     1a   (alpha)     1a   (beta )        0.0203786615
     5a   (alpha)     5a   (beta ) ---     1a   (alpha)     1a   (beta )       -0.0301792815
     6a   (alpha)     6a   (beta ) ---     1a   (alpha)     1a   (beta )       -0.0301792815
    10a   (alpha)     3a   (beta ) ---     1a   (alpha)     1a   (beta )        0.0203786615
    10a   (alpha)    10a   (beta ) ---     1a   (alpha)     1a   (beta )       -0.0209570321
 Ground state specification:
 exp(T)|Ref>~(1+T)|Ref>
 ------- a(p)+/a(q) strings ----------

 singles norm

 doubles norm

 Reference string
   1.0000000000000000      :(1a)+ (1b)+ |0>

 Singles strings

 Doubles strings
 -------------------------------------
 enrep_tce =   0.86956521739130421     
  EHF(total)         =        -1.11848656
  Shift (HFtot-HFA)  =         0.00000000
 ALL OCCUPIED ORBITALS ARE ACTIVE IN DUCC --> NO SHIFT
 Number of active orbitals                    2
 Number of active alpha electrons                    1
 Number of active beta electrons                    1
  nos                     2
  nvs                   138
 noas                     1
 nobs                     1
 nvas                    69
 nvbs                    69
 nactv                     1
 DUCC MODEL =                     3
 NONHF =  T
 F-T1 correlation    =   -7.6218746513114001E-005
 V-T1-T1 correlation =    6.4473853145688201E-007
 V-T2 correlation    =   -3.9309349252426636E-002
 Total correlation   =   -3.9384923260408294E-002
 F-T1(Ext) correlation         =   -7.6218746513114001E-005
 V-T1(Ext)-T1(Ext) correlation =    6.4473853145688201E-007
 V-T2(Ext) correlation         =   -2.5259196065012170E-002
 Total Ext correlation         =   -2.5334770072993826E-002
1-BODY TIME =    0.023 SECONDS.
  HHHH TIME =    0.019 SECONDS.
  PPPP TIME =    0.000 SECONDS.
  HHHP TIME =    0.008 SECONDS.
  PPPH TIME =    0.073 SECONDS.
  HPHP TIME =    0.008 SECONDS.
  HHPP TIME =    0.006 SECONDS.
 ONE-BODY UNITARY CHECK
 TWO-BODY UNITARY CHECK
 TWO-BODY ANTISYMMETRY CHECK
 TRANSFORMED ~FOCK~ MATRIX
    1    1        -0.6588024934
    2    2         0.8190894795
 begin_one_electron_integrals
    1    1        -1.3505708052
    2    2        -0.4043620707
 end_one_electron_integrals
 begin_two_electron_integrals
    1    1    1    1        0.6917683118
    1    2    1    2        0.1596978145
    1    1    2    2        0.6974422784
    1    2    2    1        0.1714330067
    2    1    1    2        0.1714330067
    2    2    1    1        0.6974422784
    2    1    2    1        0.1596978145
    2    2    2    2        0.7398418943
 end_two_electron_integrals

 Parallel integral file used      20 records with       0 large values


 Task  times  cpu:       41.8s     wall:       44.4s


                                NWChem Input Module
                                -------------------


 Summary of allocated global arrays
-----------------------------------
  No active global arrays


MA_summarize_allocated_blocks: starting scan ...
MA_summarize_allocated_blocks: scan completed: 0 heap blocks, 0 stack blocks
MA usage statistics:

	allocation statistics:
					      heap	     stack
					      ----	     -----
	current number of blocks	         0	         0
	maximum number of blocks	        18	        42
	current total bytes		         0	         0
	maximum total bytes		  51983016	9994007160
	maximum total K-bytes		     51984	   9994008
	maximum total M-bytes		        52	      9995


                                     CITATION
                                     --------
                Please cite the following reference when publishing
                           results obtained with NWChem:

          E. Apra, E. J. Bylaska, W. A. de Jong, N. Govind, K. Kowalski,
       T. P. Straatsma, M. Valiev, H. J. J. van Dam, Y. Alexeev, J. Anchell,
       V. Anisimov, F. W. Aquino, R. Atta-Fynn, J. Autschbach, N. P. Bauman,
     J. C. Becca, D. E. Bernholdt, K. Bhaskaran-Nair, S. Bogatko, P. Borowski,
         J. Boschen, J. Brabec, A. Bruner, E. Cauet, Y. Chen, G. N. Chuev,
      C. J. Cramer, J. Daily, M. J. O. Deegan, T. H. Dunning Jr., M. Dupuis,
   K. G. Dyall, G. I. Fann, S. A. Fischer, A. Fonari, H. Fruchtl, L. Gagliardi,
      J. Garza, N. Gawande, S. Ghosh, K. Glaesemann, A. W. Gotz, J. Hammond,
       V. Helms, E. D. Hermes, K. Hirao, S. Hirata, M. Jacquelin, L. Jensen,
   B. G. Johnson, H. Jonsson, R. A. Kendall, M. Klemm, R. Kobayashi, V. Konkov,
      S. Krishnamoorthy, M. Krishnan, Z. Lin, R. D. Lins, R. J. Littlefield,
      A. J. Logsdail, K. Lopata, W. Ma, A. V. Marenich, J. Martin del Campo,
   D. Mejia-Rodriguez, J. E. Moore, J. M. Mullin, T. Nakajima, D. R. Nascimento,
    J. A. Nichols, P. J. Nichols, J. Nieplocha, A. Otero-de-la-Roza, B. Palmer,
    A. Panyala, T. Pirojsirikul, B. Peng, R. Peverati, J. Pittner, L. Pollack,
   R. M. Richard, P. Sadayappan, G. C. Schatz, W. A. Shelton, D. W. Silverstein,
   D. M. A. Smith, T. A. Soares, D. Song, M. Swart, H. L. Taylor, G. S. Thomas,
            V. Tipparaju, D. G. Truhlar, K. Tsemekhman, T. Van Voorhis,
      A. Vazquez-Mayagoitia, P. Verma, O. Villa, A. Vishnu, K. D. Vogiatzis,
        D. Wang, J. H. Weare, M. J. Williamson, T. L. Windus, K. Wolinski,
        A. T. Wong, Q. Wu, C. Yang, Q. Yu, M. Zacharias, Z. Zhang, Y. Zhao,
                                and R. J. Harrison
                        "NWChem: Past, present, and future
                         J. Chem. Phys. 152, 184102 (2020)
                               doi:10.1063/5.0004997

                                      AUTHORS
                                      -------
  E. Apra, E. J. Bylaska, N. Govind, K. Kowalski, M. Valiev, D. Mejia-Rodriguez,
       A. Kunitsa, N. P. Bauman, A. Panyala, W. A. de Jong, T. P. Straatsma,
        H. J. J. van Dam, D. Wang, T. L. Windus, J. Hammond, J. Autschbach,
    K. Bhaskaran-Nair, J. Brabec, K. Lopata, S. A. Fischer, S. Krishnamoorthy,
     M. Jacquelin, W. Ma, M. Klemm, O. Villa, Y. Chen, V. Anisimov, F. Aquino,
    S. Hirata, M. T. Hackler, Eric Hermes, L. Jensen, J. E. Moore, J. C. Becca,
      V. Konjkov, T. Risthaus, M. Malagoli, A. Marenich, A. Otero-de-la-Roza,
        J. Mullin, P. Nichols, R. Peverati, J. Pittner, Y. Zhao, P.-D. Fan,
        A. Fonari, M. J. Williamson, R. J. Harrison, J. R. Rehr, M. Dupuis,
     D. Silverstein, D. M. A. Smith, J. Nieplocha, V. Tipparaju, M. Krishnan,
     B. E. Van Kuiken, A. Vazquez-Mayagoitia, M. Swart, Q. Wu, T. Van Voorhis,
     A. A. Auer, M. Nooijen, L. D. Crosby, E. Brown, G. Cisneros, G. I. Fann,
   H. Fruchtl, J. Garza, K. Hirao, R. A. Kendall, J. A. Nichols, K. Tsemekhman,
    K. Wolinski, J. Anchell, D. E. Bernholdt, P. Borowski, T. Clark, D. Clerc,
   H. Dachsel, M. J. O. Deegan, K. Dyall, D. Elwood, E. Glendening, M. Gutowski,
   A. C. Hess, J. Jaffe, B. G. Johnson, J. Ju, R. Kobayashi, R. Kutteh, Z. Lin,
   R. Littlefield, X. Long, B. Meng, T. Nakajima, S. Niu, L. Pollack, M. Rosing,
   K. Glaesemann, G. Sandrone, M. Stave, H. Taylor, G. Thomas, J. H. van Lenthe,
                               A. T. Wong, Z. Zhang.

 Total times  cpu:       43.0s     wall:       45.7s
