 argument  1 = input.nw
  NWChem w/ OpenMP: maximum threads =    1



============================== echo of input deck ==============================
 echo
 start H2
 title "H2"

 memory total 24 gb

 geometry units bohr
 symmetry c1
        H  0.00000000  0.00000000  0.00000000
        H  0.00000000  1.90  0.00000000
 end

 basis
   * library cc-pVQZ
 end

 mcscf
   active  2
   actelec 2
   multiplicity 1
   maxiter 40
   vectors input H2.mos
   vectors output H2.mos
 end

 task mcscf

 scf
   vectors input H2.mos
   vectors output H2.mos
   noscf
 end

 tce
   2eorb
   2emet 13
   ccsd
   maxiter 300
   lshift 0.2
 end

# set tce:print_integrals T
# set tce:qorb 4
# set tce:qela 1
# set tce:qelb 1

 set tce:qducc T
 set tce:nactv 1
 set tce:nonhf T
 set tce:ducc_model 3

 set tce:printtol 0.02

 task tce
================================================================================


                                         
                                         


             Northwest Computational Chemistry Package (NWChem) 7.0.1
             --------------------------------------------------------


                    Environmental Molecular Sciences Laboratory
                       Pacific Northwest National Laboratory
                                Richland, WA 99352

                              Copyright (c) 1994-2020
                       Pacific Northwest National Laboratory
                            Battelle Memorial Institute

             NWChem is an open-source computational chemistry package
                        distributed under the terms of the
                      Educational Community License (ECL) 2.0
             A copy of the license is included with this distribution
                              in the LICENSE.TXT file

                                  ACKNOWLEDGMENT
                                  --------------

            This software and its documentation were developed at the
            EMSL at Pacific Northwest National Laboratory, a multiprogram
            national laboratory, operated for the U.S. Department of Energy
            by Battelle under Contract Number DE-AC05-76RL01830. Support
            for this work was provided by the Department of Energy Office
            of Biological and Environmental Research, Office of Basic
            Energy Sciences, and the Office of Advanced Scientific Computing.


           Job information
           ---------------

    hostname        = WE46210
    program         = /home/baum612/code/nwchem/bin/LINUX64/nwchem
    date            = Wed Nov  8 15:17:30 2023

    compiled        = Mon_Nov_06_10:06:57_2023
    source          = /home/baum612/code/nwchem
    nwchem branch   = 7.0.0
    nwchem revision = nwchem_on_git-4191-g39d87d64de
    ga revision     = 5.8.1
    use scalapack   = F
    input           = input.nw
    prefix          = H2.
    data base       = ./H2.db
    status          = startup
    nproc           =        1
    time left       =     -1s



           Memory information
           ------------------

    heap     =  805306366 doubles =   6144.0 Mbytes
    stack    =  805306363 doubles =   6144.0 Mbytes
    global   = 1610612736 doubles =  12288.0 Mbytes (distinct from heap & stack)
    total    = 3221225465 doubles =  24576.0 Mbytes
    verify   = yes
    hardfail = no 


           Directory information
           ---------------------

  0 permanent = .
  0 scratch   = .




                                NWChem Input Module
                                -------------------


                                        H2
                                        --
 Turning off AUTOSYM since
 SYMMETRY directive was detected!


          ------
          auto-z
          ------
     1 autoz failed with cvr_scaling = 1.2 changing to 1.3
  no constraints, skipping    0.0000000000000000     
  no constraints, skipping    0.0000000000000000     


                             Geometry "geometry" -> ""
                             -------------------------

 Output coordinates in a.u. (scale by  1.000000000 to convert to a.u.)

  No.       Tag          Charge          X              Y              Z
 ---- ---------------- ---------- -------------- -------------- --------------
    1 H                    1.0000     0.00000000    -0.95000000     0.00000000
    2 H                    1.0000     0.00000000     0.95000000     0.00000000

      Atomic Mass 
      ----------- 

      H                  1.007825


 Effective nuclear repulsion energy (a.u.)       0.5263157895

            Nuclear Dipole moment (a.u.) 
            ----------------------------
        X                 Y               Z
 ---------------- ---------------- ----------------
     0.0000000000     0.0000000000     0.0000000000



                                Z-matrix (autoz)
                                -------- 

 Units are Angstrom for bonds and degrees for angles

      Type          Name      I     J     K     L     M      Value
      ----------- --------  ----- ----- ----- ----- ----- ----------
    1 Stretch                  1     2                       1.00544


            XYZ format geometry
            -------------------
     2
 geometry
 H                     0.00000000    -0.50271839     0.00000000
 H                     0.00000000     0.50271839     0.00000000



 Summary of "ao basis" -> "" (cartesian)
 ------------------------------------------------------------------------------
       Tag                 Description            Shells   Functions and Types
 ---------------- ------------------------------  ------  ---------------------
 *                          cc-pVQZ                   on all atoms 


                      Basis "ao basis" -> "ao basis" (cartesian)
                      -----
  H (Hydrogen)
  ------------
            Exponent  Coefficients 
       -------------- ---------------------------------------------------------
  1 S  8.26400000E+01  0.002006
  1 S  1.24100000E+01  0.015343
  1 S  2.82400000E+00  0.075579

  2 S  7.97700000E-01  1.000000

  3 S  2.58100000E-01  1.000000

  4 S  8.98900000E-02  1.000000

  5 P  2.29200000E+00  1.000000

  6 P  8.38000000E-01  1.000000

  7 P  2.92000000E-01  1.000000

  8 D  2.06200000E+00  1.000000

  9 D  6.62000000E-01  1.000000

 10 F  1.39700000E+00  1.000000



 Summary of "ao basis" -> "ao basis" (cartesian)
 ------------------------------------------------------------------------------
       Tag                 Description            Shells   Functions and Types
 ---------------- ------------------------------  ------  ---------------------
 H                          cc-pVQZ                 10       35   4s3p2d1f



                            NWChem Direct MCSCF Module
                            --------------------------


                                        H2


     -----------------------------------
       Basis functions:             70
       Inactive shells:              0
       Active shells:                2
       Active electrons:             2
       Symmetry:                    a       
       Multiplicity:                 1
       Orbital rotations:          136
     -----------------------------------

     -----------------------------------
       E2 extrapolation:             F
       Conjugacy:                    T
       Micro CI relax:               T
       Canonical orbitals:           T
       Maximum iterations:          40
       Converge threshold:    1.00E-04
       Conjugacy resets:            20
       Initial levelshift:        0.10
     -----------------------------------

 Loading old vectors from job with title :

H2


   input molecular orbitals = ./H2.mos
  output molecular orbtials = ./H2.mos

       No. of determinants:             4


  Starting Orbital Energies
    -0.541182    -0.026017     0.223807     0.262502     0.448800     0.448800
     0.705596     0.730799     0.730799     1.011459     1.098701     1.214121
     1.711524     1.711524     1.921978     1.921978     1.929385     2.121180
     2.121180     2.311544     2.311544     2.449050     2.449050     2.474415
     2.957807     3.156817     3.156817     3.217984     3.345188     4.309882
     4.370677     4.370677     4.667384     4.693359     4.693359     5.745898
     5.745898     5.814480     5.814480     6.276469     6.427110     6.427110
     6.609858     6.609858     7.550898     7.550898     7.780160     7.944752
     7.944752     8.095139     8.095139     8.351313     8.351313     8.431361
     8.431361     8.840718     8.961171     9.495976     9.652090     9.652090
     9.684594     9.779225     9.779225    10.335322    10.435266    10.435266
    10.958763    13.436955    22.631449    26.320350

  Orbital Symmetry Irreps
a    a    a    a    a    a    a    a    a    a    a    a    a    a    a   
a    a    a    a    a    a    a    a    a    a    a    a    a    a    a   
a    a    a    a    a    a    a    a    a    a    a    a    a    a    a   
a    a    a    a    a    a    a    a    a    a    a    a    a    a    a   
a    a    a    a    a    a    a    a    a    a   

 Integral file          = ./H2.aoints.0
 Record size in doubles =  65536        No. of integs per rec  =  43688
 Max. records in memory =     99        Max. records in file   = 280272
 No. of bits per label  =      8        No. of bits per value  =     64


 #quartets = 2.216D+04 #integrals = 8.606D+05 #direct =  0.0% #cached =100.0%




          %%%%% MacroIteration   1 %%%%%


          Number of sigma calls:        2
                       o<<<<< (aa):             0.00
                       o<<<<< (bb):             0.00
                       o<<<<< (ab):             0.00
                       o<<<<< (total)           0.00
                       o<<<<< (aa) ff           0.00
                       o<<<<< (aa) gop          0.00
                       o<<<<< (aa) dot          0.00
                       o<<<<< (ab) str          0.00
                       o<<<<< (ab) gath         0.00
                       o<<<<< (ab) dotab        0.00
                       o<<<<< (ab) scat         0.00
                       o<<<<< (ab) sync         0.00
                       o<<<<< Density           0.00
                       o<<<<< Density one       0.00
                       o<<<<< Density two       0.00
                       o<<<<< Density ab        0.00
                       o<<<<< Spin adapt        0.00
                       o<<<<< Symm adapt        0.00

                       o<<<<< (ab) max sync:      0.00

           >>>| Valence CI:             -1.654984906034
           >>>| MCSCF energy:           -1.128669116561
           >>>| Gradient norm:          0.285024027D-01

                              ----- Line search ------

        step       energy         lsg     num-lsg   num-lsh   lsrat    time
      ------- ---------------- --------- --------- --------- ------- --------
       0.0000      -1.12866912 -1.01D-04  0.00D+00  0.00D+00 0.0D+00      0.2

          Number of sigma calls:        2
                       o<<<<< (aa):             0.00
                       o<<<<< (bb):             0.00
                       o<<<<< (ab):             0.00
                       o<<<<< (total)           0.00
                       o<<<<< (aa) ff           0.00
                       o<<<<< (aa) gop          0.00
                       o<<<<< (aa) dot          0.00
                       o<<<<< (ab) str          0.00
                       o<<<<< (ab) gath         0.00
                       o<<<<< (ab) dotab        0.00
                       o<<<<< (ab) scat         0.00
                       o<<<<< (ab) sync         0.00
                       o<<<<< Density           0.00
                       o<<<<< Density one       0.00
                       o<<<<< Density two       0.00
                       o<<<<< Density ab        0.00
                       o<<<<< Spin adapt        0.00
                       o<<<<< Symm adapt        0.00

                       o<<<<< (ab) max sync:      0.00
       1.0000      -1.12872019 -1.34D-06 -1.35D-06  9.95D-05 1.3D-02      0.3
     --- Orbitals canonicalized ---



          %%%%% MacroIteration   2 %%%%%


          Number of sigma calls:        2
                       o<<<<< (aa):             0.00
                       o<<<<< (bb):             0.00
                       o<<<<< (ab):             0.00
                       o<<<<< (total)           0.00
                       o<<<<< (aa) ff           0.00
                       o<<<<< (aa) gop          0.00
                       o<<<<< (aa) dot          0.00
                       o<<<<< (ab) str          0.00
                       o<<<<< (ab) gath         0.00
                       o<<<<< (ab) dotab        0.00
                       o<<<<< (ab) scat         0.00
                       o<<<<< (ab) sync         0.00
                       o<<<<< Density           0.00
                       o<<<<< Density one       0.00
                       o<<<<< Density two       0.00
                       o<<<<< Density ab        0.00
                       o<<<<< Spin adapt        0.00
                       o<<<<< Symm adapt        0.00

                       o<<<<< (ab) max sync:      0.00

           >>>| Valence CI:             -1.655035980006
           >>>| MCSCF energy:           -1.128720190532
           >>>| Gradient norm:          0.335316424D-03
     --- Conjugacy reset ---

                              ----- Line search ------

        step       energy         lsg     num-lsg   num-lsh   lsrat    time
      ------- ---------------- --------- --------- --------- ------- --------
       0.0000      -1.12872019 -1.10D-07  0.00D+00  0.00D+00 0.0D+00      0.4

          Number of sigma calls:        2
                       o<<<<< (aa):             0.00
                       o<<<<< (bb):             0.00
                       o<<<<< (ab):             0.00
                       o<<<<< (total)           0.00
                       o<<<<< (aa) ff           0.00
                       o<<<<< (aa) gop          0.00
                       o<<<<< (aa) dot          0.00
                       o<<<<< (ab) str          0.00
                       o<<<<< (ab) gath         0.00
                       o<<<<< (ab) dotab        0.00
                       o<<<<< (ab) scat         0.00
                       o<<<<< (ab) sync         0.00
                       o<<<<< Density           0.00
                       o<<<<< Density one       0.00
                       o<<<<< Density two       0.00
                       o<<<<< Density ab        0.00
                       o<<<<< Spin adapt        0.00
                       o<<<<< Symm adapt        0.00

                       o<<<<< (ab) max sync:      0.00
       1.0000      -1.12872025 -3.58D-09 -3.59D-09  1.07D-07 3.3D-02      0.4



          %%%%% MacroIteration   3 %%%%%


          Number of sigma calls:        1
                       o<<<<< (aa):             0.00
                       o<<<<< (bb):             0.00
                       o<<<<< (ab):             0.00
                       o<<<<< (total)           0.00
                       o<<<<< (aa) ff           0.00
                       o<<<<< (aa) gop          0.00
                       o<<<<< (aa) dot          0.00
                       o<<<<< (ab) str          0.00
                       o<<<<< (ab) gath         0.00
                       o<<<<< (ab) dotab        0.00
                       o<<<<< (ab) scat         0.00
                       o<<<<< (ab) sync         0.00
                       o<<<<< Density           0.00
                       o<<<<< Density one       0.00
                       o<<<<< Density two       0.00
                       o<<<<< Density ab        0.00
                       o<<<<< Spin adapt        0.00
                       o<<<<< Symm adapt        0.00

                       o<<<<< (ab) max sync:      0.00

           >>>| Valence CI:             -1.655036036871
           >>>| MCSCF energy:           -1.128720247398
           >>>| Gradient norm:          0.305115517D-04




     ==============================
            MCSCF Converged
     ==============================



          Canonical Eigenvalues

              1      
    1   -0.5352
    2   -0.0274
    3    0.2252
    4    0.2631
    5    0.4477
    6    0.4477
    7    0.7001
    8    0.7266
    9    0.7266
   10    1.0079
   11    1.1039
   12    1.2148
   13    1.7130
   14    1.7130
   15    1.9122
   16    1.9217
   17    1.9217
   18    2.1110
   19    2.1110
   20    2.2894
   21    2.2894
   22    2.4360
   23    2.4360
   24    2.4648
   25    2.9568
   26    3.1421
   27    3.1421
   28    3.2104
   29    3.3185
   30    4.3077
   31    4.3808
   32    4.3808
   33    4.6170
   34    4.6760
   35    4.6760
   36    5.7137
   37    5.7137
   38    5.8320
   39    5.8320
   40    6.0913
   41    6.3973
   42    6.3973
   43    6.5034
   44    6.5034
   45    7.4795
   46    7.4795
   47    7.6839
   48    8.0298
   49    8.0298
   50    8.1011
   51    8.1011
   52    8.3294
   53    8.3294
   54    8.4372
   55    8.4372
   56    8.8694
   57    8.8833
   58    9.5030
   59    9.5766
   60    9.5766
   61    9.7071
   62    9.7676
   63    9.7676
   64   10.2158
   65   10.2660
   66   10.2660
   67   10.8686
   68   13.2121
   69   22.5533
   70   26.2940


          Converged CI vector

   Index           Coefficient          Config. Occupation
         1          0.98657627          1  1
         4         -0.16330112          2  2

          Number of sigma calls:        1
                       o<<<<< (aa):             0.00
                       o<<<<< (bb):             0.00
                       o<<<<< (ab):             0.00
                       o<<<<< (total)           0.00
                       o<<<<< (aa) ff           0.00
                       o<<<<< (aa) gop          0.00
                       o<<<<< (aa) dot          0.00
                       o<<<<< (ab) str          0.00
                       o<<<<< (ab) gath         0.00
                       o<<<<< (ab) dotab        0.00
                       o<<<<< (ab) scat         0.00
                       o<<<<< (ab) sync         0.00
                       o<<<<< Density           0.00
                       o<<<<< Density one       0.00
                       o<<<<< Density two       0.00
                       o<<<<< Density ab        0.00
                       o<<<<< Spin adapt        0.00
                       o<<<<< Symm adapt        0.00

                       o<<<<< (ab) max sync:      0.00



          Natural orbital occupation numbers

              1      
    1    1.9467
    2    0.0533


          Number of sigma calls:        2
                       o<<<<< (aa):             0.00
                       o<<<<< (bb):             0.00
                       o<<<<< (ab):             0.00
                       o<<<<< (total)           0.00
                       o<<<<< (aa) ff           0.00
                       o<<<<< (aa) gop          0.00
                       o<<<<< (aa) dot          0.00
                       o<<<<< (ab) str          0.00
                       o<<<<< (ab) gath         0.00
                       o<<<<< (ab) dotab        0.00
                       o<<<<< (ab) scat         0.00
                       o<<<<< (ab) sync         0.00
                       o<<<<< Density           0.00
                       o<<<<< Density one       0.00
                       o<<<<< Density two       0.00
                       o<<<<< Density ab        0.00
                       o<<<<< Spin adapt        0.00
                       o<<<<< Symm adapt        0.00

                       o<<<<< (ab) max sync:      0.00


       Final MCSCF results 
       ------------------- 

       Total MCSCF energy =     -1.128720247398
            Gradient norm =      3.1D-05

    CPU time for solution =      0.5s
   Wall time for solution =      0.6s



                        Analysis of MCSCF natural orbitals
                        ----------------------------------

 Vector    1  Occ=1.946665D+00  E=-5.351844D-01  Symmetry=a
              MO Center=  1.9D-16, -1.7D-14,  6.3D-17, r^2= 9.0D-01
   Bfn.  Coefficient  Atom+Function         Bfn.  Coefficient  Atom+Function  
  ----- ------------  ---------------      ----- ------------  ---------------
     3      0.278753  1 H  s                 38      0.278753  2 H  s          
     2      0.166291  1 H  s                 37      0.166291  2 H  s          

 Vector    2  Occ=5.333451D-02  E=-2.738329D-02  Symmetry=a
              MO Center=  1.1D-15, -8.3D-15,  2.0D-15, r^2= 9.1D-01
   Bfn.  Coefficient  Atom+Function         Bfn.  Coefficient  Atom+Function  
  ----- ------------  ---------------      ----- ------------  ---------------
     3      0.571395  1 H  s                 38     -0.571395  2 H  s          
     2      0.402244  1 H  s                 37     -0.402244  2 H  s          

 Vector    3  Occ=0.000000D+00  E= 2.252173D-01  Symmetry=a
              MO Center= -8.6D-17, -1.5D-12,  6.3D-18, r^2= 4.7D+00
   Bfn.  Coefficient  Atom+Function         Bfn.  Coefficient  Atom+Function  
  ----- ------------  ---------------      ----- ------------  ---------------
     3      1.640540  1 H  s                 38      1.640540  2 H  s          
     4     -1.153123  1 H  s                 39     -1.153123  2 H  s          
     2     -0.222661  1 H  s                 37     -0.222661  2 H  s          
    20     -0.203245  1 H  dxx               25     -0.203245  1 H  dzz        
    55     -0.203245  2 H  dxx               60     -0.203245  2 H  dzz        

 Vector    4  Occ=0.000000D+00  E= 2.631493D-01  Symmetry=a
              MO Center= -4.1D-16,  1.4D-12, -4.3D-16, r^2= 6.2D+00
   Bfn.  Coefficient  Atom+Function         Bfn.  Coefficient  Atom+Function  
  ----- ------------  ---------------      ----- ------------  ---------------
     4      3.157540  1 H  s                 39     -3.157540  2 H  s          
     3     -1.596937  1 H  s                 38      1.596937  2 H  s          
    12      0.365571  1 H  py                47      0.365571  2 H  py         
     2      0.324239  1 H  s                 37     -0.324239  2 H  s          
    23      0.317918  1 H  dyy               58     -0.317918  2 H  dyy        

 Vector    5  Occ=0.000000D+00  E= 4.476555D-01  Symmetry=a
              MO Center= -6.6D-16,  1.8D-14, -1.8D-15, r^2= 1.8D+00
   Bfn.  Coefficient  Atom+Function         Bfn.  Coefficient  Atom+Function  
  ----- ------------  ---------------      ----- ------------  ---------------
    10      1.619407  1 H  pz                45      1.619407  2 H  pz         
    13     -0.819016  1 H  pz                48     -0.819016  2 H  pz         
    33     -0.662335  1 H  fyyz              68     -0.662335  2 H  fyyz       
    28     -0.656178  1 H  fxxz              35     -0.656178  1 H  fzzz       
    63     -0.656178  2 H  fxxz              70     -0.656178  2 H  fzzz       

 Vector    6  Occ=0.000000D+00  E= 4.476555D-01  Symmetry=a
              MO Center=  7.0D-16,  1.3D-14, -2.1D-16, r^2= 1.8D+00
   Bfn.  Coefficient  Atom+Function         Bfn.  Coefficient  Atom+Function  
  ----- ------------  ---------------      ----- ------------  ---------------
     8      1.619407  1 H  px                43      1.619407  2 H  px         
    11     -0.819016  1 H  px                46     -0.819016  2 H  px         
    29     -0.662335  1 H  fxyy              64     -0.662335  2 H  fxyy       
    26     -0.656178  1 H  fxxx              31     -0.656178  1 H  fxzz       
    61     -0.656178  2 H  fxxx              66     -0.656178  2 H  fxzz       

 Vector    7  Occ=0.000000D+00  E= 7.000761D-01  Symmetry=a
              MO Center=  1.9D-16,  2.5D-13, -2.7D-17, r^2= 2.6D+00
   Bfn.  Coefficient  Atom+Function         Bfn.  Coefficient  Atom+Function  
  ----- ------------  ---------------      ----- ------------  ---------------
     9      2.347523  1 H  py                44     -2.347523  2 H  py         
    12     -1.383959  1 H  py                47      1.383959  2 H  py         
     3      1.041879  1 H  s                 38      1.041879  2 H  s          
    27     -0.953474  1 H  fxxy              34     -0.953474  1 H  fyzz       
    62      0.953474  2 H  fxxy              69      0.953474  2 H  fyzz       

 Vector    8  Occ=0.000000D+00  E= 7.266467D-01  Symmetry=a
              MO Center= -4.4D-16, -1.5D-14, -2.0D-15, r^2= 2.4D+00
   Bfn.  Coefficient  Atom+Function         Bfn.  Coefficient  Atom+Function  
  ----- ------------  ---------------      ----- ------------  ---------------
    10      2.351257  1 H  pz                45     -2.351257  2 H  pz         
    13     -1.670217  1 H  pz                48      1.670217  2 H  pz         
    33     -0.947196  1 H  fyyz              68      0.947196  2 H  fyyz       
    28     -0.923653  1 H  fxxz              35     -0.923653  1 H  fzzz       
    63      0.923653  2 H  fxxz              70      0.923653  2 H  fzzz       

 Vector    9  Occ=0.000000D+00  E= 7.266467D-01  Symmetry=a
              MO Center=  1.7D-15, -8.2D-15, -4.0D-16, r^2= 2.4D+00
   Bfn.  Coefficient  Atom+Function         Bfn.  Coefficient  Atom+Function  
  ----- ------------  ---------------      ----- ------------  ---------------
     8      2.351257  1 H  px                43     -2.351257  2 H  px         
    11     -1.670217  1 H  px                46      1.670217  2 H  px         
    29     -0.947196  1 H  fxyy              64      0.947196  2 H  fxyy       
    26     -0.923653  1 H  fxxx              31     -0.923653  1 H  fxzz       
    61      0.923653  2 H  fxxx              66      0.923653  2 H  fxzz       

 Vector   10  Occ=0.000000D+00  E= 1.007870D+00  Symmetry=a
              MO Center= -4.3D-16,  3.2D-13,  1.1D-17, r^2= 3.3D+00
   Bfn.  Coefficient  Atom+Function         Bfn.  Coefficient  Atom+Function  
  ----- ------------  ---------------      ----- ------------  ---------------
     3      6.094754  1 H  s                 38     -6.094754  2 H  s          
    12      5.188693  1 H  py                47      5.188693  2 H  py         
     4      1.512954  1 H  s                 39     -1.512954  2 H  s          
     9     -1.018235  1 H  py                44     -1.018235  2 H  py         
    23      0.995105  1 H  dyy               58     -0.995105  2 H  dyy        

 Vector   11  Occ=0.000000D+00  E= 1.103883D+00  Symmetry=a
              MO Center= -5.3D-16,  8.9D-13,  2.2D-15, r^2= 2.3D+00
   Bfn.  Coefficient  Atom+Function         Bfn.  Coefficient  Atom+Function  
  ----- ------------  ---------------      ----- ------------  ---------------
     3      3.369639  1 H  s                 38      3.369639  2 H  s          
     2     -1.424558  1 H  s                 37     -1.424558  2 H  s          
     9     -0.906602  1 H  py                44      0.906602  2 H  py         
     4     -0.847097  1 H  s                 39     -0.847097  2 H  s          
    20     -0.727995  1 H  dxx               25     -0.727995  1 H  dzz        

 Vector   12  Occ=0.000000D+00  E= 1.214826D+00  Symmetry=a
              MO Center= -5.4D-16, -1.3D-12,  1.2D-15, r^2= 2.7D+00
   Bfn.  Coefficient  Atom+Function         Bfn.  Coefficient  Atom+Function  
  ----- ------------  ---------------      ----- ------------  ---------------
     3      9.020211  1 H  s                 38     -9.020211  2 H  s          
    12      2.576087  1 H  py                47      2.576087  2 H  py         
     2     -1.786119  1 H  s                 37      1.786119  2 H  s          
     4     -1.648263  1 H  s                 39      1.648263  2 H  s          
    20     -0.834962  1 H  dxx               25     -0.834962  1 H  dzz        


 Wrote Lagrangian and 1- and 2-particle density matrices to ./H2.mcpdm


     Multipole analysis of the density
     ---------------------------------

     L   x y z        total        nuclear
     -   - - -        -----        -------
     0   0 0 0     -0.000000      2.000000

     1   1 0 0     -0.000000      0.000000
     1   0 1 0      0.000000      0.000000
     1   0 0 1     -0.000000      0.000000

     2   2 0 0     -1.759195      0.000000
     2   1 1 0     -0.000000      0.000000
     2   1 0 1     -0.000000      0.000000
     2   0 2 0     -1.104560      1.805000
     2   0 1 1     -0.000000      0.000000
     2   0 0 2     -1.759195      0.000000


  Mulliken analysis of the total density
  --------------------------------------

    Atom       Charge   Shell Charges
 -----------   ------   -------------------------------------------------------
    1 H    1     1.00   0.05  0.24  0.49  0.19  0.00  0.00  0.01  0.00  0.00  0.00
    2 H    1     1.00   0.05  0.24  0.49  0.19  0.00  0.00  0.01  0.00  0.00  0.00

    Mulliken analysis of the active space density
    ---------------------------------------------

    Atom       Charge   Shell Charges
 -----------   ------   -------------------------------------------------------
    1 H    1     1.00   0.05  0.24  0.49  0.19  0.00  0.00  0.01  0.00  0.00  0.00
    2 H    1     1.00   0.05  0.24  0.49  0.19  0.00  0.00  0.01  0.00  0.00  0.00

 Parallel integral file used      20 records with       0 large values


 Task  times  cpu:        0.5s     wall:        0.6s


                                NWChem Input Module
                                -------------------


                                 NWChem SCF Module
                                 -----------------


                                        H2



  ao basis        = "ao basis"
  functions       =    70
  atoms           =     2
  closed shells   =     1
  open shells     =     0
  charge          =   0.00
  wavefunction    = RHF 
  input vectors   = ./H2.mos
  output vectors  = ./H2.mos
  use symmetry    = F
  symmetry adapt  = F


 Summary of "ao basis" -> "ao basis" (cartesian)
 ------------------------------------------------------------------------------
       Tag                 Description            Shells   Functions and Types
 ---------------- ------------------------------  ------  ---------------------
 H                          cc-pVQZ                 10       35   4s3p2d1f



 Forming initial guess at       0.7s


 Loading old vectors from job with title :

H2


 Starting SCF solution at       0.7s



 ----------------------------------------------
         Quadratically convergent ROHF

 Convergence threshold     :          1.000E-04
 Maximum no. of iterations :           30
 Final Fock-matrix accuracy:          1.000E-07
 ----------------------------------------------


 Integral file          = ./H2.aoints.0
 Record size in doubles =  65536        No. of integs per rec  =  43688
 Max. records in memory =     99        Max. records in file   = 280323
 No. of bits per label  =      8        No. of bits per value  =     64


 #quartets = 2.216D+04 #integrals = 8.606D+05 #direct =  0.0% #cached =100.0%



       Final RHF  results 
       ------------------ 

         Total SCF energy =     -1.100729440874
      One-electron energy =     -2.210360677133
      Two-electron energy =      0.583315446785
 Nuclear repulsion energy =      0.526315789474

        Time for solution =      0.0s


             Final eigenvalues
             -----------------

              1      
    1   -0.5352
    2   -0.0274
    3    0.2252
    4    0.2631
    5    0.4477
    6    0.4477
    7    0.7001
    8    0.7266
    9    0.7266
   10    1.0079
   11    1.1039

                       ROHF Final Molecular Orbital Analysis
                       -------------------------------------

 Vector    1  Occ=2.000000D+00  E=-5.351844D-01
              MO Center=  1.9D-16, -1.7D-14,  6.3D-17, r^2= 9.0D-01
   Bfn.  Coefficient  Atom+Function         Bfn.  Coefficient  Atom+Function  
  ----- ------------  ---------------      ----- ------------  ---------------
     3      0.278753  1 H  s                 38      0.278753  2 H  s          
     2      0.166291  1 H  s                 37      0.166291  2 H  s          

 Vector    2  Occ=0.000000D+00  E=-2.738329D-02
              MO Center=  1.1D-15, -8.2D-15,  2.0D-15, r^2= 9.1D-01
   Bfn.  Coefficient  Atom+Function         Bfn.  Coefficient  Atom+Function  
  ----- ------------  ---------------      ----- ------------  ---------------
     3      0.571395  1 H  s                 38     -0.571395  2 H  s          
     2      0.402244  1 H  s                 37     -0.402244  2 H  s          

 Vector    3  Occ=0.000000D+00  E= 2.252173D-01
              MO Center= -8.6D-17, -1.5D-12,  6.3D-18, r^2= 4.7D+00
   Bfn.  Coefficient  Atom+Function         Bfn.  Coefficient  Atom+Function  
  ----- ------------  ---------------      ----- ------------  ---------------
     3      1.640540  1 H  s                 38      1.640540  2 H  s          
     4     -1.153123  1 H  s                 39     -1.153123  2 H  s          
     2     -0.222661  1 H  s                 37     -0.222661  2 H  s          
    20     -0.203245  1 H  dxx               25     -0.203245  1 H  dzz        
    55     -0.203245  2 H  dxx               60     -0.203245  2 H  dzz        

 Vector    4  Occ=0.000000D+00  E= 2.631493D-01
              MO Center= -4.1D-16,  1.4D-12, -4.3D-16, r^2= 6.2D+00
   Bfn.  Coefficient  Atom+Function         Bfn.  Coefficient  Atom+Function  
  ----- ------------  ---------------      ----- ------------  ---------------
     4      3.157540  1 H  s                 39     -3.157540  2 H  s          
     3     -1.596937  1 H  s                 38      1.596937  2 H  s          
    12      0.365571  1 H  py                47      0.365571  2 H  py         
     2      0.324239  1 H  s                 37     -0.324239  2 H  s          
    23      0.317918  1 H  dyy               58     -0.317918  2 H  dyy        

 Vector    5  Occ=0.000000D+00  E= 4.476555D-01
              MO Center= -6.6D-16,  1.8D-14, -1.8D-15, r^2= 1.8D+00
   Bfn.  Coefficient  Atom+Function         Bfn.  Coefficient  Atom+Function  
  ----- ------------  ---------------      ----- ------------  ---------------
    10      1.619407  1 H  pz                45      1.619407  2 H  pz         
    13     -0.819016  1 H  pz                48     -0.819016  2 H  pz         
    33     -0.662335  1 H  fyyz              68     -0.662335  2 H  fyyz       
    28     -0.656178  1 H  fxxz              35     -0.656178  1 H  fzzz       
    63     -0.656178  2 H  fxxz              70     -0.656178  2 H  fzzz       

 Vector    6  Occ=0.000000D+00  E= 4.476555D-01
              MO Center=  7.0D-16,  1.3D-14, -2.1D-16, r^2= 1.8D+00
   Bfn.  Coefficient  Atom+Function         Bfn.  Coefficient  Atom+Function  
  ----- ------------  ---------------      ----- ------------  ---------------
     8      1.619407  1 H  px                43      1.619407  2 H  px         
    11     -0.819016  1 H  px                46     -0.819016  2 H  px         
    29     -0.662335  1 H  fxyy              64     -0.662335  2 H  fxyy       
    26     -0.656178  1 H  fxxx              31     -0.656178  1 H  fxzz       
    61     -0.656178  2 H  fxxx              66     -0.656178  2 H  fxzz       

 Vector    7  Occ=0.000000D+00  E= 7.000761D-01
              MO Center=  1.9D-16,  2.5D-13, -2.7D-17, r^2= 2.6D+00
   Bfn.  Coefficient  Atom+Function         Bfn.  Coefficient  Atom+Function  
  ----- ------------  ---------------      ----- ------------  ---------------
     9      2.347523  1 H  py                44     -2.347523  2 H  py         
    12     -1.383959  1 H  py                47      1.383959  2 H  py         
     3      1.041879  1 H  s                 38      1.041879  2 H  s          
    27     -0.953474  1 H  fxxy              34     -0.953474  1 H  fyzz       
    62      0.953474  2 H  fxxy              69      0.953474  2 H  fyzz       

 Vector    8  Occ=0.000000D+00  E= 7.266467D-01
              MO Center= -4.4D-16, -1.5D-14, -2.0D-15, r^2= 2.4D+00
   Bfn.  Coefficient  Atom+Function         Bfn.  Coefficient  Atom+Function  
  ----- ------------  ---------------      ----- ------------  ---------------
    10      2.351257  1 H  pz                45     -2.351257  2 H  pz         
    13     -1.670217  1 H  pz                48      1.670217  2 H  pz         
    33     -0.947196  1 H  fyyz              68      0.947196  2 H  fyyz       
    28     -0.923653  1 H  fxxz              35     -0.923653  1 H  fzzz       
    63      0.923653  2 H  fxxz              70      0.923653  2 H  fzzz       

 Vector    9  Occ=0.000000D+00  E= 7.266467D-01
              MO Center=  1.7D-15, -8.1D-15, -4.0D-16, r^2= 2.4D+00
   Bfn.  Coefficient  Atom+Function         Bfn.  Coefficient  Atom+Function  
  ----- ------------  ---------------      ----- ------------  ---------------
     8      2.351257  1 H  px                43     -2.351257  2 H  px         
    11     -1.670217  1 H  px                46      1.670217  2 H  px         
    29     -0.947196  1 H  fxyy              64      0.947196  2 H  fxyy       
    26     -0.923653  1 H  fxxx              31     -0.923653  1 H  fxzz       
    61      0.923653  2 H  fxxx              66      0.923653  2 H  fxzz       

 Vector   10  Occ=0.000000D+00  E= 1.007870D+00
              MO Center= -4.3D-16,  3.3D-13,  1.1D-17, r^2= 3.3D+00
   Bfn.  Coefficient  Atom+Function         Bfn.  Coefficient  Atom+Function  
  ----- ------------  ---------------      ----- ------------  ---------------
     3      6.094754  1 H  s                 38     -6.094754  2 H  s          
    12      5.188693  1 H  py                47      5.188693  2 H  py         
     4      1.512954  1 H  s                 39     -1.512954  2 H  s          
     9     -1.018235  1 H  py                44     -1.018235  2 H  py         
    23      0.995105  1 H  dyy               58     -0.995105  2 H  dyy        

 Vector   11  Occ=0.000000D+00  E= 1.103883D+00
              MO Center= -5.3D-16,  8.9D-13,  2.2D-15, r^2= 2.3D+00
   Bfn.  Coefficient  Atom+Function         Bfn.  Coefficient  Atom+Function  
  ----- ------------  ---------------      ----- ------------  ---------------
     3      3.369639  1 H  s                 38      3.369639  2 H  s          
     2     -1.424558  1 H  s                 37     -1.424558  2 H  s          
     9     -0.906602  1 H  py                44      0.906602  2 H  py         
     4     -0.847097  1 H  s                 39     -0.847097  2 H  s          
    20     -0.727995  1 H  dxx               25     -0.727995  1 H  dzz        


 center of mass
 --------------
 x =   0.00000000 y =   0.00000000 z =   0.00000000

 moments of inertia (a.u.)
 ------------------
           1.819124125000           0.000000000000           0.000000000000
           0.000000000000           0.000000000000           0.000000000000
           0.000000000000           0.000000000000           1.819124125000

  Mulliken analysis of the total density
  --------------------------------------

    Atom       Charge   Shell Charges
 -----------   ------   -------------------------------------------------------
    1 H    1     1.00   0.05  0.24  0.49  0.20  0.00  0.00  0.01  0.00  0.00  0.00
    2 H    1     1.00   0.05  0.24  0.49  0.20  0.00  0.00  0.01  0.00  0.00  0.00

       Multipole analysis of the density wrt the origin
       ------------------------------------------------

     L   x y z        total         open         nuclear
     -   - - -        -----         ----         -------
     0   0 0 0     -0.000000      0.000000      2.000000

     1   1 0 0     -0.000000      0.000000      0.000000
     1   0 1 0      0.000000      0.000000      0.000000
     1   0 0 1     -0.000000      0.000000      0.000000

     2   2 0 0     -1.777746      0.000000      0.000000
     2   1 1 0     -0.000000      0.000000      0.000000
     2   1 0 1      0.000000      0.000000      0.000000
     2   0 2 0     -1.065469      0.000000      1.805000
     2   0 1 1     -0.000000      0.000000      0.000000
     2   0 0 2     -1.777746      0.000000      0.000000


 Parallel integral file used      20 records with       0 large values

                   NWChem Extensible Many-Electron Theory Module
                   ---------------------------------------------

              ======================================================
                   This portion of the program was automatically
                  generated by a Tensor Contraction Engine (TCE).
                  The development of this portion of the program
                 and TCE was supported by US Department of Energy,
                Office of Science, Office of Basic Energy Science.
                      TCE is a product of Battelle and PNNL.
              Please cite: S.Hirata, J.Phys.Chem.A 107, 9887 (2003).
              ======================================================

                                        H2


            General Information
            -------------------
      Number of processors :     1
         Wavefunction type : Restricted Hartree-Fock
          No. of electrons :     2
           Alpha electrons :     1
            Beta electrons :     1
           No. of orbitals :   140
            Alpha orbitals :    70
             Beta orbitals :    70
        Alpha frozen cores :     0
         Beta frozen cores :     0
     Alpha frozen virtuals :     0
      Beta frozen virtuals :     0
         Spin multiplicity : singlet 
    Number of AO functions :    70
       Number of AO shells :    20
        Use of symmetry is : off
      Symmetry adaption is : off
         Schwarz screening : 0.10D-09

          Correlation Information
          -----------------------
          Calculation type : Coupled-cluster singles & doubles                           
   Perturbative correction : none                                                        
            Max iterations :      300
        Residual threshold : 0.10D-06
     T(0) DIIS level shift : 0.20D+00
     L(0) DIIS level shift : 0.00D+00
     T(1) DIIS level shift : 0.00D+00
     L(1) DIIS level shift : 0.00D+00
     T(R) DIIS level shift : 0.00D+00
     T(I) DIIS level shift : 0.00D+00
   CC-T/L Amplitude update :  5-th order DIIS
                I/O scheme : Global Array Library
        L-threshold :  0.10D-06
        EOM-threshold :  0.10D-06
 no EOMCCSD initial starts read in
 TCE RESTART OPTIONS
 READ_INT:   F
 WRITE_INT:  F
 READ_TA:    F
 WRITE_TA:   F
 READ_XA:    F
 WRITE_XA:   F
 READ_IN3:   F
 WRITE_IN3:  F
 SLICE:      F
 D4D5:       F
 quantumc:   F
 qrotation:  F
 pwtce:      F
 qducc:      T
 nacto:                         0
 nrotv:                         0
 nrot:                          0

            Memory Information
            ------------------
          Available GA space size is    1610607836 doubles
          Available MA space size is    1610610644 doubles

 Maximum block size        32 doubles

 tile_dim =     23

 Block   Spin    Irrep     Size     Offset   Alpha
 -------------------------------------------------
   1    alpha     a      1 doubles       0       1
   2    beta      a      1 doubles       1       1
   3    alpha     a     23 doubles       2       3
   4    alpha     a     23 doubles      25       4
   5    alpha     a     23 doubles      48       5
   6    beta      a     23 doubles      71       3
   7    beta      a     23 doubles      94       4
   8    beta      a     23 doubles     117       5

 Global array virtual files algorithm will be used

 Parallel file system coherency ......... OK

 Integral file          = ./H2.aoints.0
 Record size in doubles =  65536        No. of integs per rec  =  43688
 Max. records in memory =     99        Max. records in file   = 280323
 No. of bits per label  =      8        No. of bits per value  =     64


 #quartets = 2.216D+04 #integrals = 8.606D+05 #direct =  0.0% #cached =100.0%


 Fock matrix recomputed
 1-e file size   =             4900
 1-e file name   = ./H2.f1
 Cpu & wall time / sec            0.1            0.1
 4-electron integrals stored in orbital form

 v2    file size   =          6102085
 4-index algorithm nr.  13 is used
 imaxsize =       30
 imaxsize ichop =        0
 Cpu & wall time / sec            2.0            2.0
 T1-number-of-tasks                    3

 t1 file size   =               69
 t1 file name   = ./H2.t1
 t1 file handle =       -998
 T2-number-of-boxes                   15

 t2 file size   =             7935
 t2 file name   = ./H2.t2
 t2 file handle =       -996
CCSD iterations
 ---------------------------------------------------------
 Iter          Residuum       Correlation     Cpu    Wall 
 ---------------------------------------------------------
NEW TASK SCHEDULING
CCSD_T1_NTS --- OK
CCSD_T2_NTS --- OK
    1   0.1257627811209  -0.0496218914992     0.1     0.1
    2   0.0263892653363  -0.0430747329536     0.1     0.1
    3   0.0097851828985  -0.0450581970614     0.1     0.1
    4   0.0039718546248  -0.0452121111795     0.1     0.1
    5   0.0019956547032  -0.0454063676253     0.1     0.1
 MICROCYCLE DIIS UPDATE:                    5                    5
    6   0.0002765894953  -0.0455484513315     0.1     0.1
    7   0.0001092719067  -0.0455470735759     0.1     0.1
    8   0.0000565377036  -0.0455475320562     0.1     0.1
    9   0.0000302591090  -0.0455480384875     0.1     0.1
   10   0.0000164463589  -0.0455484512437     0.1     0.1
 MICROCYCLE DIIS UPDATE:                   10                    5
   11   0.0000011149888  -0.0455491174727     0.1     0.1
   12   0.0000003564161  -0.0455491042648     0.1     0.1
   13   0.0000001599239  -0.0455491200863     0.1     0.1
   14   0.0000000753059  -0.0455491240205     0.1     0.1
 -----------------------------------------------------------------
 Iterations converged
 CCSD correlation energy / hartree =        -0.045549124020472
 CCSD total energy / hartree       =        -1.146278564894735

 Singles contributions

 Doubles contributions
     2a   (alpha)     2a   (beta ) ---     1a   (alpha)     1a   (beta )       -0.1503055456
     3a   (alpha)     3a   (beta ) ---     1a   (alpha)     1a   (beta )       -0.0283871946
     5a   (alpha)     5a   (beta ) ---     1a   (alpha)     1a   (beta )       -0.0371322063
     6a   (alpha)     6a   (beta ) ---     1a   (alpha)     1a   (beta )       -0.0371322063
 Ground state specification:
 exp(T)|Ref>~(1+T)|Ref>
 ------- a(p)+/a(q) strings ----------

 singles norm

 doubles norm

 Reference string
  0.98889198329993488      :(1a)+ (1b)+ |0>

 Singles strings

 Doubles strings
 -0.14863594910088640      :(2a)+ (2b)+ (1b)  (1a)  (1a)+ (1b)+ |0>
 -------------------------------------
 enrep_tce =   0.52631578947368407     
  EHF(total)         =        -1.10072944
  Shift (HFtot-HFA)  =         0.00000000
 ALL OCCUPIED ORBITALS ARE ACTIVE IN DUCC --> NO SHIFT
 Number of active orbitals                    2
 Number of active alpha electrons                    1
 Number of active beta electrons                    1
  nos                     2
  nvs                   138
 noas                     1
 nobs                     1
 nvas                    69
 nvbs                    69
 nactv                     1
 DUCC MODEL =                     3
 NONHF =  T
 F-T1 correlation    =   -1.6866518684205330E-004
 V-T1-T1 correlation =    1.2252152801885003E-006
 V-T2 correlation    =   -4.5381684048910173E-002
 Total correlation   =   -4.5549124020472037E-002
 F-T1(Ext) correlation         =   -1.6866518684205330E-004
 V-T1(Ext)-T1(Ext) correlation =    1.2252152801885003E-006
 V-T2(Ext) correlation         =   -1.9964237557866252E-002
 Total Ext correlation         =   -2.0131677529428117E-002
1-BODY TIME =    0.017 SECONDS.
  HHHH TIME =    0.013 SECONDS.
  PPPP TIME =    0.000 SECONDS.
  HHHP TIME =    0.006 SECONDS.
  PPPH TIME =    0.053 SECONDS.
  HPHP TIME =    0.007 SECONDS.
  HHPP TIME =    0.005 SECONDS.
 ONE-BODY UNITARY CHECK
 TWO-BODY UNITARY CHECK
 TWO-BODY ANTISYMMETRY CHECK
 TRANSFORMED ~FOCK~ MATRIX
    1    1        -0.5396885658
    2    2         0.3678492722
 begin_one_electron_integrals
    1    1        -1.1054447275
    2    2        -0.6277641007
 end_one_electron_integrals
 begin_two_electron_integrals
    1    1    1    1        0.5657561617
    1    2    1    2        0.1561953702
    1    1    2    2        0.5818496178
    1    2    2    1        0.1680858628
    2    1    1    2        0.1680858628
    2    2    1    1        0.5818496178
    2    1    2    1        0.1561953702
    2    2    2    2        0.6222091837
 end_two_electron_integrals

 Parallel integral file used      20 records with       0 large values


 Task  times  cpu:       31.2s     wall:       33.2s


                                NWChem Input Module
                                -------------------


 Summary of allocated global arrays
-----------------------------------
  No active global arrays


MA_summarize_allocated_blocks: starting scan ...
MA_summarize_allocated_blocks: scan completed: 0 heap blocks, 0 stack blocks
MA usage statistics:

	allocation statistics:
					      heap	     stack
					      ----	     -----
	current number of blocks	         0	         0
	maximum number of blocks	        18	        42
	current total bytes		         0	         0
	maximum total bytes		  51983016	9994007160
	maximum total K-bytes		     51984	   9994008
	maximum total M-bytes		        52	      9995


                                     CITATION
                                     --------
                Please cite the following reference when publishing
                           results obtained with NWChem:

          E. Apra, E. J. Bylaska, W. A. de Jong, N. Govind, K. Kowalski,
       T. P. Straatsma, M. Valiev, H. J. J. van Dam, Y. Alexeev, J. Anchell,
       V. Anisimov, F. W. Aquino, R. Atta-Fynn, J. Autschbach, N. P. Bauman,
     J. C. Becca, D. E. Bernholdt, K. Bhaskaran-Nair, S. Bogatko, P. Borowski,
         J. Boschen, J. Brabec, A. Bruner, E. Cauet, Y. Chen, G. N. Chuev,
      C. J. Cramer, J. Daily, M. J. O. Deegan, T. H. Dunning Jr., M. Dupuis,
   K. G. Dyall, G. I. Fann, S. A. Fischer, A. Fonari, H. Fruchtl, L. Gagliardi,
      J. Garza, N. Gawande, S. Ghosh, K. Glaesemann, A. W. Gotz, J. Hammond,
       V. Helms, E. D. Hermes, K. Hirao, S. Hirata, M. Jacquelin, L. Jensen,
   B. G. Johnson, H. Jonsson, R. A. Kendall, M. Klemm, R. Kobayashi, V. Konkov,
      S. Krishnamoorthy, M. Krishnan, Z. Lin, R. D. Lins, R. J. Littlefield,
      A. J. Logsdail, K. Lopata, W. Ma, A. V. Marenich, J. Martin del Campo,
   D. Mejia-Rodriguez, J. E. Moore, J. M. Mullin, T. Nakajima, D. R. Nascimento,
    J. A. Nichols, P. J. Nichols, J. Nieplocha, A. Otero-de-la-Roza, B. Palmer,
    A. Panyala, T. Pirojsirikul, B. Peng, R. Peverati, J. Pittner, L. Pollack,
   R. M. Richard, P. Sadayappan, G. C. Schatz, W. A. Shelton, D. W. Silverstein,
   D. M. A. Smith, T. A. Soares, D. Song, M. Swart, H. L. Taylor, G. S. Thomas,
            V. Tipparaju, D. G. Truhlar, K. Tsemekhman, T. Van Voorhis,
      A. Vazquez-Mayagoitia, P. Verma, O. Villa, A. Vishnu, K. D. Vogiatzis,
        D. Wang, J. H. Weare, M. J. Williamson, T. L. Windus, K. Wolinski,
        A. T. Wong, Q. Wu, C. Yang, Q. Yu, M. Zacharias, Z. Zhang, Y. Zhao,
                                and R. J. Harrison
                        "NWChem: Past, present, and future
                         J. Chem. Phys. 152, 184102 (2020)
                               doi:10.1063/5.0004997

                                      AUTHORS
                                      -------
  E. Apra, E. J. Bylaska, N. Govind, K. Kowalski, M. Valiev, D. Mejia-Rodriguez,
       A. Kunitsa, N. P. Bauman, A. Panyala, W. A. de Jong, T. P. Straatsma,
        H. J. J. van Dam, D. Wang, T. L. Windus, J. Hammond, J. Autschbach,
    K. Bhaskaran-Nair, J. Brabec, K. Lopata, S. A. Fischer, S. Krishnamoorthy,
     M. Jacquelin, W. Ma, M. Klemm, O. Villa, Y. Chen, V. Anisimov, F. Aquino,
    S. Hirata, M. T. Hackler, Eric Hermes, L. Jensen, J. E. Moore, J. C. Becca,
      V. Konjkov, T. Risthaus, M. Malagoli, A. Marenich, A. Otero-de-la-Roza,
        J. Mullin, P. Nichols, R. Peverati, J. Pittner, Y. Zhao, P.-D. Fan,
        A. Fonari, M. J. Williamson, R. J. Harrison, J. R. Rehr, M. Dupuis,
     D. Silverstein, D. M. A. Smith, J. Nieplocha, V. Tipparaju, M. Krishnan,
     B. E. Van Kuiken, A. Vazquez-Mayagoitia, M. Swart, Q. Wu, T. Van Voorhis,
     A. A. Auer, M. Nooijen, L. D. Crosby, E. Brown, G. Cisneros, G. I. Fann,
   H. Fruchtl, J. Garza, K. Hirao, R. A. Kendall, J. A. Nichols, K. Tsemekhman,
    K. Wolinski, J. Anchell, D. E. Bernholdt, P. Borowski, T. Clark, D. Clerc,
   H. Dachsel, M. J. O. Deegan, K. Dyall, D. Elwood, E. Glendening, M. Gutowski,
   A. C. Hess, J. Jaffe, B. G. Johnson, J. Ju, R. Kobayashi, R. Kutteh, Z. Lin,
   R. Littlefield, X. Long, B. Meng, T. Nakajima, S. Niu, L. Pollack, M. Rosing,
   K. Glaesemann, G. Sandrone, M. Stave, H. Taylor, G. Thomas, J. H. van Lenthe,
                               A. T. Wong, Z. Zhang.

 Total times  cpu:       31.7s     wall:       33.9s
