 argument  1 = input.nw
  NWChem w/ OpenMP: maximum threads =    1



============================== echo of input deck ==============================
 echo
 start H2
 title "H2"

 memory total 24 gb

 geometry units bohr
 symmetry c1
        H  0.00000000  0.00000000  0.00000000
        H  0.00000000  1.95  0.00000000
 end

 basis
   * library cc-pVQZ
 end

 mcscf
   active  2
   actelec 2
   multiplicity 1
   maxiter 40
   vectors input H2.mos
   vectors output H2.mos
 end

 task mcscf

 scf
   vectors input H2.mos
   vectors output H2.mos
   noscf
 end

 tce
   2eorb
   2emet 13
   ccsd
   maxiter 300
   lshift 0.2
 end

# set tce:print_integrals T
# set tce:qorb 4
# set tce:qela 1
# set tce:qelb 1

 set tce:qducc T
 set tce:nactv 1
 set tce:nonhf T
 set tce:ducc_model 3

 set tce:printtol 0.02

 task tce
================================================================================


                                         
                                         


             Northwest Computational Chemistry Package (NWChem) 7.0.1
             --------------------------------------------------------


                    Environmental Molecular Sciences Laboratory
                       Pacific Northwest National Laboratory
                                Richland, WA 99352

                              Copyright (c) 1994-2020
                       Pacific Northwest National Laboratory
                            Battelle Memorial Institute

             NWChem is an open-source computational chemistry package
                        distributed under the terms of the
                      Educational Community License (ECL) 2.0
             A copy of the license is included with this distribution
                              in the LICENSE.TXT file

                                  ACKNOWLEDGMENT
                                  --------------

            This software and its documentation were developed at the
            EMSL at Pacific Northwest National Laboratory, a multiprogram
            national laboratory, operated for the U.S. Department of Energy
            by Battelle under Contract Number DE-AC05-76RL01830. Support
            for this work was provided by the Department of Energy Office
            of Biological and Environmental Research, Office of Basic
            Energy Sciences, and the Office of Advanced Scientific Computing.


           Job information
           ---------------

    hostname        = WE46210
    program         = /home/baum612/code/nwchem/bin/LINUX64/nwchem
    date            = Wed Nov  8 15:18:05 2023

    compiled        = Mon_Nov_06_10:06:57_2023
    source          = /home/baum612/code/nwchem
    nwchem branch   = 7.0.0
    nwchem revision = nwchem_on_git-4191-g39d87d64de
    ga revision     = 5.8.1
    use scalapack   = F
    input           = input.nw
    prefix          = H2.
    data base       = ./H2.db
    status          = startup
    nproc           =        1
    time left       =     -1s



           Memory information
           ------------------

    heap     =  805306366 doubles =   6144.0 Mbytes
    stack    =  805306363 doubles =   6144.0 Mbytes
    global   = 1610612736 doubles =  12288.0 Mbytes (distinct from heap & stack)
    total    = 3221225465 doubles =  24576.0 Mbytes
    verify   = yes
    hardfail = no 


           Directory information
           ---------------------

  0 permanent = .
  0 scratch   = .




                                NWChem Input Module
                                -------------------


                                        H2
                                        --
 Turning off AUTOSYM since
 SYMMETRY directive was detected!


          ------
          auto-z
          ------
     1 autoz failed with cvr_scaling = 1.2 changing to 1.3
  no constraints, skipping    0.0000000000000000     
  no constraints, skipping    0.0000000000000000     


                             Geometry "geometry" -> ""
                             -------------------------

 Output coordinates in a.u. (scale by  1.000000000 to convert to a.u.)

  No.       Tag          Charge          X              Y              Z
 ---- ---------------- ---------- -------------- -------------- --------------
    1 H                    1.0000     0.00000000    -0.97500000     0.00000000
    2 H                    1.0000     0.00000000     0.97500000     0.00000000

      Atomic Mass 
      ----------- 

      H                  1.007825


 Effective nuclear repulsion energy (a.u.)       0.5128205128

            Nuclear Dipole moment (a.u.) 
            ----------------------------
        X                 Y               Z
 ---------------- ---------------- ----------------
     0.0000000000     0.0000000000     0.0000000000



                                Z-matrix (autoz)
                                -------- 

 Units are Angstrom for bonds and degrees for angles

      Type          Name      I     J     K     L     M      Value
      ----------- --------  ----- ----- ----- ----- ----- ----------
    1 Stretch                  1     2                       1.03190


            XYZ format geometry
            -------------------
     2
 geometry
 H                     0.00000000    -0.51594782     0.00000000
 H                     0.00000000     0.51594782     0.00000000



 Summary of "ao basis" -> "" (cartesian)
 ------------------------------------------------------------------------------
       Tag                 Description            Shells   Functions and Types
 ---------------- ------------------------------  ------  ---------------------
 *                          cc-pVQZ                   on all atoms 


                      Basis "ao basis" -> "ao basis" (cartesian)
                      -----
  H (Hydrogen)
  ------------
            Exponent  Coefficients 
       -------------- ---------------------------------------------------------
  1 S  8.26400000E+01  0.002006
  1 S  1.24100000E+01  0.015343
  1 S  2.82400000E+00  0.075579

  2 S  7.97700000E-01  1.000000

  3 S  2.58100000E-01  1.000000

  4 S  8.98900000E-02  1.000000

  5 P  2.29200000E+00  1.000000

  6 P  8.38000000E-01  1.000000

  7 P  2.92000000E-01  1.000000

  8 D  2.06200000E+00  1.000000

  9 D  6.62000000E-01  1.000000

 10 F  1.39700000E+00  1.000000



 Summary of "ao basis" -> "ao basis" (cartesian)
 ------------------------------------------------------------------------------
       Tag                 Description            Shells   Functions and Types
 ---------------- ------------------------------  ------  ---------------------
 H                          cc-pVQZ                 10       35   4s3p2d1f



                            NWChem Direct MCSCF Module
                            --------------------------


                                        H2


     -----------------------------------
       Basis functions:             70
       Inactive shells:              0
       Active shells:                2
       Active electrons:             2
       Symmetry:                    a       
       Multiplicity:                 1
       Orbital rotations:          136
     -----------------------------------

     -----------------------------------
       E2 extrapolation:             F
       Conjugacy:                    T
       Micro CI relax:               T
       Canonical orbitals:           T
       Maximum iterations:          40
       Converge threshold:    1.00E-04
       Conjugacy resets:            20
       Initial levelshift:        0.10
     -----------------------------------

 Loading old vectors from job with title :

H2


   input molecular orbitals = ./H2.mos
  output molecular orbtials = ./H2.mos

       No. of determinants:             4


  Starting Orbital Energies
    -0.535184    -0.027383     0.225217     0.263149     0.447655     0.447655
     0.700076     0.726647     0.726647     1.007870     1.103883     1.214826
     1.713035     1.713035     1.912202     1.921711     1.921711     2.111035
     2.111035     2.289382     2.289382     2.435959     2.435959     2.464808
     2.956769     3.142061     3.142061     3.210393     3.318492     4.307698
     4.380832     4.380832     4.616998     4.676046     4.676046     5.713729
     5.713729     5.832008     5.832008     6.091291     6.397295     6.397295
     6.503420     6.503420     7.479529     7.479529     7.683925     8.029763
     8.029763     8.101115     8.101115     8.329440     8.329440     8.437181
     8.437181     8.869433     8.883258     9.502991     9.576586     9.576586
     9.707139     9.767606     9.767606    10.215798    10.266023    10.266023
    10.868648    13.212084    22.553251    26.293987

  Orbital Symmetry Irreps
a    a    a    a    a    a    a    a    a    a    a    a    a    a    a   
a    a    a    a    a    a    a    a    a    a    a    a    a    a    a   
a    a    a    a    a    a    a    a    a    a    a    a    a    a    a   
a    a    a    a    a    a    a    a    a    a    a    a    a    a    a   
a    a    a    a    a    a    a    a    a    a   

 Integral file          = ./H2.aoints.0
 Record size in doubles =  65536        No. of integs per rec  =  43688
 Max. records in memory =     99        Max. records in file   = 280272
 No. of bits per label  =      8        No. of bits per value  =     64


 #quartets = 2.216D+04 #integrals = 8.606D+05 #direct =  0.0% #cached =100.0%




          %%%%% MacroIteration   1 %%%%%


          Number of sigma calls:        2
                       o<<<<< (aa):             0.00
                       o<<<<< (bb):             0.00
                       o<<<<< (ab):             0.00
                       o<<<<< (total)           0.00
                       o<<<<< (aa) ff           0.00
                       o<<<<< (aa) gop          0.00
                       o<<<<< (aa) dot          0.00
                       o<<<<< (ab) str          0.00
                       o<<<<< (ab) gath         0.00
                       o<<<<< (ab) dotab        0.00
                       o<<<<< (ab) scat         0.00
                       o<<<<< (ab) sync         0.00
                       o<<<<< Density           0.00
                       o<<<<< Density one       0.00
                       o<<<<< Density two       0.00
                       o<<<<< Density ab        0.00
                       o<<<<< Spin adapt        0.00
                       o<<<<< Symm adapt        0.00

                       o<<<<< (ab) max sync:      0.00

           >>>| Valence CI:             -1.637606620187
           >>>| MCSCF energy:           -1.124786107367
           >>>| Gradient norm:          0.270483754D-01

                              ----- Line search ------

        step       energy         lsg     num-lsg   num-lsh   lsrat    time
      ------- ---------------- --------- --------- --------- ------- --------
       0.0000      -1.12478611 -9.26D-05  0.00D+00  0.00D+00 0.0D+00      0.3

          Number of sigma calls:        2
                       o<<<<< (aa):             0.00
                       o<<<<< (bb):             0.00
                       o<<<<< (ab):             0.00
                       o<<<<< (total)           0.00
                       o<<<<< (aa) ff           0.00
                       o<<<<< (aa) gop          0.00
                       o<<<<< (aa) dot          0.00
                       o<<<<< (ab) str          0.00
                       o<<<<< (ab) gath         0.00
                       o<<<<< (ab) dotab        0.00
                       o<<<<< (ab) scat         0.00
                       o<<<<< (ab) sync         0.00
                       o<<<<< Density           0.00
                       o<<<<< Density one       0.00
                       o<<<<< Density two       0.00
                       o<<<<< Density ab        0.00
                       o<<<<< Spin adapt        0.00
                       o<<<<< Symm adapt        0.00

                       o<<<<< (ab) max sync:      0.00
       1.0000      -1.12483305 -1.26D-06 -1.27D-06  9.13D-05 1.4D-02      0.3
     --- Orbitals canonicalized ---



          %%%%% MacroIteration   2 %%%%%


          Number of sigma calls:        2
                       o<<<<< (aa):             0.00
                       o<<<<< (bb):             0.00
                       o<<<<< (ab):             0.00
                       o<<<<< (total)           0.00
                       o<<<<< (aa) ff           0.00
                       o<<<<< (aa) gop          0.00
                       o<<<<< (aa) dot          0.00
                       o<<<<< (ab) str          0.00
                       o<<<<< (ab) gath         0.00
                       o<<<<< (ab) dotab        0.00
                       o<<<<< (ab) scat         0.00
                       o<<<<< (ab) sync         0.00
                       o<<<<< Density           0.00
                       o<<<<< Density one       0.00
                       o<<<<< Density two       0.00
                       o<<<<< Density ab        0.00
                       o<<<<< Spin adapt        0.00
                       o<<<<< Symm adapt        0.00

                       o<<<<< (ab) max sync:      0.00

           >>>| Valence CI:             -1.637653563770
           >>>| MCSCF energy:           -1.124833050949
           >>>| Gradient norm:          0.328251678D-03
     --- Conjugacy reset ---

                              ----- Line search ------

        step       energy         lsg     num-lsg   num-lsh   lsrat    time
      ------- ---------------- --------- --------- --------- ------- --------
       0.0000      -1.12483305 -1.00D-07  0.00D+00  0.00D+00 0.0D+00      0.4

          Number of sigma calls:        2
                       o<<<<< (aa):             0.00
                       o<<<<< (bb):             0.00
                       o<<<<< (ab):             0.00
                       o<<<<< (total)           0.00
                       o<<<<< (aa) ff           0.00
                       o<<<<< (aa) gop          0.00
                       o<<<<< (aa) dot          0.00
                       o<<<<< (ab) str          0.00
                       o<<<<< (ab) gath         0.00
                       o<<<<< (ab) dotab        0.00
                       o<<<<< (ab) scat         0.00
                       o<<<<< (ab) sync         0.00
                       o<<<<< Density           0.00
                       o<<<<< Density one       0.00
                       o<<<<< Density two       0.00
                       o<<<<< Density ab        0.00
                       o<<<<< Spin adapt        0.00
                       o<<<<< Symm adapt        0.00

                       o<<<<< (ab) max sync:      0.00
       1.0000      -1.12483310 -3.00D-09 -3.00D-09  9.70D-08 3.0D-02      0.5



          %%%%% MacroIteration   3 %%%%%


          Number of sigma calls:        1
                       o<<<<< (aa):             0.00
                       o<<<<< (bb):             0.00
                       o<<<<< (ab):             0.00
                       o<<<<< (total)           0.00
                       o<<<<< (aa) ff           0.00
                       o<<<<< (aa) gop          0.00
                       o<<<<< (aa) dot          0.00
                       o<<<<< (ab) str          0.00
                       o<<<<< (ab) gath         0.00
                       o<<<<< (ab) dotab        0.00
                       o<<<<< (ab) scat         0.00
                       o<<<<< (ab) sync         0.00
                       o<<<<< Density           0.00
                       o<<<<< Density one       0.00
                       o<<<<< Density two       0.00
                       o<<<<< Density ab        0.00
                       o<<<<< Spin adapt        0.00
                       o<<<<< Symm adapt        0.00

                       o<<<<< (ab) max sync:      0.00

           >>>| Valence CI:             -1.637653615269
           >>>| MCSCF energy:           -1.124833102448
           >>>| Gradient norm:          0.283057703D-04




     ==============================
            MCSCF Converged
     ==============================



          Canonical Eigenvalues

              1      
    1   -0.5293
    2   -0.0288
    3    0.2266
    4    0.2638
    5    0.4466
    6    0.4466
    7    0.6947
    8    0.7225
    9    0.7225
   10    1.0045
   11    1.1091
   12    1.2153
   13    1.7146
   14    1.7146
   15    1.8959
   16    1.9218
   17    1.9218
   18    2.1008
   19    2.1008
   20    2.2678
   21    2.2678
   22    2.4229
   23    2.4229
   24    2.4563
   25    2.9542
   26    3.1261
   27    3.1261
   28    3.2028
   29    3.2902
   30    4.3114
   31    4.3901
   32    4.3901
   33    4.5653
   34    4.6599
   35    4.6599
   36    5.6870
   37    5.6870
   38    5.8497
   39    5.8497
   40    5.9266
   41    6.3690
   42    6.3690
   43    6.4029
   44    6.4029
   45    7.4032
   46    7.4032
   47    7.5767
   48    8.1061
   49    8.1061
   50    8.1105
   51    8.1105
   52    8.3146
   53    8.3146
   54    8.4400
   55    8.4400
   56    8.7937
   57    8.9222
   58    9.4710
   59    9.4710
   60    9.5150
   61    9.7279
   62    9.7553
   63    9.7553
   64   10.1097
   65   10.1368
   66   10.1368
   67   10.7895
   68   12.9877
   69   22.5197
   70   26.2168


          Converged CI vector

   Index           Coefficient          Config. Occupation
         1          0.98551692          1  1
         4         -0.16957715          2  2

          Number of sigma calls:        1
                       o<<<<< (aa):             0.00
                       o<<<<< (bb):             0.00
                       o<<<<< (ab):             0.00
                       o<<<<< (total)           0.00
                       o<<<<< (aa) ff           0.00
                       o<<<<< (aa) gop          0.00
                       o<<<<< (aa) dot          0.00
                       o<<<<< (ab) str          0.00
                       o<<<<< (ab) gath         0.00
                       o<<<<< (ab) dotab        0.00
                       o<<<<< (ab) scat         0.00
                       o<<<<< (ab) sync         0.00
                       o<<<<< Density           0.00
                       o<<<<< Density one       0.00
                       o<<<<< Density two       0.00
                       o<<<<< Density ab        0.00
                       o<<<<< Spin adapt        0.00
                       o<<<<< Symm adapt        0.00

                       o<<<<< (ab) max sync:      0.00



          Natural orbital occupation numbers

              1      
    1    1.9425
    2    0.0575


          Number of sigma calls:        2
                       o<<<<< (aa):             0.00
                       o<<<<< (bb):             0.00
                       o<<<<< (ab):             0.00
                       o<<<<< (total)           0.00
                       o<<<<< (aa) ff           0.00
                       o<<<<< (aa) gop          0.00
                       o<<<<< (aa) dot          0.00
                       o<<<<< (ab) str          0.00
                       o<<<<< (ab) gath         0.00
                       o<<<<< (ab) dotab        0.00
                       o<<<<< (ab) scat         0.00
                       o<<<<< (ab) sync         0.00
                       o<<<<< Density           0.00
                       o<<<<< Density one       0.00
                       o<<<<< Density two       0.00
                       o<<<<< Density ab        0.00
                       o<<<<< Spin adapt        0.00
                       o<<<<< Symm adapt        0.00

                       o<<<<< (ab) max sync:      0.00


       Final MCSCF results 
       ------------------- 

       Total MCSCF energy =     -1.124833102448
            Gradient norm =      2.8D-05

    CPU time for solution =      0.5s
   Wall time for solution =      0.6s



                        Analysis of MCSCF natural orbitals
                        ----------------------------------

 Vector    1  Occ=1.942487D+00  E=-5.293451D-01  Symmetry=a
              MO Center=  1.9D-16, -8.5D-15,  7.0D-17, r^2= 9.2D-01
   Bfn.  Coefficient  Atom+Function         Bfn.  Coefficient  Atom+Function  
  ----- ------------  ---------------      ----- ------------  ---------------
     3      0.279666  1 H  s                 38      0.279666  2 H  s          
     2      0.165227  1 H  s                 37      0.165227  2 H  s          

 Vector    2  Occ=5.751282D-02  E=-2.881601D-02  Symmetry=a
              MO Center=  1.2D-15, -2.8D-15,  2.1D-15, r^2= 9.3D-01
   Bfn.  Coefficient  Atom+Function         Bfn.  Coefficient  Atom+Function  
  ----- ------------  ---------------      ----- ------------  ---------------
     3      0.562469  1 H  s                 38     -0.562469  2 H  s          
     2      0.388656  1 H  s                 37     -0.388656  2 H  s          

 Vector    3  Occ=0.000000D+00  E= 2.266187D-01  Symmetry=a
              MO Center= -9.7D-17, -1.7D-12, -4.0D-17, r^2= 4.7D+00
   Bfn.  Coefficient  Atom+Function         Bfn.  Coefficient  Atom+Function  
  ----- ------------  ---------------      ----- ------------  ---------------
     3      1.652555  1 H  s                 38      1.652555  2 H  s          
     4     -1.157360  1 H  s                 39     -1.157360  2 H  s          
     2     -0.224384  1 H  s                 37     -0.224384  2 H  s          
    20     -0.204111  1 H  dxx               25     -0.204111  1 H  dzz        
    55     -0.204111  2 H  dxx               60     -0.204111  2 H  dzz        

 Vector    4  Occ=0.000000D+00  E= 2.637844D-01  Symmetry=a
              MO Center= -1.3D-15,  1.6D-12,  5.4D-16, r^2= 6.3D+00
   Bfn.  Coefficient  Atom+Function         Bfn.  Coefficient  Atom+Function  
  ----- ------------  ---------------      ----- ------------  ---------------
     4      3.096797  1 H  s                 39     -3.096797  2 H  s          
     3     -1.621154  1 H  s                 38      1.621154  2 H  s          
    12      0.348039  1 H  py                47      0.348039  2 H  py         
     2      0.299071  1 H  s                 23      0.299552  1 H  dyy        
    37     -0.299071  2 H  s                 58     -0.299552  2 H  dyy        

 Vector    5  Occ=0.000000D+00  E= 4.465639D-01  Symmetry=a
              MO Center= -1.3D-16,  1.6D-14, -1.2D-15, r^2= 1.8D+00
   Bfn.  Coefficient  Atom+Function         Bfn.  Coefficient  Atom+Function  
  ----- ------------  ---------------      ----- ------------  ---------------
    10      1.701708  1 H  pz                45      1.701708  2 H  pz         
    13     -0.863675  1 H  pz                48     -0.863675  2 H  pz         
    33     -0.696794  1 H  fyyz              68     -0.696794  2 H  fyyz       
    28     -0.688652  1 H  fxxz              35     -0.688652  1 H  fzzz       
    63     -0.688652  2 H  fxxz              70     -0.688652  2 H  fzzz       

 Vector    6  Occ=0.000000D+00  E= 4.465639D-01  Symmetry=a
              MO Center=  8.6D-16, -1.1D-14,  1.2D-16, r^2= 1.8D+00
   Bfn.  Coefficient  Atom+Function         Bfn.  Coefficient  Atom+Function  
  ----- ------------  ---------------      ----- ------------  ---------------
     8      1.701708  1 H  px                43      1.701708  2 H  px         
    11     -0.863675  1 H  px                46     -0.863675  2 H  px         
    29     -0.696794  1 H  fxyy              64     -0.696794  2 H  fxyy       
    26     -0.688652  1 H  fxxx              31     -0.688652  1 H  fxzz       
    61     -0.688652  2 H  fxxx              66     -0.688652  2 H  fxzz       

 Vector    7  Occ=0.000000D+00  E= 6.946709D-01  Symmetry=a
              MO Center= -1.7D-16,  3.8D-13,  1.8D-16, r^2= 2.6D+00
   Bfn.  Coefficient  Atom+Function         Bfn.  Coefficient  Atom+Function  
  ----- ------------  ---------------      ----- ------------  ---------------
     9      2.339651  1 H  py                44     -2.339651  2 H  py         
    12     -1.358231  1 H  py                47      1.358231  2 H  py         
     3      1.043233  1 H  s                 38      1.043233  2 H  s          
    27     -0.952902  1 H  fxxy              34     -0.952902  1 H  fyzz       
    62      0.952902  2 H  fxxy              69      0.952902  2 H  fyzz       

 Vector    8  Occ=0.000000D+00  E= 7.224812D-01  Symmetry=a
              MO Center= -1.7D-16, -1.3D-14, -3.8D-15, r^2= 2.4D+00
   Bfn.  Coefficient  Atom+Function         Bfn.  Coefficient  Atom+Function  
  ----- ------------  ---------------      ----- ------------  ---------------
    10      2.405061  1 H  pz                45     -2.405061  2 H  pz         
    13     -1.680901  1 H  pz                48      1.680901  2 H  pz         
    33     -0.963419  1 H  fyyz              68      0.963419  2 H  fyyz       
    28     -0.946000  1 H  fxxz              35     -0.946000  1 H  fzzz       
    63      0.946000  2 H  fxxz              70      0.946000  2 H  fzzz       

 Vector    9  Occ=0.000000D+00  E= 7.224812D-01  Symmetry=a
              MO Center=  5.0D-16,  9.0D-15, -9.0D-17, r^2= 2.4D+00
   Bfn.  Coefficient  Atom+Function         Bfn.  Coefficient  Atom+Function  
  ----- ------------  ---------------      ----- ------------  ---------------
     8      2.405061  1 H  px                43     -2.405061  2 H  px         
    11     -1.680901  1 H  px                46      1.680901  2 H  px         
    29     -0.963419  1 H  fxyy              64      0.963419  2 H  fxyy       
    26     -0.946000  1 H  fxxx              31     -0.946000  1 H  fxzz       
    61      0.946000  2 H  fxxx              66      0.946000  2 H  fxzz       

 Vector   10  Occ=0.000000D+00  E= 1.004478D+00  Symmetry=a
              MO Center=  1.4D-16,  2.8D-13, -9.9D-19, r^2= 3.3D+00
   Bfn.  Coefficient  Atom+Function         Bfn.  Coefficient  Atom+Function  
  ----- ------------  ---------------      ----- ------------  ---------------
     3      5.475405  1 H  s                 38     -5.475405  2 H  s          
    12      4.925316  1 H  py                47      4.925316  2 H  py         
     4      1.498942  1 H  s                 39     -1.498942  2 H  s          
     9     -1.247250  1 H  py                44     -1.247250  2 H  py         
    23      0.900872  1 H  dyy               58     -0.900872  2 H  dyy        

 Vector   11  Occ=0.000000D+00  E= 1.109065D+00  Symmetry=a
              MO Center= -7.2D-16,  8.9D-13,  1.1D-15, r^2= 2.3D+00
   Bfn.  Coefficient  Atom+Function         Bfn.  Coefficient  Atom+Function  
  ----- ------------  ---------------      ----- ------------  ---------------
     3      3.383988  1 H  s                 38      3.383988  2 H  s          
     2     -1.429246  1 H  s                 37     -1.429246  2 H  s          
     9     -0.931134  1 H  py                44      0.931134  2 H  py         
     4     -0.851397  1 H  s                 39     -0.851397  2 H  s          
    20     -0.727900  1 H  dxx               25     -0.727900  1 H  dzz        

 Vector   12  Occ=0.000000D+00  E= 1.215306D+00  Symmetry=a
              MO Center=  5.2D-16, -1.3D-12,  2.7D-15, r^2= 2.7D+00
   Bfn.  Coefficient  Atom+Function         Bfn.  Coefficient  Atom+Function  
  ----- ------------  ---------------      ----- ------------  ---------------
     3      8.656916  1 H  s                 38     -8.656916  2 H  s          
    12      2.473195  1 H  py                47      2.473195  2 H  py         
     2     -1.774191  1 H  s                 37      1.774191  2 H  s          
     4     -1.603661  1 H  s                 39      1.603661  2 H  s          
    20     -0.835507  1 H  dxx               25     -0.835507  1 H  dzz        


 Wrote Lagrangian and 1- and 2-particle density matrices to ./H2.mcpdm


     Multipole analysis of the density
     ---------------------------------

     L   x y z        total        nuclear
     -   - - -        -----        -------
     0   0 0 0     -0.000000      2.000000

     1   1 0 0     -0.000000      0.000000
     1   0 1 0      0.000000      0.000000
     1   0 0 1     -0.000000      0.000000

     2   2 0 0     -1.781270      0.000000
     2   1 1 0     -0.000000      0.000000
     2   1 0 1     -0.000000      0.000000
     2   0 2 0     -1.105333      1.901250
     2   0 1 1     -0.000000      0.000000
     2   0 0 2     -1.781270      0.000000


  Mulliken analysis of the total density
  --------------------------------------

    Atom       Charge   Shell Charges
 -----------   ------   -------------------------------------------------------
    1 H    1     1.00   0.05  0.24  0.49  0.20  0.00  0.00  0.01  0.00  0.00  0.00
    2 H    1     1.00   0.05  0.24  0.49  0.20  0.00  0.00  0.01  0.00  0.00  0.00

    Mulliken analysis of the active space density
    ---------------------------------------------

    Atom       Charge   Shell Charges
 -----------   ------   -------------------------------------------------------
    1 H    1     1.00   0.05  0.24  0.49  0.20  0.00  0.00  0.01  0.00  0.00  0.00
    2 H    1     1.00   0.05  0.24  0.49  0.20  0.00  0.00  0.01  0.00  0.00  0.00

 Parallel integral file used      20 records with       0 large values


 Task  times  cpu:        0.5s     wall:        0.6s


                                NWChem Input Module
                                -------------------


                                 NWChem SCF Module
                                 -----------------


                                        H2



  ao basis        = "ao basis"
  functions       =    70
  atoms           =     2
  closed shells   =     1
  open shells     =     0
  charge          =   0.00
  wavefunction    = RHF 
  input vectors   = ./H2.mos
  output vectors  = ./H2.mos
  use symmetry    = F
  symmetry adapt  = F


 Summary of "ao basis" -> "ao basis" (cartesian)
 ------------------------------------------------------------------------------
       Tag                 Description            Shells   Functions and Types
 ---------------- ------------------------------  ------  ---------------------
 H                          cc-pVQZ                 10       35   4s3p2d1f



 Forming initial guess at       0.6s


 Loading old vectors from job with title :

H2


 Starting SCF solution at       0.6s



 ----------------------------------------------
         Quadratically convergent ROHF

 Convergence threshold     :          1.000E-04
 Maximum no. of iterations :           30
 Final Fock-matrix accuracy:          1.000E-07
 ----------------------------------------------


 Integral file          = ./H2.aoints.0
 Record size in doubles =  65536        No. of integs per rec  =  43688
 Max. records in memory =     99        Max. records in file   = 280323
 No. of bits per label  =      8        No. of bits per value  =     64


 #quartets = 2.216D+04 #integrals = 8.606D+05 #direct =  0.0% #cached =100.0%



       Final RHF  results 
       ------------------ 

         Total SCF energy =     -1.095727798817
      One-electron energy =     -2.185255389537
      Two-electron energy =      0.576707077899
 Nuclear repulsion energy =      0.512820512821

        Time for solution =      0.0s


             Final eigenvalues
             -----------------

              1      
    1   -0.5293
    2   -0.0288
    3    0.2266
    4    0.2638
    5    0.4466
    6    0.4466
    7    0.6947
    8    0.7225
    9    0.7225
   10    1.0045
   11    1.1091

                       ROHF Final Molecular Orbital Analysis
                       -------------------------------------

 Vector    1  Occ=2.000000D+00  E=-5.293451D-01
              MO Center=  1.9D-16, -8.5D-15,  7.0D-17, r^2= 9.2D-01
   Bfn.  Coefficient  Atom+Function         Bfn.  Coefficient  Atom+Function  
  ----- ------------  ---------------      ----- ------------  ---------------
     3      0.279666  1 H  s                 38      0.279666  2 H  s          
     2      0.165227  1 H  s                 37      0.165227  2 H  s          

 Vector    2  Occ=0.000000D+00  E=-2.881601D-02
              MO Center=  1.2D-15, -2.8D-15,  2.1D-15, r^2= 9.3D-01
   Bfn.  Coefficient  Atom+Function         Bfn.  Coefficient  Atom+Function  
  ----- ------------  ---------------      ----- ------------  ---------------
     3      0.562469  1 H  s                 38     -0.562469  2 H  s          
     2      0.388656  1 H  s                 37     -0.388656  2 H  s          

 Vector    3  Occ=0.000000D+00  E= 2.266187D-01
              MO Center= -9.7D-17, -1.7D-12, -4.0D-17, r^2= 4.7D+00
   Bfn.  Coefficient  Atom+Function         Bfn.  Coefficient  Atom+Function  
  ----- ------------  ---------------      ----- ------------  ---------------
     3      1.652555  1 H  s                 38      1.652555  2 H  s          
     4     -1.157360  1 H  s                 39     -1.157360  2 H  s          
     2     -0.224384  1 H  s                 37     -0.224384  2 H  s          
    20     -0.204111  1 H  dxx               25     -0.204111  1 H  dzz        
    55     -0.204111  2 H  dxx               60     -0.204111  2 H  dzz        

 Vector    4  Occ=0.000000D+00  E= 2.637844D-01
              MO Center= -1.3D-15,  1.6D-12,  5.4D-16, r^2= 6.3D+00
   Bfn.  Coefficient  Atom+Function         Bfn.  Coefficient  Atom+Function  
  ----- ------------  ---------------      ----- ------------  ---------------
     4      3.096797  1 H  s                 39     -3.096797  2 H  s          
     3     -1.621154  1 H  s                 38      1.621154  2 H  s          
    12      0.348039  1 H  py                47      0.348039  2 H  py         
     2      0.299071  1 H  s                 23      0.299552  1 H  dyy        
    37     -0.299071  2 H  s                 58     -0.299552  2 H  dyy        

 Vector    5  Occ=0.000000D+00  E= 4.465639D-01
              MO Center= -1.3D-16,  1.5D-14, -1.2D-15, r^2= 1.8D+00
   Bfn.  Coefficient  Atom+Function         Bfn.  Coefficient  Atom+Function  
  ----- ------------  ---------------      ----- ------------  ---------------
    10      1.701708  1 H  pz                45      1.701708  2 H  pz         
    13     -0.863675  1 H  pz                48     -0.863675  2 H  pz         
    33     -0.696794  1 H  fyyz              68     -0.696794  2 H  fyyz       
    28     -0.688652  1 H  fxxz              35     -0.688652  1 H  fzzz       
    63     -0.688652  2 H  fxxz              70     -0.688652  2 H  fzzz       

 Vector    6  Occ=0.000000D+00  E= 4.465639D-01
              MO Center=  8.6D-16, -1.1D-14,  1.2D-16, r^2= 1.8D+00
   Bfn.  Coefficient  Atom+Function         Bfn.  Coefficient  Atom+Function  
  ----- ------------  ---------------      ----- ------------  ---------------
     8      1.701708  1 H  px                43      1.701708  2 H  px         
    11     -0.863675  1 H  px                46     -0.863675  2 H  px         
    29     -0.696794  1 H  fxyy              64     -0.696794  2 H  fxyy       
    26     -0.688652  1 H  fxxx              31     -0.688652  1 H  fxzz       
    61     -0.688652  2 H  fxxx              66     -0.688652  2 H  fxzz       

 Vector    7  Occ=0.000000D+00  E= 6.946709D-01
              MO Center= -1.7D-16,  3.8D-13,  1.8D-16, r^2= 2.6D+00
   Bfn.  Coefficient  Atom+Function         Bfn.  Coefficient  Atom+Function  
  ----- ------------  ---------------      ----- ------------  ---------------
     9      2.339651  1 H  py                44     -2.339651  2 H  py         
    12     -1.358231  1 H  py                47      1.358231  2 H  py         
     3      1.043233  1 H  s                 38      1.043233  2 H  s          
    27     -0.952902  1 H  fxxy              34     -0.952902  1 H  fyzz       
    62      0.952902  2 H  fxxy              69      0.952902  2 H  fyzz       

 Vector    8  Occ=0.000000D+00  E= 7.224812D-01
              MO Center= -1.7D-16, -1.3D-14, -3.8D-15, r^2= 2.4D+00
   Bfn.  Coefficient  Atom+Function         Bfn.  Coefficient  Atom+Function  
  ----- ------------  ---------------      ----- ------------  ---------------
    10      2.405061  1 H  pz                45     -2.405061  2 H  pz         
    13     -1.680901  1 H  pz                48      1.680901  2 H  pz         
    33     -0.963419  1 H  fyyz              68      0.963419  2 H  fyyz       
    28     -0.946000  1 H  fxxz              35     -0.946000  1 H  fzzz       
    63      0.946000  2 H  fxxz              70      0.946000  2 H  fzzz       

 Vector    9  Occ=0.000000D+00  E= 7.224812D-01
              MO Center=  5.0D-16,  1.1D-14, -9.0D-17, r^2= 2.4D+00
   Bfn.  Coefficient  Atom+Function         Bfn.  Coefficient  Atom+Function  
  ----- ------------  ---------------      ----- ------------  ---------------
     8      2.405061  1 H  px                43     -2.405061  2 H  px         
    11     -1.680901  1 H  px                46      1.680901  2 H  px         
    29     -0.963419  1 H  fxyy              64      0.963419  2 H  fxyy       
    26     -0.946000  1 H  fxxx              31     -0.946000  1 H  fxzz       
    61      0.946000  2 H  fxxx              66      0.946000  2 H  fxzz       

 Vector   10  Occ=0.000000D+00  E= 1.004478D+00
              MO Center=  1.4D-16,  2.8D-13, -9.9D-19, r^2= 3.3D+00
   Bfn.  Coefficient  Atom+Function         Bfn.  Coefficient  Atom+Function  
  ----- ------------  ---------------      ----- ------------  ---------------
     3      5.475405  1 H  s                 38     -5.475405  2 H  s          
    12      4.925316  1 H  py                47      4.925316  2 H  py         
     4      1.498942  1 H  s                 39     -1.498942  2 H  s          
     9     -1.247250  1 H  py                44     -1.247250  2 H  py         
    23      0.900872  1 H  dyy               58     -0.900872  2 H  dyy        

 Vector   11  Occ=0.000000D+00  E= 1.109065D+00
              MO Center= -7.2D-16,  8.9D-13,  1.1D-15, r^2= 2.3D+00
   Bfn.  Coefficient  Atom+Function         Bfn.  Coefficient  Atom+Function  
  ----- ------------  ---------------      ----- ------------  ---------------
     3      3.383988  1 H  s                 38      3.383988  2 H  s          
     2     -1.429246  1 H  s                 37     -1.429246  2 H  s          
     9     -0.931134  1 H  py                44      0.931134  2 H  py         
     4     -0.851397  1 H  s                 39     -0.851397  2 H  s          
    20     -0.727900  1 H  dxx               25     -0.727900  1 H  dzz        


 center of mass
 --------------
 x =   0.00000000 y =   0.00000000 z =   0.00000000

 moments of inertia (a.u.)
 ------------------
           1.916127281250           0.000000000000           0.000000000000
           0.000000000000           0.000000000000           0.000000000000
           0.000000000000           0.000000000000           1.916127281250

  Mulliken analysis of the total density
  --------------------------------------

    Atom       Charge   Shell Charges
 -----------   ------   -------------------------------------------------------
    1 H    1     1.00   0.05  0.23  0.49  0.20  0.00  0.00  0.01  0.00  0.00  0.00
    2 H    1     1.00   0.05  0.23  0.49  0.20  0.00  0.00  0.01  0.00  0.00  0.00

       Multipole analysis of the density wrt the origin
       ------------------------------------------------

     L   x y z        total         open         nuclear
     -   - - -        -----         ----         -------
     0   0 0 0     -0.000000      0.000000      2.000000

     1   1 0 0     -0.000000      0.000000      0.000000
     1   0 1 0      0.000000      0.000000      0.000000
     1   0 0 1     -0.000000      0.000000      0.000000

     2   2 0 0     -1.801430      0.000000      0.000000
     2   1 1 0     -0.000000      0.000000      0.000000
     2   1 0 1      0.000000      0.000000      0.000000
     2   0 2 0     -1.062347      0.000000      1.901250
     2   0 1 1     -0.000000      0.000000      0.000000
     2   0 0 2     -1.801430      0.000000      0.000000


 Parallel integral file used      20 records with       0 large values

                   NWChem Extensible Many-Electron Theory Module
                   ---------------------------------------------

              ======================================================
                   This portion of the program was automatically
                  generated by a Tensor Contraction Engine (TCE).
                  The development of this portion of the program
                 and TCE was supported by US Department of Energy,
                Office of Science, Office of Basic Energy Science.
                      TCE is a product of Battelle and PNNL.
              Please cite: S.Hirata, J.Phys.Chem.A 107, 9887 (2003).
              ======================================================

                                        H2


            General Information
            -------------------
      Number of processors :     1
         Wavefunction type : Restricted Hartree-Fock
          No. of electrons :     2
           Alpha electrons :     1
            Beta electrons :     1
           No. of orbitals :   140
            Alpha orbitals :    70
             Beta orbitals :    70
        Alpha frozen cores :     0
         Beta frozen cores :     0
     Alpha frozen virtuals :     0
      Beta frozen virtuals :     0
         Spin multiplicity : singlet 
    Number of AO functions :    70
       Number of AO shells :    20
        Use of symmetry is : off
      Symmetry adaption is : off
         Schwarz screening : 0.10D-09

          Correlation Information
          -----------------------
          Calculation type : Coupled-cluster singles & doubles                           
   Perturbative correction : none                                                        
            Max iterations :      300
        Residual threshold : 0.10D-06
     T(0) DIIS level shift : 0.20D+00
     L(0) DIIS level shift : 0.00D+00
     T(1) DIIS level shift : 0.00D+00
     L(1) DIIS level shift : 0.00D+00
     T(R) DIIS level shift : 0.00D+00
     T(I) DIIS level shift : 0.00D+00
   CC-T/L Amplitude update :  5-th order DIIS
                I/O scheme : Global Array Library
        L-threshold :  0.10D-06
        EOM-threshold :  0.10D-06
 no EOMCCSD initial starts read in
 TCE RESTART OPTIONS
 READ_INT:   F
 WRITE_INT:  F
 READ_TA:    F
 WRITE_TA:   F
 READ_XA:    F
 WRITE_XA:   F
 READ_IN3:   F
 WRITE_IN3:  F
 SLICE:      F
 D4D5:       F
 quantumc:   F
 qrotation:  F
 pwtce:      F
 qducc:      T
 nacto:                         0
 nrotv:                         0
 nrot:                          0

            Memory Information
            ------------------
          Available GA space size is    1610607836 doubles
          Available MA space size is    1610610644 doubles

 Maximum block size        32 doubles

 tile_dim =     23

 Block   Spin    Irrep     Size     Offset   Alpha
 -------------------------------------------------
   1    alpha     a      1 doubles       0       1
   2    beta      a      1 doubles       1       1
   3    alpha     a     23 doubles       2       3
   4    alpha     a     23 doubles      25       4
   5    alpha     a     23 doubles      48       5
   6    beta      a     23 doubles      71       3
   7    beta      a     23 doubles      94       4
   8    beta      a     23 doubles     117       5

 Global array virtual files algorithm will be used

 Parallel file system coherency ......... OK

 Integral file          = ./H2.aoints.0
 Record size in doubles =  65536        No. of integs per rec  =  43688
 Max. records in memory =     99        Max. records in file   = 280323
 No. of bits per label  =      8        No. of bits per value  =     64


 #quartets = 2.216D+04 #integrals = 8.606D+05 #direct =  0.0% #cached =100.0%


 Fock matrix recomputed
 1-e file size   =             4900
 1-e file name   = ./H2.f1
 Cpu & wall time / sec            0.1            0.1
 4-electron integrals stored in orbital form

 v2    file size   =          6102085
 4-index algorithm nr.  13 is used
 imaxsize =       30
 imaxsize ichop =        0
 Cpu & wall time / sec            2.0            2.0
 T1-number-of-tasks                    3

 t1 file size   =               69
 t1 file name   = ./H2.t1
 t1 file handle =       -998
 T2-number-of-boxes                   15

 t2 file size   =             7935
 t2 file name   = ./H2.t2
 t2 file handle =       -996
CCSD iterations
 ---------------------------------------------------------
 Iter          Residuum       Correlation     Cpu    Wall 
 ---------------------------------------------------------
NEW TASK SCHEDULING
CCSD_T1_NTS --- OK
CCSD_T2_NTS --- OK
    1   0.1235189570023  -0.0498989877066     0.1     0.1
    2   0.0255499031653  -0.0438053239764     0.1     0.1
    3   0.0097940604251  -0.0456805570202     0.1     0.1
    4   0.0041424920064  -0.0458796834035     0.1     0.1
    5   0.0021024677264  -0.0460780041198     0.1     0.1
 MICROCYCLE DIIS UPDATE:                    5                    5
    6   0.0002912068062  -0.0462357638150     0.1     0.1
    7   0.0001160512840  -0.0462339557730     0.1     0.1
    8   0.0000602443258  -0.0462345446198     0.1     0.1
    9   0.0000324229901  -0.0462351284019     0.1     0.1
   10   0.0000177543278  -0.0462356051488     0.1     0.1
 MICROCYCLE DIIS UPDATE:                   10                    5
   11   0.0000013106565  -0.0462363825512     0.1     0.1
   12   0.0000004201355  -0.0462363689680     0.1     0.1
   13   0.0000001885981  -0.0462363871387     0.1     0.1
   14   0.0000000883431  -0.0462363922888     0.1     0.1
 -----------------------------------------------------------------
 Iterations converged
 CCSD correlation energy / hartree =        -0.046236392288787
 CCSD total energy / hartree       =        -1.141964191106251

 Singles contributions

 Doubles contributions
     2a   (alpha)     2a   (beta ) ---     1a   (alpha)     1a   (beta )       -0.1562567516
     3a   (alpha)     3a   (beta ) ---     1a   (alpha)     1a   (beta )       -0.0284762840
     5a   (alpha)     5a   (beta ) ---     1a   (alpha)     1a   (beta )       -0.0373277277
     6a   (alpha)     6a   (beta ) ---     1a   (alpha)     1a   (beta )       -0.0373277277
 Ground state specification:
 exp(T)|Ref>~(1+T)|Ref>
 ------- a(p)+/a(q) strings ----------

 singles norm

 doubles norm

 Reference string
  0.98801101628238241      :(1a)+ (1b)+ |0>

 Singles strings

 Doubles strings
 -0.15438339193272585      :(2a)+ (2b)+ (1b)  (1a)  (1a)+ (1b)+ |0>
 -------------------------------------
 enrep_tce =   0.51282051282051266     
  EHF(total)         =        -1.09572780
  Shift (HFtot-HFA)  =         0.00000000
 ALL OCCUPIED ORBITALS ARE ACTIVE IN DUCC --> NO SHIFT
 Number of active orbitals                    2
 Number of active alpha electrons                    1
 Number of active beta electrons                    1
  nos                     2
  nvs                   138
 noas                     1
 nobs                     1
 nvas                    69
 nvbs                    69
 nactv                     1
 DUCC MODEL =                     3
 NONHF =  T
 F-T1 correlation    =   -1.7749301984418007E-004
 V-T1-T1 correlation =    1.2710832223115638E-006
 V-T2 correlation    =   -4.6060170352166058E-002
 Total correlation   =   -4.6236392288787925E-002
 F-T1(Ext) correlation         =   -1.7749301984418007E-004
 V-T1(Ext)-T1(Ext) correlation =    1.2710832223115638E-006
 V-T2(Ext) correlation         =   -1.9629530290986762E-002
 Total Ext correlation         =   -1.9805752227608629E-002
1-BODY TIME =    0.016 SECONDS.
  HHHH TIME =    0.013 SECONDS.
  PPPP TIME =    0.000 SECONDS.
  HHHP TIME =    0.006 SECONDS.
  PPPH TIME =    0.051 SECONDS.
  HPHP TIME =    0.007 SECONDS.
  HHPP TIME =    0.005 SECONDS.
 ONE-BODY UNITARY CHECK
 TWO-BODY UNITARY CHECK
 TWO-BODY ANTISYMMETRY CHECK
 TRANSFORMED ~FOCK~ MATRIX
    1    1        -0.5335605535
    2    2         0.3483058419
 begin_one_electron_integrals
    1    1        -1.0928999213
    2    2        -0.6352124562
 end_one_electron_integrals
 begin_two_electron_integrals
    1    1    1    1        0.5593393678
    1    2    1    2        0.1562793927
    1    1    2    2        0.5758176297
    1    2    2    1        0.1681169613
    2    1    1    2        0.1681169613
    2    2    1    1        0.5758176297
    2    1    2    1        0.1562793927
    2    2    2    2        0.6158599279
 end_two_electron_integrals

 Parallel integral file used      20 records with       0 large values


 Task  times  cpu:       31.2s     wall:       33.2s


                                NWChem Input Module
                                -------------------


 Summary of allocated global arrays
-----------------------------------
  No active global arrays


MA_summarize_allocated_blocks: starting scan ...
MA_summarize_allocated_blocks: scan completed: 0 heap blocks, 0 stack blocks
MA usage statistics:

	allocation statistics:
					      heap	     stack
					      ----	     -----
	current number of blocks	         0	         0
	maximum number of blocks	        18	        42
	current total bytes		         0	         0
	maximum total bytes		  51983016	9994007160
	maximum total K-bytes		     51984	   9994008
	maximum total M-bytes		        52	      9995


                                     CITATION
                                     --------
                Please cite the following reference when publishing
                           results obtained with NWChem:

          E. Apra, E. J. Bylaska, W. A. de Jong, N. Govind, K. Kowalski,
       T. P. Straatsma, M. Valiev, H. J. J. van Dam, Y. Alexeev, J. Anchell,
       V. Anisimov, F. W. Aquino, R. Atta-Fynn, J. Autschbach, N. P. Bauman,
     J. C. Becca, D. E. Bernholdt, K. Bhaskaran-Nair, S. Bogatko, P. Borowski,
         J. Boschen, J. Brabec, A. Bruner, E. Cauet, Y. Chen, G. N. Chuev,
      C. J. Cramer, J. Daily, M. J. O. Deegan, T. H. Dunning Jr., M. Dupuis,
   K. G. Dyall, G. I. Fann, S. A. Fischer, A. Fonari, H. Fruchtl, L. Gagliardi,
      J. Garza, N. Gawande, S. Ghosh, K. Glaesemann, A. W. Gotz, J. Hammond,
       V. Helms, E. D. Hermes, K. Hirao, S. Hirata, M. Jacquelin, L. Jensen,
   B. G. Johnson, H. Jonsson, R. A. Kendall, M. Klemm, R. Kobayashi, V. Konkov,
      S. Krishnamoorthy, M. Krishnan, Z. Lin, R. D. Lins, R. J. Littlefield,
      A. J. Logsdail, K. Lopata, W. Ma, A. V. Marenich, J. Martin del Campo,
   D. Mejia-Rodriguez, J. E. Moore, J. M. Mullin, T. Nakajima, D. R. Nascimento,
    J. A. Nichols, P. J. Nichols, J. Nieplocha, A. Otero-de-la-Roza, B. Palmer,
    A. Panyala, T. Pirojsirikul, B. Peng, R. Peverati, J. Pittner, L. Pollack,
   R. M. Richard, P. Sadayappan, G. C. Schatz, W. A. Shelton, D. W. Silverstein,
   D. M. A. Smith, T. A. Soares, D. Song, M. Swart, H. L. Taylor, G. S. Thomas,
            V. Tipparaju, D. G. Truhlar, K. Tsemekhman, T. Van Voorhis,
      A. Vazquez-Mayagoitia, P. Verma, O. Villa, A. Vishnu, K. D. Vogiatzis,
        D. Wang, J. H. Weare, M. J. Williamson, T. L. Windus, K. Wolinski,
        A. T. Wong, Q. Wu, C. Yang, Q. Yu, M. Zacharias, Z. Zhang, Y. Zhao,
                                and R. J. Harrison
                        "NWChem: Past, present, and future
                         J. Chem. Phys. 152, 184102 (2020)
                               doi:10.1063/5.0004997

                                      AUTHORS
                                      -------
  E. Apra, E. J. Bylaska, N. Govind, K. Kowalski, M. Valiev, D. Mejia-Rodriguez,
       A. Kunitsa, N. P. Bauman, A. Panyala, W. A. de Jong, T. P. Straatsma,
        H. J. J. van Dam, D. Wang, T. L. Windus, J. Hammond, J. Autschbach,
    K. Bhaskaran-Nair, J. Brabec, K. Lopata, S. A. Fischer, S. Krishnamoorthy,
     M. Jacquelin, W. Ma, M. Klemm, O. Villa, Y. Chen, V. Anisimov, F. Aquino,
    S. Hirata, M. T. Hackler, Eric Hermes, L. Jensen, J. E. Moore, J. C. Becca,
      V. Konjkov, T. Risthaus, M. Malagoli, A. Marenich, A. Otero-de-la-Roza,
        J. Mullin, P. Nichols, R. Peverati, J. Pittner, Y. Zhao, P.-D. Fan,
        A. Fonari, M. J. Williamson, R. J. Harrison, J. R. Rehr, M. Dupuis,
     D. Silverstein, D. M. A. Smith, J. Nieplocha, V. Tipparaju, M. Krishnan,
     B. E. Van Kuiken, A. Vazquez-Mayagoitia, M. Swart, Q. Wu, T. Van Voorhis,
     A. A. Auer, M. Nooijen, L. D. Crosby, E. Brown, G. Cisneros, G. I. Fann,
   H. Fruchtl, J. Garza, K. Hirao, R. A. Kendall, J. A. Nichols, K. Tsemekhman,
    K. Wolinski, J. Anchell, D. E. Bernholdt, P. Borowski, T. Clark, D. Clerc,
   H. Dachsel, M. J. O. Deegan, K. Dyall, D. Elwood, E. Glendening, M. Gutowski,
   A. C. Hess, J. Jaffe, B. G. Johnson, J. Ju, R. Kobayashi, R. Kutteh, Z. Lin,
   R. Littlefield, X. Long, B. Meng, T. Nakajima, S. Niu, L. Pollack, M. Rosing,
   K. Glaesemann, G. Sandrone, M. Stave, H. Taylor, G. Thomas, J. H. van Lenthe,
                               A. T. Wong, Z. Zhang.

 Total times  cpu:       31.8s     wall:       33.8s
