 argument  1 = input.nw
  NWChem w/ OpenMP: maximum threads =    1



============================== echo of input deck ==============================
 echo
 start H2
 title "H2"

 memory total 24 gb

 geometry units bohr
 symmetry c1
        H  0.00000000  0.00000000  0.00000000
        H  0.00000000  2.35  0.00000000
 end

 basis
   * library cc-pVQZ
 end

 mcscf
   active  2
   actelec 2
   multiplicity 1
   maxiter 40
   vectors input H2.mos
   vectors output H2.mos
 end

 task mcscf

 scf
   vectors input H2.mos
   vectors output H2.mos
   noscf
 end

 tce
   2eorb
   2emet 13
   ccsd
   maxiter 300
   lshift 0.2
 end

# set tce:print_integrals T
# set tce:qorb 4
# set tce:qela 1
# set tce:qelb 1

 set tce:qducc T
 set tce:nactv 1
 set tce:nonhf T
 set tce:ducc_model 3

 set tce:printtol 0.02

 task tce
================================================================================


                                         
                                         


             Northwest Computational Chemistry Package (NWChem) 7.0.1
             --------------------------------------------------------


                    Environmental Molecular Sciences Laboratory
                       Pacific Northwest National Laboratory
                                Richland, WA 99352

                              Copyright (c) 1994-2020
                       Pacific Northwest National Laboratory
                            Battelle Memorial Institute

             NWChem is an open-source computational chemistry package
                        distributed under the terms of the
                      Educational Community License (ECL) 2.0
             A copy of the license is included with this distribution
                              in the LICENSE.TXT file

                                  ACKNOWLEDGMENT
                                  --------------

            This software and its documentation were developed at the
            EMSL at Pacific Northwest National Laboratory, a multiprogram
            national laboratory, operated for the U.S. Department of Energy
            by Battelle under Contract Number DE-AC05-76RL01830. Support
            for this work was provided by the Department of Energy Office
            of Biological and Environmental Research, Office of Basic
            Energy Sciences, and the Office of Advanced Scientific Computing.


           Job information
           ---------------

    hostname        = WE46210
    program         = /home/baum612/code/nwchem/bin/LINUX64/nwchem
    date            = Wed Nov  8 15:22:47 2023

    compiled        = Mon_Nov_06_10:06:57_2023
    source          = /home/baum612/code/nwchem
    nwchem branch   = 7.0.0
    nwchem revision = nwchem_on_git-4191-g39d87d64de
    ga revision     = 5.8.1
    use scalapack   = F
    input           = input.nw
    prefix          = H2.
    data base       = ./H2.db
    status          = startup
    nproc           =        1
    time left       =     -1s



           Memory information
           ------------------

    heap     =  805306366 doubles =   6144.0 Mbytes
    stack    =  805306363 doubles =   6144.0 Mbytes
    global   = 1610612736 doubles =  12288.0 Mbytes (distinct from heap & stack)
    total    = 3221225465 doubles =  24576.0 Mbytes
    verify   = yes
    hardfail = no 


           Directory information
           ---------------------

  0 permanent = .
  0 scratch   = .




                                NWChem Input Module
                                -------------------


                                        H2
                                        --
 Turning off AUTOSYM since
 SYMMETRY directive was detected!


          ------
          auto-z
          ------
     1 autoz failed with cvr_scaling = 1.2 changing to 1.3
     2 autoz failed with cvr_scaling = 1.3 changing to 1.4
     3 autoz failed with cvr_scaling = 1.4 changing to 1.5
     4 autoz failed with cvr_scaling = 1.5 changing to 1.6
  no constraints, skipping    0.0000000000000000     
  no constraints, skipping    0.0000000000000000     


                             Geometry "geometry" -> ""
                             -------------------------

 Output coordinates in a.u. (scale by  1.000000000 to convert to a.u.)

  No.       Tag          Charge          X              Y              Z
 ---- ---------------- ---------- -------------- -------------- --------------
    1 H                    1.0000     0.00000000    -1.17500000     0.00000000
    2 H                    1.0000     0.00000000     1.17500000     0.00000000

      Atomic Mass 
      ----------- 

      H                  1.007825


 Effective nuclear repulsion energy (a.u.)       0.4255319149

            Nuclear Dipole moment (a.u.) 
            ----------------------------
        X                 Y               Z
 ---------------- ---------------- ----------------
     0.0000000000     0.0000000000     0.0000000000



                                Z-matrix (autoz)
                                -------- 

 Units are Angstrom for bonds and degrees for angles

      Type          Name      I     J     K     L     M      Value
      ----------- --------  ----- ----- ----- ----- ----- ----------
    1 Stretch                  1     2                       1.24357


            XYZ format geometry
            -------------------
     2
 geometry
 H                     0.00000000    -0.62178327     0.00000000
 H                     0.00000000     0.62178327     0.00000000



 Summary of "ao basis" -> "" (cartesian)
 ------------------------------------------------------------------------------
       Tag                 Description            Shells   Functions and Types
 ---------------- ------------------------------  ------  ---------------------
 *                          cc-pVQZ                   on all atoms 


                      Basis "ao basis" -> "ao basis" (cartesian)
                      -----
  H (Hydrogen)
  ------------
            Exponent  Coefficients 
       -------------- ---------------------------------------------------------
  1 S  8.26400000E+01  0.002006
  1 S  1.24100000E+01  0.015343
  1 S  2.82400000E+00  0.075579

  2 S  7.97700000E-01  1.000000

  3 S  2.58100000E-01  1.000000

  4 S  8.98900000E-02  1.000000

  5 P  2.29200000E+00  1.000000

  6 P  8.38000000E-01  1.000000

  7 P  2.92000000E-01  1.000000

  8 D  2.06200000E+00  1.000000

  9 D  6.62000000E-01  1.000000

 10 F  1.39700000E+00  1.000000



 Summary of "ao basis" -> "ao basis" (cartesian)
 ------------------------------------------------------------------------------
       Tag                 Description            Shells   Functions and Types
 ---------------- ------------------------------  ------  ---------------------
 H                          cc-pVQZ                 10       35   4s3p2d1f



                            NWChem Direct MCSCF Module
                            --------------------------


                                        H2


     -----------------------------------
       Basis functions:             70
       Inactive shells:              0
       Active shells:                2
       Active electrons:             2
       Symmetry:                    a       
       Multiplicity:                 1
       Orbital rotations:          136
     -----------------------------------

     -----------------------------------
       E2 extrapolation:             F
       Conjugacy:                    T
       Micro CI relax:               T
       Canonical orbitals:           T
       Maximum iterations:          40
       Converge threshold:    1.00E-04
       Conjugacy resets:            20
       Initial levelshift:        0.10
     -----------------------------------

 Loading old vectors from job with title :

H2


   input molecular orbitals = ./H2.mos
  output molecular orbtials = ./H2.mos

       No. of determinants:             4


  Starting Orbital Energies
    -0.492152    -0.040890     0.236133     0.267700     0.440634     0.440634
     0.658108     0.693962     0.693962     0.981644     1.142368     1.214805
     1.727916     1.727916     1.802881     1.932402     1.932402     2.033813
     2.033813     2.132729     2.132729     2.335551     2.335551     2.410396
     2.865086     2.983194     2.983194     3.135909     3.154831     4.181089
     4.402807     4.432824     4.432824     4.583056     4.583056     5.216175
     5.644607     5.644607     5.870241     5.870241     5.960382     5.960382
     6.214132     6.214132     6.787512     6.869765     6.869765     8.116024
     8.116024     8.275273     8.275273     8.351432     8.351432     8.390822
     8.390822     8.513862     8.513862     8.673095     9.091445     9.495578
     9.689452     9.689452     9.694593     9.771413     9.859681     9.859681
    10.278864    11.513535    22.694697    24.856907

  Orbital Symmetry Irreps
a    a    a    a    a    a    a    a    a    a    a    a    a    a    a   
a    a    a    a    a    a    a    a    a    a    a    a    a    a    a   
a    a    a    a    a    a    a    a    a    a    a    a    a    a    a   
a    a    a    a    a    a    a    a    a    a    a    a    a    a    a   
a    a    a    a    a    a    a    a    a    a   

 Integral file          = ./H2.aoints.0
 Record size in doubles =  65536        No. of integs per rec  =  43688
 Max. records in memory =     99        Max. records in file   = 280272
 No. of bits per label  =      8        No. of bits per value  =     64


 #quartets = 2.216D+04 #integrals = 8.606D+05 #direct =  0.0% #cached =100.0%




          %%%%% MacroIteration   1 %%%%%


          Number of sigma calls:        2
                       o<<<<< (aa):             0.00
                       o<<<<< (bb):             0.00
                       o<<<<< (ab):             0.00
                       o<<<<< (total)           0.00
                       o<<<<< (aa) ff           0.00
                       o<<<<< (aa) gop          0.00
                       o<<<<< (aa) dot          0.00
                       o<<<<< (ab) str          0.00
                       o<<<<< (ab) gath         0.00
                       o<<<<< (ab) dotab        0.00
                       o<<<<< (ab) scat         0.00
                       o<<<<< (ab) sync         0.00
                       o<<<<< Density           0.00
                       o<<<<< Density one       0.00
                       o<<<<< Density two       0.00
                       o<<<<< Density ab        0.00
                       o<<<<< Spin adapt        0.00
                       o<<<<< Symm adapt        0.00

                       o<<<<< (ab) max sync:      0.00

           >>>| Valence CI:             -1.517953295163
           >>>| MCSCF energy:           -1.092421380269
           >>>| Gradient norm:          0.176460030D-01

                              ----- Line search ------

        step       energy         lsg     num-lsg   num-lsh   lsrat    time
      ------- ---------------- --------- --------- --------- ------- --------
       0.0000      -1.09242138 -4.58D-05  0.00D+00  0.00D+00 0.0D+00      0.3

          Number of sigma calls:        2
                       o<<<<< (aa):             0.00
                       o<<<<< (bb):             0.00
                       o<<<<< (ab):             0.00
                       o<<<<< (total)           0.00
                       o<<<<< (aa) ff           0.00
                       o<<<<< (aa) gop          0.00
                       o<<<<< (aa) dot          0.00
                       o<<<<< (ab) str          0.00
                       o<<<<< (ab) gath         0.00
                       o<<<<< (ab) dotab        0.00
                       o<<<<< (ab) scat         0.00
                       o<<<<< (ab) sync         0.00
                       o<<<<< Density           0.00
                       o<<<<< Density one       0.00
                       o<<<<< Density two       0.00
                       o<<<<< Density ab        0.00
                       o<<<<< Spin adapt        0.00
                       o<<<<< Symm adapt        0.00

                       o<<<<< (ab) max sync:      0.00
       1.0000      -1.09244466 -7.28D-07 -7.29D-07  4.51D-05 1.6D-02      0.4
     --- Orbitals canonicalized ---



          %%%%% MacroIteration   2 %%%%%


          Number of sigma calls:        2
                       o<<<<< (aa):             0.00
                       o<<<<< (bb):             0.00
                       o<<<<< (ab):             0.00
                       o<<<<< (total)           0.00
                       o<<<<< (aa) ff           0.00
                       o<<<<< (aa) gop          0.00
                       o<<<<< (aa) dot          0.00
                       o<<<<< (ab) str          0.00
                       o<<<<< (ab) gath         0.00
                       o<<<<< (ab) dotab        0.00
                       o<<<<< (ab) scat         0.00
                       o<<<<< (ab) sync         0.00
                       o<<<<< Density           0.00
                       o<<<<< Density one       0.00
                       o<<<<< Density two       0.00
                       o<<<<< Density ab        0.00
                       o<<<<< Spin adapt        0.00
                       o<<<<< Symm adapt        0.00

                       o<<<<< (ab) max sync:      0.00

           >>>| Valence CI:             -1.517976578301
           >>>| MCSCF energy:           -1.092444663407
           >>>| Gradient norm:          0.253955854D-03
     --- Conjugacy reset ---

                              ----- Line search ------

        step       energy         lsg     num-lsg   num-lsh   lsrat    time
      ------- ---------------- --------- --------- --------- ------- --------
       0.0000      -1.09244466 -4.66D-08  0.00D+00  0.00D+00 0.0D+00      0.5

          Number of sigma calls:        2
                       o<<<<< (aa):             0.00
                       o<<<<< (bb):             0.00
                       o<<<<< (ab):             0.00
                       o<<<<< (total)           0.00
                       o<<<<< (aa) ff           0.00
                       o<<<<< (aa) gop          0.00
                       o<<<<< (aa) dot          0.00
                       o<<<<< (ab) str          0.00
                       o<<<<< (ab) gath         0.00
                       o<<<<< (ab) dotab        0.00
                       o<<<<< (ab) scat         0.00
                       o<<<<< (ab) sync         0.00
                       o<<<<< Density           0.00
                       o<<<<< Density one       0.00
                       o<<<<< Density two       0.00
                       o<<<<< Density ab        0.00
                       o<<<<< Spin adapt        0.00
                       o<<<<< Symm adapt        0.00

                       o<<<<< (ab) max sync:      0.00
       1.0000      -1.09244469 -6.38D-10 -6.39D-10  4.60D-08 1.4D-02      0.5



          %%%%% MacroIteration   3 %%%%%


          Number of sigma calls:        1
                       o<<<<< (aa):             0.00
                       o<<<<< (bb):             0.00
                       o<<<<< (ab):             0.00
                       o<<<<< (total)           0.00
                       o<<<<< (aa) ff           0.00
                       o<<<<< (aa) gop          0.00
                       o<<<<< (aa) dot          0.00
                       o<<<<< (ab) str          0.00
                       o<<<<< (ab) gath         0.00
                       o<<<<< (ab) dotab        0.00
                       o<<<<< (ab) scat         0.00
                       o<<<<< (ab) sync         0.00
                       o<<<<< Density           0.00
                       o<<<<< Density one       0.00
                       o<<<<< Density two       0.00
                       o<<<<< Density ab        0.00
                       o<<<<< Spin adapt        0.00
                       o<<<<< Symm adapt        0.00

                       o<<<<< (ab) max sync:      0.00

           >>>| Valence CI:             -1.517976601943
           >>>| MCSCF energy:           -1.092444687050
           >>>| Gradient norm:          0.151547771D-04




     ==============================
            MCSCF Converged
     ==============================



          Canonical Eigenvalues

              1      
    1   -0.4873
    2   -0.0429
    3    0.2374
    4    0.2681
    5    0.4401
    6    0.4401
    7    0.6526
    8    0.6901
    9    0.6901
   10    0.9779
   11    1.1463
   12    1.2144
   13    1.7304
   14    1.7304
   15    1.7902
   16    1.9353
   17    1.9353
   18    2.0255
   19    2.0255
   20    2.1154
   21    2.1154
   22    2.3239
   23    2.3239
   24    2.4022
   25    2.8411
   26    2.9596
   27    2.9596
   28    3.1252
   29    3.1492
   30    4.1291
   31    4.4145
   32    4.4363
   33    4.4363
   34    4.5767
   35    4.5767
   36    5.1574
   37    5.6561
   38    5.6561
   39    5.8207
   40    5.8207
   41    5.9729
   42    5.9729
   43    6.1980
   44    6.1980
   45    6.6852
   46    6.8028
   47    6.8028
   48    8.1148
   49    8.1148
   50    8.2020
   51    8.2020
   52    8.2714
   53    8.2714
   54    8.3764
   55    8.3764
   56    8.5418
   57    8.5418
   58    8.6871
   59    9.1025
   60    9.4290
   61    9.6867
   62    9.6867
   63    9.7182
   64    9.7585
   65    9.8464
   66    9.8464
   67   10.2045
   68   11.3357
   69   22.6967
   70   24.6491


          Converged CI vector

   Index           Coefficient          Config. Occupation
         1          0.97416019          1  1
         4         -0.22585821          2  2

          Number of sigma calls:        1
                       o<<<<< (aa):             0.00
                       o<<<<< (bb):             0.00
                       o<<<<< (ab):             0.00
                       o<<<<< (total)           0.00
                       o<<<<< (aa) ff           0.00
                       o<<<<< (aa) gop          0.00
                       o<<<<< (aa) dot          0.00
                       o<<<<< (ab) str          0.00
                       o<<<<< (ab) gath         0.00
                       o<<<<< (ab) dotab        0.00
                       o<<<<< (ab) scat         0.00
                       o<<<<< (ab) sync         0.00
                       o<<<<< Density           0.00
                       o<<<<< Density one       0.00
                       o<<<<< Density two       0.00
                       o<<<<< Density ab        0.00
                       o<<<<< Spin adapt        0.00
                       o<<<<< Symm adapt        0.00

                       o<<<<< (ab) max sync:      0.00



          Natural orbital occupation numbers

              1      
    1    1.8980
    2    0.1020


          Number of sigma calls:        2
                       o<<<<< (aa):             0.00
                       o<<<<< (bb):             0.00
                       o<<<<< (ab):             0.00
                       o<<<<< (total)           0.00
                       o<<<<< (aa) ff           0.00
                       o<<<<< (aa) gop          0.00
                       o<<<<< (aa) dot          0.00
                       o<<<<< (ab) str          0.00
                       o<<<<< (ab) gath         0.00
                       o<<<<< (ab) dotab        0.00
                       o<<<<< (ab) scat         0.00
                       o<<<<< (ab) sync         0.00
                       o<<<<< Density           0.00
                       o<<<<< Density one       0.00
                       o<<<<< Density two       0.00
                       o<<<<< Density ab        0.00
                       o<<<<< Spin adapt        0.00
                       o<<<<< Symm adapt        0.00

                       o<<<<< (ab) max sync:      0.00


       Final MCSCF results 
       ------------------- 

       Total MCSCF energy =     -1.092444687050
            Gradient norm =      1.5D-05

    CPU time for solution =      0.5s
   Wall time for solution =      0.6s



                        Analysis of MCSCF natural orbitals
                        ----------------------------------

 Vector    1  Occ=1.897976D+00  E=-4.872677D-01  Symmetry=a
              MO Center=  1.9D-16, -2.3D-14,  7.4D-17, r^2= 1.1D+00
   Bfn.  Coefficient  Atom+Function         Bfn.  Coefficient  Atom+Function  
  ----- ------------  ---------------      ----- ------------  ---------------
     3      0.284826  1 H  s                 38      0.284826  2 H  s          
     2      0.159019  1 H  s                 37      0.159019  2 H  s          
     4      0.150213  1 H  s                 39      0.150213  2 H  s          

 Vector    2  Occ=1.020239D-01  E=-4.293127D-02  Symmetry=a
              MO Center=  1.7D-15,  6.9D-14,  2.6D-15, r^2= 1.1D+00
   Bfn.  Coefficient  Atom+Function         Bfn.  Coefficient  Atom+Function  
  ----- ------------  ---------------      ----- ------------  ---------------
     3      0.512620  1 H  s                 38     -0.512620  2 H  s          
     2      0.311136  1 H  s                 37     -0.311136  2 H  s          

 Vector    3  Occ=0.000000D+00  E= 2.374328D-01  Symmetry=a
              MO Center= -1.2D-16, -1.8D-12, -5.6D-17, r^2= 4.8D+00
   Bfn.  Coefficient  Atom+Function         Bfn.  Coefficient  Atom+Function  
  ----- ------------  ---------------      ----- ------------  ---------------
     3      1.734350  1 H  s                 38      1.734350  2 H  s          
     4     -1.189204  1 H  s                 39     -1.189204  2 H  s          
     2     -0.233561  1 H  s                 37     -0.233561  2 H  s          
    20     -0.204733  1 H  dxx               25     -0.204733  1 H  dzz        
    55     -0.204733  2 H  dxx               60     -0.204733  2 H  dzz        

 Vector    4  Occ=0.000000D+00  E= 2.681475D-01  Symmetry=a
              MO Center=  7.5D-16,  1.8D-12, -2.6D-16, r^2= 6.4D+00
   Bfn.  Coefficient  Atom+Function         Bfn.  Coefficient  Atom+Function  
  ----- ------------  ---------------      ----- ------------  ---------------
     4      2.704573  1 H  s                 39     -2.704573  2 H  s          
     3     -1.766394  1 H  s                 38      1.766394  2 H  s          
     9     -0.428655  1 H  py                44     -0.428655  2 H  py         
    12      0.226123  1 H  py                47      0.226123  2 H  py         
     2      0.223004  1 H  s                 37     -0.223004  2 H  s          

 Vector    5  Occ=0.000000D+00  E= 4.400598D-01  Symmetry=a
              MO Center=  1.7D-16, -5.1D-14,  2.0D-16, r^2= 1.9D+00
   Bfn.  Coefficient  Atom+Function         Bfn.  Coefficient  Atom+Function  
  ----- ------------  ---------------      ----- ------------  ---------------
    10      1.706450  1 H  pz                45      1.706450  2 H  pz         
    13     -0.884893  1 H  pz                48     -0.884893  2 H  pz         
    33     -0.701544  1 H  fyyz              68     -0.701544  2 H  fyyz       
    28     -0.686870  1 H  fxxz              35     -0.686870  1 H  fzzz       
    63     -0.686870  2 H  fxxz              70     -0.686870  2 H  fzzz       

 Vector    6  Occ=0.000000D+00  E= 4.400598D-01  Symmetry=a
              MO Center=  6.2D-16, -6.6D-14, -7.3D-17, r^2= 1.9D+00
   Bfn.  Coefficient  Atom+Function         Bfn.  Coefficient  Atom+Function  
  ----- ------------  ---------------      ----- ------------  ---------------
     8      1.706450  1 H  px                43      1.706450  2 H  px         
    11     -0.884893  1 H  px                46     -0.884893  2 H  px         
    29     -0.701544  1 H  fxyy              64     -0.701544  2 H  fxyy       
    26     -0.686870  1 H  fxxx              31     -0.686870  1 H  fxzz       
    61     -0.686870  2 H  fxxx              66     -0.686870  2 H  fxzz       

 Vector    7  Occ=0.000000D+00  E= 6.526441D-01  Symmetry=a
              MO Center= -1.9D-16,  1.7D-13, -3.0D-16, r^2= 2.6D+00
   Bfn.  Coefficient  Atom+Function         Bfn.  Coefficient  Atom+Function  
  ----- ------------  ---------------      ----- ------------  ---------------
     9      2.106306  1 H  py                44     -2.106306  2 H  py         
    12     -1.178156  1 H  py                47      1.178156  2 H  py         
     3      1.042831  1 H  s                 38      1.042831  2 H  s          
    27     -0.842289  1 H  fxxy              32     -0.845184  1 H  fyyy       
    34     -0.842289  1 H  fyzz              62      0.842289  2 H  fxxy       

 Vector    8  Occ=0.000000D+00  E= 6.900544D-01  Symmetry=a
              MO Center=  4.3D-16,  4.6D-14, -2.8D-15, r^2= 2.5D+00
   Bfn.  Coefficient  Atom+Function         Bfn.  Coefficient  Atom+Function  
  ----- ------------  ---------------      ----- ------------  ---------------
    10      2.303931  1 H  pz                45     -2.303931  2 H  pz         
    13     -1.474020  1 H  pz                48      1.474020  2 H  pz         
    28     -0.914189  1 H  fxxz              33     -0.909935  1 H  fyyz       
    35     -0.914189  1 H  fzzz              63      0.914189  2 H  fxxz       
    68      0.909935  2 H  fyyz              70      0.914189  2 H  fzzz       

 Vector    9  Occ=0.000000D+00  E= 6.900544D-01  Symmetry=a
              MO Center= -1.2D-15,  6.2D-14,  1.6D-16, r^2= 2.5D+00
   Bfn.  Coefficient  Atom+Function         Bfn.  Coefficient  Atom+Function  
  ----- ------------  ---------------      ----- ------------  ---------------
     8      2.303931  1 H  px                43     -2.303931  2 H  px         
    11     -1.474020  1 H  px                46      1.474020  2 H  px         
    26     -0.914189  1 H  fxxx              29     -0.909935  1 H  fxyy       
    31     -0.914189  1 H  fxzz              61      0.914189  2 H  fxxx       
    64      0.909935  2 H  fxyy              66      0.914189  2 H  fxzz       

 Vector   10  Occ=0.000000D+00  E= 9.778674D-01  Symmetry=a
              MO Center=  2.3D-16,  3.0D-13, -7.4D-17, r^2= 3.4D+00
   Bfn.  Coefficient  Atom+Function         Bfn.  Coefficient  Atom+Function  
  ----- ------------  ---------------      ----- ------------  ---------------
    12      3.417578  1 H  py                47      3.417578  2 H  py         
     9     -2.513572  1 H  py                44     -2.513572  2 H  py         
     3      2.339800  1 H  s                 38     -2.339800  2 H  s          
     4      1.353548  1 H  s                 39     -1.353548  2 H  s          
    32      1.020663  1 H  fyyy              67      1.020663  2 H  fyyy       

 Vector   11  Occ=0.000000D+00  E= 1.146344D+00  Symmetry=a
              MO Center= -6.3D-16,  8.0D-13, -2.5D-17, r^2= 2.4D+00
   Bfn.  Coefficient  Atom+Function         Bfn.  Coefficient  Atom+Function  
  ----- ------------  ---------------      ----- ------------  ---------------
     3      3.484959  1 H  s                 38      3.484959  2 H  s          
     2     -1.470275  1 H  s                 37     -1.470275  2 H  s          
     9     -0.915900  1 H  py                44      0.915900  2 H  py         
     4     -0.886865  1 H  s                 39     -0.886865  2 H  s          
    20     -0.709159  1 H  dxx               25     -0.709159  1 H  dzz        

 Vector   12  Occ=0.000000D+00  E= 1.214427D+00  Symmetry=a
              MO Center= -1.2D-16, -1.2D-12,  1.9D-15, r^2= 2.7D+00
   Bfn.  Coefficient  Atom+Function         Bfn.  Coefficient  Atom+Function  
  ----- ------------  ---------------      ----- ------------  ---------------
     3      6.592082  1 H  s                 38     -6.592082  2 H  s          
    12      1.791916  1 H  py                47      1.791916  2 H  py         
     2     -1.762994  1 H  s                 37      1.762994  2 H  s          
     4     -1.372159  1 H  s                 39      1.372159  2 H  s          
    20     -0.842375  1 H  dxx               25     -0.842375  1 H  dzz        


 Wrote Lagrangian and 1- and 2-particle density matrices to ./H2.mcpdm


     Multipole analysis of the density
     ---------------------------------

     L   x y z        total        nuclear
     -   - - -        -----        -------
     0   0 0 0     -0.000000      2.000000

     1   1 0 0     -0.000000      0.000000
     1   0 1 0      0.000000      0.000000
     1   0 0 1     -0.000000      0.000000

     2   2 0 0     -1.931605      0.000000
     2   1 1 0     -0.000000      0.000000
     2   1 0 1     -0.000000      0.000000
     2   0 2 0     -1.116371      2.761250
     2   0 1 1     -0.000000      0.000000
     2   0 0 2     -1.931605      0.000000


  Mulliken analysis of the total density
  --------------------------------------

    Atom       Charge   Shell Charges
 -----------   ------   -------------------------------------------------------
    1 H    1     1.00   0.05  0.22  0.48  0.23  0.00 -0.00  0.01  0.00  0.00  0.00
    2 H    1     1.00   0.05  0.22  0.48  0.23  0.00 -0.00  0.01  0.00  0.00  0.00

    Mulliken analysis of the active space density
    ---------------------------------------------

    Atom       Charge   Shell Charges
 -----------   ------   -------------------------------------------------------
    1 H    1     1.00   0.05  0.22  0.48  0.23  0.00 -0.00  0.01  0.00  0.00  0.00
    2 H    1     1.00   0.05  0.22  0.48  0.23  0.00 -0.00  0.01  0.00  0.00  0.00

 Parallel integral file used      20 records with       0 large values


 Task  times  cpu:        0.6s     wall:        0.6s


                                NWChem Input Module
                                -------------------


                                 NWChem SCF Module
                                 -----------------


                                        H2



  ao basis        = "ao basis"
  functions       =    70
  atoms           =     2
  closed shells   =     1
  open shells     =     0
  charge          =   0.00
  wavefunction    = RHF 
  input vectors   = ./H2.mos
  output vectors  = ./H2.mos
  use symmetry    = F
  symmetry adapt  = F


 Summary of "ao basis" -> "ao basis" (cartesian)
 ------------------------------------------------------------------------------
       Tag                 Description            Shells   Functions and Types
 ---------------- ------------------------------  ------  ---------------------
 H                          cc-pVQZ                 10       35   4s3p2d1f



 Forming initial guess at       0.7s


 Loading old vectors from job with title :

H2


 Starting SCF solution at       0.7s



 ----------------------------------------------
         Quadratically convergent ROHF

 Convergence threshold     :          1.000E-04
 Maximum no. of iterations :           30
 Final Fock-matrix accuracy:          1.000E-07
 ----------------------------------------------


 Integral file          = ./H2.aoints.0
 Record size in doubles =  65536        No. of integs per rec  =  43688
 Max. records in memory =     99        Max. records in file   = 280323
 No. of bits per label  =      8        No. of bits per value  =     64


 #quartets = 2.216D+04 #integrals = 8.606D+05 #direct =  0.0% #cached =100.0%



       Final RHF  results 
       ------------------ 

         Total SCF energy =     -1.052871092831
      One-electron energy =     -2.009022455423
      Two-electron energy =      0.530619447699
 Nuclear repulsion energy =      0.425531914894

        Time for solution =      0.1s


             Final eigenvalues
             -----------------

              1      
    1   -0.4873
    2   -0.0429
    3    0.2374
    4    0.2681
    5    0.4401
    6    0.4401
    7    0.6526
    8    0.6901
    9    0.6901
   10    0.9779
   11    1.1463

                       ROHF Final Molecular Orbital Analysis
                       -------------------------------------

 Vector    1  Occ=2.000000D+00  E=-4.872677D-01
              MO Center=  1.9D-16, -2.3D-14,  7.4D-17, r^2= 1.1D+00
   Bfn.  Coefficient  Atom+Function         Bfn.  Coefficient  Atom+Function  
  ----- ------------  ---------------      ----- ------------  ---------------
     3      0.284826  1 H  s                 38      0.284826  2 H  s          
     2      0.159019  1 H  s                 37      0.159019  2 H  s          
     4      0.150213  1 H  s                 39      0.150213  2 H  s          

 Vector    2  Occ=0.000000D+00  E=-4.293127D-02
              MO Center=  1.7D-15,  6.9D-14,  2.6D-15, r^2= 1.1D+00
   Bfn.  Coefficient  Atom+Function         Bfn.  Coefficient  Atom+Function  
  ----- ------------  ---------------      ----- ------------  ---------------
     3      0.512620  1 H  s                 38     -0.512620  2 H  s          
     2      0.311136  1 H  s                 37     -0.311136  2 H  s          

 Vector    3  Occ=0.000000D+00  E= 2.374328D-01
              MO Center= -1.2D-16, -1.8D-12, -5.6D-17, r^2= 4.8D+00
   Bfn.  Coefficient  Atom+Function         Bfn.  Coefficient  Atom+Function  
  ----- ------------  ---------------      ----- ------------  ---------------
     3      1.734350  1 H  s                 38      1.734350  2 H  s          
     4     -1.189204  1 H  s                 39     -1.189204  2 H  s          
     2     -0.233561  1 H  s                 37     -0.233561  2 H  s          
    20     -0.204733  1 H  dxx               25     -0.204733  1 H  dzz        
    55     -0.204733  2 H  dxx               60     -0.204733  2 H  dzz        

 Vector    4  Occ=0.000000D+00  E= 2.681475D-01
              MO Center=  7.5D-16,  1.8D-12, -2.6D-16, r^2= 6.4D+00
   Bfn.  Coefficient  Atom+Function         Bfn.  Coefficient  Atom+Function  
  ----- ------------  ---------------      ----- ------------  ---------------
     4      2.704573  1 H  s                 39     -2.704573  2 H  s          
     3     -1.766394  1 H  s                 38      1.766394  2 H  s          
     9     -0.428655  1 H  py                44     -0.428655  2 H  py         
    12      0.226123  1 H  py                47      0.226123  2 H  py         
     2      0.223004  1 H  s                 37     -0.223004  2 H  s          

 Vector    5  Occ=0.000000D+00  E= 4.400598D-01
              MO Center=  1.7D-16, -5.1D-14,  2.0D-16, r^2= 1.9D+00
   Bfn.  Coefficient  Atom+Function         Bfn.  Coefficient  Atom+Function  
  ----- ------------  ---------------      ----- ------------  ---------------
    10      1.706450  1 H  pz                45      1.706450  2 H  pz         
    13     -0.884893  1 H  pz                48     -0.884893  2 H  pz         
    33     -0.701544  1 H  fyyz              68     -0.701544  2 H  fyyz       
    28     -0.686870  1 H  fxxz              35     -0.686870  1 H  fzzz       
    63     -0.686870  2 H  fxxz              70     -0.686870  2 H  fzzz       

 Vector    6  Occ=0.000000D+00  E= 4.400598D-01
              MO Center=  6.2D-16, -6.6D-14, -7.3D-17, r^2= 1.9D+00
   Bfn.  Coefficient  Atom+Function         Bfn.  Coefficient  Atom+Function  
  ----- ------------  ---------------      ----- ------------  ---------------
     8      1.706450  1 H  px                43      1.706450  2 H  px         
    11     -0.884893  1 H  px                46     -0.884893  2 H  px         
    29     -0.701544  1 H  fxyy              64     -0.701544  2 H  fxyy       
    26     -0.686870  1 H  fxxx              31     -0.686870  1 H  fxzz       
    61     -0.686870  2 H  fxxx              66     -0.686870  2 H  fxzz       

 Vector    7  Occ=0.000000D+00  E= 6.526441D-01
              MO Center= -1.9D-16,  1.7D-13, -3.0D-16, r^2= 2.6D+00
   Bfn.  Coefficient  Atom+Function         Bfn.  Coefficient  Atom+Function  
  ----- ------------  ---------------      ----- ------------  ---------------
     9      2.106306  1 H  py                44     -2.106306  2 H  py         
    12     -1.178156  1 H  py                47      1.178156  2 H  py         
     3      1.042831  1 H  s                 38      1.042831  2 H  s          
    27     -0.842289  1 H  fxxy              32     -0.845184  1 H  fyyy       
    34     -0.842289  1 H  fyzz              62      0.842289  2 H  fxxy       

 Vector    8  Occ=0.000000D+00  E= 6.900544D-01
              MO Center=  4.3D-16,  4.6D-14, -2.8D-15, r^2= 2.5D+00
   Bfn.  Coefficient  Atom+Function         Bfn.  Coefficient  Atom+Function  
  ----- ------------  ---------------      ----- ------------  ---------------
    10      2.303931  1 H  pz                45     -2.303931  2 H  pz         
    13     -1.474020  1 H  pz                48      1.474020  2 H  pz         
    28     -0.914189  1 H  fxxz              33     -0.909935  1 H  fyyz       
    35     -0.914189  1 H  fzzz              63      0.914189  2 H  fxxz       
    68      0.909935  2 H  fyyz              70      0.914189  2 H  fzzz       

 Vector    9  Occ=0.000000D+00  E= 6.900544D-01
              MO Center= -1.2D-15,  6.2D-14,  1.6D-16, r^2= 2.5D+00
   Bfn.  Coefficient  Atom+Function         Bfn.  Coefficient  Atom+Function  
  ----- ------------  ---------------      ----- ------------  ---------------
     8      2.303931  1 H  px                43     -2.303931  2 H  px         
    11     -1.474020  1 H  px                46      1.474020  2 H  px         
    26     -0.914189  1 H  fxxx              29     -0.909935  1 H  fxyy       
    31     -0.914189  1 H  fxzz              61      0.914189  2 H  fxxx       
    64      0.909935  2 H  fxyy              66      0.914189  2 H  fxzz       

 Vector   10  Occ=0.000000D+00  E= 9.778674D-01
              MO Center=  2.3D-16,  2.9D-13, -7.4D-17, r^2= 3.4D+00
   Bfn.  Coefficient  Atom+Function         Bfn.  Coefficient  Atom+Function  
  ----- ------------  ---------------      ----- ------------  ---------------
    12      3.417578  1 H  py                47      3.417578  2 H  py         
     9     -2.513572  1 H  py                44     -2.513572  2 H  py         
     3      2.339800  1 H  s                 38     -2.339800  2 H  s          
     4      1.353548  1 H  s                 39     -1.353548  2 H  s          
    32      1.020663  1 H  fyyy              67      1.020663  2 H  fyyy       

 Vector   11  Occ=0.000000D+00  E= 1.146344D+00
              MO Center= -6.3D-16,  8.0D-13, -2.5D-17, r^2= 2.4D+00
   Bfn.  Coefficient  Atom+Function         Bfn.  Coefficient  Atom+Function  
  ----- ------------  ---------------      ----- ------------  ---------------
     3      3.484959  1 H  s                 38      3.484959  2 H  s          
     2     -1.470275  1 H  s                 37     -1.470275  2 H  s          
     9     -0.915900  1 H  py                44      0.915900  2 H  py         
     4     -0.886865  1 H  s                 39     -0.886865  2 H  s          
    20     -0.709159  1 H  dxx               25     -0.709159  1 H  dzz        


 center of mass
 --------------
 x =   0.00000000 y =   0.00000000 z =   0.00000000

 moments of inertia (a.u.)
 ------------------
           2.782856781250           0.000000000000           0.000000000000
           0.000000000000           0.000000000000           0.000000000000
           0.000000000000           0.000000000000           2.782856781250

  Mulliken analysis of the total density
  --------------------------------------

    Atom       Charge   Shell Charges
 -----------   ------   -------------------------------------------------------
    1 H    1     1.00   0.04  0.21  0.48  0.24  0.00 -0.00  0.01  0.00  0.00  0.00
    2 H    1     1.00   0.04  0.21  0.48  0.24  0.00 -0.00  0.01  0.00  0.00  0.00

       Multipole analysis of the density wrt the origin
       ------------------------------------------------

     L   x y z        total         open         nuclear
     -   - - -        -----         ----         -------
     0   0 0 0     -0.000000      0.000000      2.000000

     1   1 0 0     -0.000000      0.000000      0.000000
     1   0 1 0      0.000000      0.000000      0.000000
     1   0 0 1     -0.000000      0.000000      0.000000

     2   2 0 0     -1.968639      0.000000      0.000000
     2   1 1 0     -0.000000      0.000000      0.000000
     2   1 0 1      0.000000      0.000000      0.000000
     2   0 2 0     -1.028871      0.000000      2.761250
     2   0 1 1     -0.000000      0.000000      0.000000
     2   0 0 2     -1.968639      0.000000      0.000000


 Parallel integral file used      20 records with       0 large values

                   NWChem Extensible Many-Electron Theory Module
                   ---------------------------------------------

              ======================================================
                   This portion of the program was automatically
                  generated by a Tensor Contraction Engine (TCE).
                  The development of this portion of the program
                 and TCE was supported by US Department of Energy,
                Office of Science, Office of Basic Energy Science.
                      TCE is a product of Battelle and PNNL.
              Please cite: S.Hirata, J.Phys.Chem.A 107, 9887 (2003).
              ======================================================

                                        H2


            General Information
            -------------------
      Number of processors :     1
         Wavefunction type : Restricted Hartree-Fock
          No. of electrons :     2
           Alpha electrons :     1
            Beta electrons :     1
           No. of orbitals :   140
            Alpha orbitals :    70
             Beta orbitals :    70
        Alpha frozen cores :     0
         Beta frozen cores :     0
     Alpha frozen virtuals :     0
      Beta frozen virtuals :     0
         Spin multiplicity : singlet 
    Number of AO functions :    70
       Number of AO shells :    20
        Use of symmetry is : off
      Symmetry adaption is : off
         Schwarz screening : 0.10D-09

          Correlation Information
          -----------------------
          Calculation type : Coupled-cluster singles & doubles                           
   Perturbative correction : none                                                        
            Max iterations :      300
        Residual threshold : 0.10D-06
     T(0) DIIS level shift : 0.20D+00
     L(0) DIIS level shift : 0.00D+00
     T(1) DIIS level shift : 0.00D+00
     L(1) DIIS level shift : 0.00D+00
     T(R) DIIS level shift : 0.00D+00
     T(I) DIIS level shift : 0.00D+00
   CC-T/L Amplitude update :  5-th order DIIS
                I/O scheme : Global Array Library
        L-threshold :  0.10D-06
        EOM-threshold :  0.10D-06
 no EOMCCSD initial starts read in
 TCE RESTART OPTIONS
 READ_INT:   F
 WRITE_INT:  F
 READ_TA:    F
 WRITE_TA:   F
 READ_XA:    F
 WRITE_XA:   F
 READ_IN3:   F
 WRITE_IN3:  F
 SLICE:      F
 D4D5:       F
 quantumc:   F
 qrotation:  F
 pwtce:      F
 qducc:      T
 nacto:                         0
 nrotv:                         0
 nrot:                          0

            Memory Information
            ------------------
          Available GA space size is    1610607836 doubles
          Available MA space size is    1610610644 doubles

 Maximum block size        32 doubles

 tile_dim =     23

 Block   Spin    Irrep     Size     Offset   Alpha
 -------------------------------------------------
   1    alpha     a      1 doubles       0       1
   2    beta      a      1 doubles       1       1
   3    alpha     a     23 doubles       2       3
   4    alpha     a     23 doubles      25       4
   5    alpha     a     23 doubles      48       5
   6    beta      a     23 doubles      71       3
   7    beta      a     23 doubles      94       4
   8    beta      a     23 doubles     117       5

 Global array virtual files algorithm will be used

 Parallel file system coherency ......... OK

 Integral file          = ./H2.aoints.0
 Record size in doubles =  65536        No. of integs per rec  =  43688
 Max. records in memory =     99        Max. records in file   = 280323
 No. of bits per label  =      8        No. of bits per value  =     64


 #quartets = 2.216D+04 #integrals = 8.606D+05 #direct =  0.0% #cached =100.0%


 Fock matrix recomputed
 1-e file size   =             4900
 1-e file name   = ./H2.f1
 Cpu & wall time / sec            0.0            0.1
 4-electron integrals stored in orbital form

 v2    file size   =          6102085
 4-index algorithm nr.  13 is used
 imaxsize =       30
 imaxsize ichop =        0
 Cpu & wall time / sec            2.0            2.0
 T1-number-of-tasks                    3

 t1 file size   =               69
 t1 file name   = ./H2.t1
 t1 file handle =       -998
 T2-number-of-boxes                   15

 t2 file size   =             7935
 t2 file name   = ./H2.t2
 t2 file handle =       -996
CCSD iterations
 ---------------------------------------------------------
 Iter          Residuum       Correlation     Cpu    Wall 
 ---------------------------------------------------------
NEW TASK SCHEDULING
CCSD_T1_NTS --- OK
CCSD_T2_NTS --- OK
    1   0.1159881149205  -0.0532226978916     0.1     0.1
    2   0.0248238277146  -0.0501527861757     0.1     0.1
    3   0.0122148725024  -0.0519707115944     0.1     0.1
    4   0.0063926503928  -0.0525312366789     0.1     0.1
    5   0.0036097238960  -0.0528760173815     0.1     0.1
 MICROCYCLE DIIS UPDATE:                    5                    5
    6   0.0004335055749  -0.0532895031328     0.1     0.1
    7   0.0001745714410  -0.0532887006746     0.1     0.1
    8   0.0000890427139  -0.0532906810285     0.1     0.1
    9   0.0000484108404  -0.0532922662756     0.1     0.1
   10   0.0000273514573  -0.0532934671815     0.1     0.1
 MICROCYCLE DIIS UPDATE:                   10                    5
   11   0.0000030379434  -0.0532956117959     0.1     0.1
   12   0.0000010115512  -0.0532956282097     0.1     0.1
   13   0.0000005265332  -0.0532956770414     0.1     0.1
   14   0.0000002820200  -0.0532956979979     0.1     0.1
   15   0.0000001570116  -0.0532957099752     0.1     0.1
 MICROCYCLE DIIS UPDATE:                   15                    5
   16   0.0000000199737  -0.0532957246603     0.1     0.1
 -----------------------------------------------------------------
 Iterations converged
 CCSD correlation energy / hartree =        -0.053295724660316
 CCSD total energy / hartree       =        -1.106166817491083

 Singles contributions

 Doubles contributions
     2a   (alpha)     2a   (beta ) ---     1a   (alpha)     1a   (beta )       -0.2112125369
     3a   (alpha)     3a   (beta ) ---     1a   (alpha)     1a   (beta )       -0.0282714100
     5a   (alpha)     5a   (beta ) ---     1a   (alpha)     1a   (beta )       -0.0376779747
     6a   (alpha)     6a   (beta ) ---     1a   (alpha)     1a   (beta )       -0.0376779747
 Ground state specification:
 exp(T)|Ref>~(1+T)|Ref>
 ------- a(p)+/a(q) strings ----------

 singles norm

 doubles norm

 Reference string
  0.97841422353714869      :(1a)+ (1b)+ |0>

 Singles strings

 Doubles strings
 -0.20665335027576559      :(2a)+ (2b)+ (1b)  (1a)  (1a)+ (1b)+ |0>
 -------------------------------------
 enrep_tce =   0.42553191489361691     
  EHF(total)         =        -1.05287109
  Shift (HFtot-HFA)  =         0.00000000
 ALL OCCUPIED ORBITALS ARE ACTIVE IN DUCC --> NO SHIFT
 Number of active orbitals                    2
 Number of active alpha electrons                    1
 Number of active beta electrons                    1
  nos                     2
  nvs                   138
 noas                     1
 nobs                     1
 nvas                    69
 nvbs                    69
 nactv                     1
 DUCC MODEL =                     3
 NONHF =  T
 F-T1 correlation    =   -2.6142903515540342E-004
 V-T1-T1 correlation =    1.6331330549524967E-006
 V-T2 correlation    =   -5.3035928758215937E-002
 Total correlation   =   -5.3295724660316388E-002
 F-T1(Ext) correlation         =   -2.6142903515540342E-004
 V-T1(Ext)-T1(Ext) correlation =    1.6331330549524967E-006
 V-T2(Ext) correlation         =   -1.6984732604406725E-002
 Total Ext correlation         =   -1.7244528506507175E-002
1-BODY TIME =    0.017 SECONDS.
  HHHH TIME =    0.013 SECONDS.
  PPPP TIME =    0.000 SECONDS.
  HHHP TIME =    0.006 SECONDS.
  PPPH TIME =    0.054 SECONDS.
  HPHP TIME =    0.007 SECONDS.
  HHPP TIME =    0.005 SECONDS.
 ONE-BODY UNITARY CHECK
 TWO-BODY UNITARY CHECK
 TWO-BODY ANTISYMMETRY CHECK
 TRANSFORMED ~FOCK~ MATRIX
    1    1        -0.4901865359
    2    2         0.2213849772
 begin_one_electron_integrals
    1    1        -1.0048263826
    2    2        -0.6762863048
 end_one_electron_integrals
 begin_two_electron_integrals
    1    1    1    1        0.5146398466
    1    2    1    2        0.1583899734
    1    1    2    2        0.5336151898
    1    2    2    1        0.1695590977
    2    1    1    2        0.1695590977
    2    2    1    1        0.5336151898
    2    1    2    1        0.1583899734
    2    2    2    2        0.5707386623
 end_two_electron_integrals

 Parallel integral file used      20 records with       0 large values


 Task  times  cpu:       32.4s     wall:       34.5s


                                NWChem Input Module
                                -------------------


 Summary of allocated global arrays
-----------------------------------
  No active global arrays


MA_summarize_allocated_blocks: starting scan ...
MA_summarize_allocated_blocks: scan completed: 0 heap blocks, 0 stack blocks
MA usage statistics:

	allocation statistics:
					      heap	     stack
					      ----	     -----
	current number of blocks	         0	         0
	maximum number of blocks	        18	        42
	current total bytes		         0	         0
	maximum total bytes		  51983016	9994007160
	maximum total K-bytes		     51984	   9994008
	maximum total M-bytes		        52	      9995


                                     CITATION
                                     --------
                Please cite the following reference when publishing
                           results obtained with NWChem:

          E. Apra, E. J. Bylaska, W. A. de Jong, N. Govind, K. Kowalski,
       T. P. Straatsma, M. Valiev, H. J. J. van Dam, Y. Alexeev, J. Anchell,
       V. Anisimov, F. W. Aquino, R. Atta-Fynn, J. Autschbach, N. P. Bauman,
     J. C. Becca, D. E. Bernholdt, K. Bhaskaran-Nair, S. Bogatko, P. Borowski,
         J. Boschen, J. Brabec, A. Bruner, E. Cauet, Y. Chen, G. N. Chuev,
      C. J. Cramer, J. Daily, M. J. O. Deegan, T. H. Dunning Jr., M. Dupuis,
   K. G. Dyall, G. I. Fann, S. A. Fischer, A. Fonari, H. Fruchtl, L. Gagliardi,
      J. Garza, N. Gawande, S. Ghosh, K. Glaesemann, A. W. Gotz, J. Hammond,
       V. Helms, E. D. Hermes, K. Hirao, S. Hirata, M. Jacquelin, L. Jensen,
   B. G. Johnson, H. Jonsson, R. A. Kendall, M. Klemm, R. Kobayashi, V. Konkov,
      S. Krishnamoorthy, M. Krishnan, Z. Lin, R. D. Lins, R. J. Littlefield,
      A. J. Logsdail, K. Lopata, W. Ma, A. V. Marenich, J. Martin del Campo,
   D. Mejia-Rodriguez, J. E. Moore, J. M. Mullin, T. Nakajima, D. R. Nascimento,
    J. A. Nichols, P. J. Nichols, J. Nieplocha, A. Otero-de-la-Roza, B. Palmer,
    A. Panyala, T. Pirojsirikul, B. Peng, R. Peverati, J. Pittner, L. Pollack,
   R. M. Richard, P. Sadayappan, G. C. Schatz, W. A. Shelton, D. W. Silverstein,
   D. M. A. Smith, T. A. Soares, D. Song, M. Swart, H. L. Taylor, G. S. Thomas,
            V. Tipparaju, D. G. Truhlar, K. Tsemekhman, T. Van Voorhis,
      A. Vazquez-Mayagoitia, P. Verma, O. Villa, A. Vishnu, K. D. Vogiatzis,
        D. Wang, J. H. Weare, M. J. Williamson, T. L. Windus, K. Wolinski,
        A. T. Wong, Q. Wu, C. Yang, Q. Yu, M. Zacharias, Z. Zhang, Y. Zhao,
                                and R. J. Harrison
                        "NWChem: Past, present, and future
                         J. Chem. Phys. 152, 184102 (2020)
                               doi:10.1063/5.0004997

                                      AUTHORS
                                      -------
  E. Apra, E. J. Bylaska, N. Govind, K. Kowalski, M. Valiev, D. Mejia-Rodriguez,
       A. Kunitsa, N. P. Bauman, A. Panyala, W. A. de Jong, T. P. Straatsma,
        H. J. J. van Dam, D. Wang, T. L. Windus, J. Hammond, J. Autschbach,
    K. Bhaskaran-Nair, J. Brabec, K. Lopata, S. A. Fischer, S. Krishnamoorthy,
     M. Jacquelin, W. Ma, M. Klemm, O. Villa, Y. Chen, V. Anisimov, F. Aquino,
    S. Hirata, M. T. Hackler, Eric Hermes, L. Jensen, J. E. Moore, J. C. Becca,
      V. Konjkov, T. Risthaus, M. Malagoli, A. Marenich, A. Otero-de-la-Roza,
        J. Mullin, P. Nichols, R. Peverati, J. Pittner, Y. Zhao, P.-D. Fan,
        A. Fonari, M. J. Williamson, R. J. Harrison, J. R. Rehr, M. Dupuis,
     D. Silverstein, D. M. A. Smith, J. Nieplocha, V. Tipparaju, M. Krishnan,
     B. E. Van Kuiken, A. Vazquez-Mayagoitia, M. Swart, Q. Wu, T. Van Voorhis,
     A. A. Auer, M. Nooijen, L. D. Crosby, E. Brown, G. Cisneros, G. I. Fann,
   H. Fruchtl, J. Garza, K. Hirao, R. A. Kendall, J. A. Nichols, K. Tsemekhman,
    K. Wolinski, J. Anchell, D. E. Bernholdt, P. Borowski, T. Clark, D. Clerc,
   H. Dachsel, M. J. O. Deegan, K. Dyall, D. Elwood, E. Glendening, M. Gutowski,
   A. C. Hess, J. Jaffe, B. G. Johnson, J. Ju, R. Kobayashi, R. Kutteh, Z. Lin,
   R. Littlefield, X. Long, B. Meng, T. Nakajima, S. Niu, L. Pollack, M. Rosing,
   K. Glaesemann, G. Sandrone, M. Stave, H. Taylor, G. Thomas, J. H. van Lenthe,
                               A. T. Wong, Z. Zhang.

 Total times  cpu:       33.0s     wall:       35.1s
