 argument  1 = input.nw
  NWChem w/ OpenMP: maximum threads =    1



============================== echo of input deck ==============================
 echo
 start HF
 title "HF"

 memory total 24 gb

 geometry units bohr
 symmetry c1
        F  0.00000000  0.00000000  0.00000000
        H  0.00000000  1.55925  0.00000000
 end

 basis spherical
   * library cc-pVTZ
 end

 mcscf
   active  8
   actelec 10
   multiplicity 1
   maxiter 40
   vectors input HF.mos
   vectors output HF.mos
 end

 task mcscf

 scf
   vectors input HF.mos
   vectors output HF-trash.mos
   noscf
 end

 tce
   2eorb
   2emet 13
   ccsd
   maxiter 500
 end

 set tce:print_integrals T
 set tce:qorb 8
 set tce:qela 5
 set tce:qelb 5

# set tce:qducc T
# set tce:nactv 3
# set tce:nonhf T
# set tce:ducc_model 3

 set tce:printtol 0.02

 task tce
================================================================================


                                         
                                         


             Northwest Computational Chemistry Package (NWChem) 7.0.1
             --------------------------------------------------------


                    Environmental Molecular Sciences Laboratory
                       Pacific Northwest National Laboratory
                                Richland, WA 99352

                              Copyright (c) 1994-2020
                       Pacific Northwest National Laboratory
                            Battelle Memorial Institute

             NWChem is an open-source computational chemistry package
                        distributed under the terms of the
                      Educational Community License (ECL) 2.0
             A copy of the license is included with this distribution
                              in the LICENSE.TXT file

                                  ACKNOWLEDGMENT
                                  --------------

            This software and its documentation were developed at the
            EMSL at Pacific Northwest National Laboratory, a multiprogram
            national laboratory, operated for the U.S. Department of Energy
            by Battelle under Contract Number DE-AC05-76RL01830. Support
            for this work was provided by the Department of Energy Office
            of Biological and Environmental Research, Office of Basic
            Energy Sciences, and the Office of Advanced Scientific Computing.


           Job information
           ---------------

    hostname        = WE46210
    program         = /home/baum612/code/nwchem/bin/LINUX64/nwchem
    date            = Mon Nov  6 14:37:32 2023

    compiled        = Mon_Nov_06_10:06:57_2023
    source          = /home/baum612/code/nwchem
    nwchem branch   = 7.0.0
    nwchem revision = nwchem_on_git-4191-g39d87d64de
    ga revision     = 5.8.1
    use scalapack   = F
    input           = input.nw
    prefix          = HF.
    data base       = ./HF.db
    status          = startup
    nproc           =        1
    time left       =     -1s



           Memory information
           ------------------

    heap     =  805306362 doubles =   6144.0 Mbytes
    stack    =  805306367 doubles =   6144.0 Mbytes
    global   = 1610612736 doubles =  12288.0 Mbytes (distinct from heap & stack)
    total    = 3221225465 doubles =  24576.0 Mbytes
    verify   = yes
    hardfail = no 


           Directory information
           ---------------------

  0 permanent = .
  0 scratch   = .




                                NWChem Input Module
                                -------------------


                                        HF
                                        --
 Turning off AUTOSYM since
 SYMMETRY directive was detected!


          ------
          auto-z
          ------
  no constraints, skipping    0.0000000000000000     
  no constraints, skipping    0.0000000000000000     


                             Geometry "geometry" -> ""
                             -------------------------

 Output coordinates in a.u. (scale by  1.000000000 to convert to a.u.)

  No.       Tag          Charge          X              Y              Z
 ---- ---------------- ---------- -------------- -------------- --------------
    1 F                    9.0000     0.00000000    -0.15592500     0.00000000
    2 H                    1.0000     0.00000000     1.40332500     0.00000000

      Atomic Mass 
      ----------- 

      F                 18.998400
      H                  1.007825


 Effective nuclear repulsion energy (a.u.)       5.7720057720

            Nuclear Dipole moment (a.u.) 
            ----------------------------
        X                 Y               Z
 ---------------- ---------------- ----------------
     0.0000000000     0.0000000000     0.0000000000



                                Z-matrix (autoz)
                                -------- 

 Units are Angstrom for bonds and degrees for angles

      Type          Name      I     J     K     L     M      Value
      ----------- --------  ----- ----- ----- ----- ----- ----------
    1 Stretch                  1     2                       0.82512


            XYZ format geometry
            -------------------
     2
 geometry
 F                     0.00000000    -0.08251196     0.00000000
 H                     0.00000000     0.74260766     0.00000000

 ==============================================================================
                                internuclear distances
 ------------------------------------------------------------------------------
       center one      |      center two      | atomic units |       a.u.
 ------------------------------------------------------------------------------
    2 H                |   1 F                |     1.55925  |     1.55925
 ------------------------------------------------------------------------------
                         number of included internuclear distances:          1
 ==============================================================================





 Summary of "ao basis" -> "" (spherical)
 ------------------------------------------------------------------------------
       Tag                 Description            Shells   Functions and Types
 ---------------- ------------------------------  ------  ---------------------
 *                          cc-pVTZ                   on all atoms 


                      Basis "ao basis" -> "ao basis" (spherical)
                      -----
  F (Fluorine)
  ------------
            Exponent  Coefficients 
       -------------- ---------------------------------------------------------
  1 S  1.95000000E+04  0.000507
  1 S  2.92300000E+03  0.003923
  1 S  6.64500000E+02  0.020200
  1 S  1.87500000E+02  0.079010
  1 S  6.06200000E+01  0.230439
  1 S  2.14200000E+01  0.432872
  1 S  7.95000000E+00  0.349964
  1 S  8.81500000E-01 -0.007892

  2 S  1.95000000E+04 -0.000117
  2 S  2.92300000E+03 -0.000912
  2 S  6.64500000E+02 -0.004717
  2 S  1.87500000E+02 -0.019086
  2 S  6.06200000E+01 -0.059655
  2 S  2.14200000E+01 -0.140010
  2 S  7.95000000E+00 -0.176782
  2 S  8.81500000E-01  0.605043

  3 S  2.25700000E+00  1.000000

  4 S  3.04100000E-01  1.000000

  5 P  4.38800000E+01  0.016665
  5 P  9.92600000E+00  0.104472
  5 P  2.93000000E+00  0.317260

  6 P  9.13200000E-01  1.000000

  7 P  2.67200000E-01  1.000000

  8 D  3.10700000E+00  1.000000

  9 D  8.55000000E-01  1.000000

 10 F  1.91700000E+00  1.000000

  H (Hydrogen)
  ------------
            Exponent  Coefficients 
       -------------- ---------------------------------------------------------
  1 S  3.38700000E+01  0.006068
  1 S  5.09500000E+00  0.045308
  1 S  1.15900000E+00  0.202822

  2 S  3.25800000E-01  1.000000

  3 S  1.02700000E-01  1.000000

  4 P  1.40700000E+00  1.000000

  5 P  3.88000000E-01  1.000000

  6 D  1.05700000E+00  1.000000



 Summary of "ao basis" -> "ao basis" (spherical)
 ------------------------------------------------------------------------------
       Tag                 Description            Shells   Functions and Types
 ---------------- ------------------------------  ------  ---------------------
 F                          cc-pVTZ                 10       30   4s3p2d1f
 H                          cc-pVTZ                  6       14   3s2p1d



                            NWChem Direct MCSCF Module
                            --------------------------


                                        HF


     -----------------------------------
       Basis functions:             44
       Inactive shells:              0
       Active shells:                8
       Active electrons:            10
       Symmetry:                    a       
       Multiplicity:                 1
       Orbital rotations:          288
     -----------------------------------

     -----------------------------------
       E2 extrapolation:             F
       Conjugacy:                    T
       Micro CI relax:               T
       Canonical orbitals:           T
       Maximum iterations:          40
       Converge threshold:    1.00E-04
       Conjugacy resets:            20
       Initial levelshift:        0.10
     -----------------------------------

 Loading old vectors from job with title :

HF


   input molecular orbitals = ./HF.mos
  output molecular orbtials = ./HF.mos

       No. of determinants:          3136


  Starting Orbital Energies
   -26.284338    -1.633583    -0.812737    -0.655456    -0.655456    -0.022128
    -0.008548    -0.003935     0.383449     0.881599     0.881599     0.972454
     0.972454     1.203158     1.485928     2.218984     2.218984     2.581086
     2.581086     2.710190     3.593878     3.593878     3.853348     3.853348
     4.214770     4.413056     4.413056     5.325252     5.404646     5.404646
     5.895971     7.398705     7.398705     7.679287     7.679287     8.151617
     8.729709     8.729709     8.907670     8.907670     9.315364     9.348252
     9.348252    13.144039

  Orbital Symmetry Irreps
a    a    a    a    a    a    a    a    a    a    a    a    a    a    a   
a    a    a    a    a    a    a    a    a    a    a    a    a    a    a   
a    a    a    a    a    a    a    a    a    a    a    a    a    a   

 Integral file          = ./HF.aoints.0
 Record size in doubles =  65536        No. of integs per rec  =  43688
 Max. records in memory =     18        Max. records in file   = 280355
 No. of bits per label  =      8        No. of bits per value  =     64


 #quartets = 9.316D+03 #integrals = 1.251D+05 #direct =  0.0% #cached =100.0%




          %%%%% MacroIteration   1 %%%%%


          Number of sigma calls:       19
                       o<<<<< (aa):             0.01
                       o<<<<< (bb):             0.01
                       o<<<<< (ab):             0.15
                       o<<<<< (total)           0.17
                       o<<<<< (aa) ff           0.00
                       o<<<<< (aa) gop          0.00
                       o<<<<< (aa) dot          0.00
                       o<<<<< (ab) str          0.00
                       o<<<<< (ab) gath         0.00
                       o<<<<< (ab) dotab        0.00
                       o<<<<< (ab) scat         0.00
                       o<<<<< (ab) sync         0.00
                       o<<<<< Density           0.01
                       o<<<<< Density one       0.00
                       o<<<<< Density two       0.00
                       o<<<<< Density ab        0.01
                       o<<<<< Spin adapt        0.18
                       o<<<<< Symm adapt        0.00

                       o<<<<< (ab) max sync:      0.00

           >>>| Valence CI:           -105.867014018918
           >>>| MCSCF energy:         -100.095008246912
           >>>| Gradient norm:          0.562871368D-01
     --- Warning:   21 Hessian diagonals < 0.05 ---

                              ----- Line search ------

        step       energy         lsg     num-lsg   num-lsh   lsrat    time
      ------- ---------------- --------- --------- --------- ------- --------
       0.0000    -100.09500825 -1.84D-04  0.00D+00  0.00D+00 0.0D+00      1.0

          Number of sigma calls:       18
                       o<<<<< (aa):             0.01
                       o<<<<< (bb):             0.01
                       o<<<<< (ab):             0.14
                       o<<<<< (total)           0.15
                       o<<<<< (aa) ff           0.00
                       o<<<<< (aa) gop          0.00
                       o<<<<< (aa) dot          0.00
                       o<<<<< (ab) str          0.00
                       o<<<<< (ab) gath         0.00
                       o<<<<< (ab) dotab        0.00
                       o<<<<< (ab) scat         0.00
                       o<<<<< (ab) sync         0.00
                       o<<<<< Density           0.01
                       o<<<<< Density one       0.00
                       o<<<<< Density two       0.01
                       o<<<<< Density ab        0.00
                       o<<<<< Spin adapt        0.25
                       o<<<<< Symm adapt        0.00

                       o<<<<< (ab) max sync:      0.00
       1.0000    -100.09510796 -1.54D-05 -1.54D-05  1.69D-04 8.4D-02      1.5
     --- Orbitals canonicalized ---



          %%%%% MacroIteration   2 %%%%%


          Number of sigma calls:       14
                       o<<<<< (aa):             0.01
                       o<<<<< (bb):             0.00
                       o<<<<< (ab):             0.12
                       o<<<<< (total)           0.13
                       o<<<<< (aa) ff           0.00
                       o<<<<< (aa) gop          0.00
                       o<<<<< (aa) dot          0.00
                       o<<<<< (ab) str          0.00
                       o<<<<< (ab) gath         0.00
                       o<<<<< (ab) dotab        0.00
                       o<<<<< (ab) scat         0.00
                       o<<<<< (ab) sync         0.00
                       o<<<<< Density           0.01
                       o<<<<< Density one       0.01
                       o<<<<< Density two       0.00
                       o<<<<< Density ab        0.00
                       o<<<<< Spin adapt        0.16
                       o<<<<< Symm adapt        0.00

                       o<<<<< (ab) max sync:      0.00

           >>>| Valence CI:           -105.867113736226
           >>>| MCSCF energy:         -100.095107964220
           >>>| Gradient norm:          0.101239625D-01
     --- Warning:   21 Hessian diagonals < 0.05 ---
     --- Conjugacy reset ---

                              ----- Line search ------

        step       energy         lsg     num-lsg   num-lsh   lsrat    time
      ------- ---------------- --------- --------- --------- ------- --------
       0.0000    -100.09510796 -6.91D-06  0.00D+00  0.00D+00 0.0D+00      2.0

          Number of sigma calls:       13
                       o<<<<< (aa):             0.00
                       o<<<<< (bb):             0.00
                       o<<<<< (ab):             0.10
                       o<<<<< (total)           0.11
                       o<<<<< (aa) ff           0.00
                       o<<<<< (aa) gop          0.00
                       o<<<<< (aa) dot          0.00
                       o<<<<< (ab) str          0.00
                       o<<<<< (ab) gath         0.00
                       o<<<<< (ab) dotab        0.00
                       o<<<<< (ab) scat         0.00
                       o<<<<< (ab) sync         0.00
                       o<<<<< Density           0.02
                       o<<<<< Density one       0.00
                       o<<<<< Density two       0.01
                       o<<<<< Density ab        0.01
                       o<<<<< Spin adapt        0.10
                       o<<<<< Symm adapt        0.00

                       o<<<<< (ab) max sync:      0.00
       1.0000    -100.09511281 -2.78D-06 -2.78D-06  4.13D-06 4.0D-01      2.3

          Number of sigma calls:       13
                       o<<<<< (aa):             0.01
                       o<<<<< (bb):             0.01
                       o<<<<< (ab):             0.10
                       o<<<<< (total)           0.12
                       o<<<<< (aa) ff           0.00
                       o<<<<< (aa) gop          0.00
                       o<<<<< (aa) dot          0.00
                       o<<<<< (ab) str          0.00
                       o<<<<< (ab) gath         0.00
                       o<<<<< (ab) dotab        0.00
                       o<<<<< (ab) scat         0.00
                       o<<<<< (ab) sync         0.00
                       o<<<<< Density           0.00
                       o<<<<< Density one       0.00
                       o<<<<< Density two       0.00
                       o<<<<< Density ab        0.00
                       o<<<<< Spin adapt        0.18
                       o<<<<< Symm adapt        0.00

                       o<<<<< (ab) max sync:      0.00
       1.6728    -100.09511375 -1.35D-08 -1.26D-08  4.11D-06 2.0D-03      2.6



          %%%%% MacroIteration   3 %%%%%


          Number of sigma calls:        1
                       o<<<<< (aa):             0.00
                       o<<<<< (bb):             0.00
                       o<<<<< (ab):             0.01
                       o<<<<< (total)           0.01
                       o<<<<< (aa) ff           0.00
                       o<<<<< (aa) gop          0.00
                       o<<<<< (aa) dot          0.00
                       o<<<<< (ab) str          0.00
                       o<<<<< (ab) gath         0.00
                       o<<<<< (ab) dotab        0.00
                       o<<<<< (ab) scat         0.00
                       o<<<<< (ab) sync         0.00
                       o<<<<< Density           0.02
                       o<<<<< Density one       0.01
                       o<<<<< Density two       0.00
                       o<<<<< Density ab        0.01
                       o<<<<< Spin adapt        0.00
                       o<<<<< Symm adapt        0.00

                       o<<<<< (ab) max sync:      0.00

           >>>| Valence CI:           -105.867119518921
           >>>| MCSCF energy:         -100.095113746916
           >>>| Gradient norm:          0.184798441D-02
     --- Warning:   46 Hessian diagonals < 0.05 ---

                              ----- Line search ------

        step       energy         lsg     num-lsg   num-lsh   lsrat    time
      ------- ---------------- --------- --------- --------- ------- --------
       0.0000    -100.09511375 -4.92D-07  0.00D+00  0.00D+00 0.0D+00      2.8

          Number of sigma calls:       12
                       o<<<<< (aa):             0.01
                       o<<<<< (bb):             0.00
                       o<<<<< (ab):             0.06
                       o<<<<< (total)           0.07
                       o<<<<< (aa) ff           0.00
                       o<<<<< (aa) gop          0.00
                       o<<<<< (aa) dot          0.00
                       o<<<<< (ab) str          0.00
                       o<<<<< (ab) gath         0.00
                       o<<<<< (ab) dotab        0.00
                       o<<<<< (ab) scat         0.00
                       o<<<<< (ab) sync         0.00
                       o<<<<< Density           0.01
                       o<<<<< Density one       0.00
                       o<<<<< Density two       0.00
                       o<<<<< Density ab        0.01
                       o<<<<< Spin adapt        0.19
                       o<<<<< Symm adapt        0.00

                       o<<<<< (ab) max sync:      0.00
       1.0000    -100.09511407 -1.58D-07 -1.58D-07  3.35D-07 3.2D-01      3.2

          Number of sigma calls:       11
                       o<<<<< (aa):             0.00
                       o<<<<< (bb):             0.00
                       o<<<<< (ab):             0.11
                       o<<<<< (total)           0.11
                       o<<<<< (aa) ff           0.00
                       o<<<<< (aa) gop          0.00
                       o<<<<< (aa) dot          0.00
                       o<<<<< (ab) str          0.00
                       o<<<<< (ab) gath         0.00
                       o<<<<< (ab) dotab        0.00
                       o<<<<< (ab) scat         0.00
                       o<<<<< (ab) sync         0.00
                       o<<<<< Density           0.02
                       o<<<<< Density one       0.00
                       o<<<<< Density two       0.00
                       o<<<<< Density ab        0.02
                       o<<<<< Spin adapt        0.14
                       o<<<<< Symm adapt        0.00

                       o<<<<< (ab) max sync:      0.00
       1.4709    -100.09511411 -8.81D-11 -8.40D-11  3.34D-07 1.8D-04      3.5



          %%%%% MacroIteration   4 %%%%%


          Number of sigma calls:        1
                       o<<<<< (aa):             0.00
                       o<<<<< (bb):             0.00
                       o<<<<< (ab):             0.01
                       o<<<<< (total)           0.01
                       o<<<<< (aa) ff           0.00
                       o<<<<< (aa) gop          0.00
                       o<<<<< (aa) dot          0.00
                       o<<<<< (ab) str          0.00
                       o<<<<< (ab) gath         0.00
                       o<<<<< (ab) dotab        0.00
                       o<<<<< (ab) scat         0.00
                       o<<<<< (ab) sync         0.00
                       o<<<<< Density           0.01
                       o<<<<< Density one       0.00
                       o<<<<< Density two       0.00
                       o<<<<< Density ab        0.01
                       o<<<<< Spin adapt        0.00
                       o<<<<< Symm adapt        0.00

                       o<<<<< (ab) max sync:      0.00

           >>>| Valence CI:           -105.867119880945
           >>>| MCSCF energy:         -100.095114108940
           >>>| Gradient norm:          0.630266387D-03
     --- Warning:   46 Hessian diagonals < 0.05 ---

                              ----- Line search ------

        step       energy         lsg     num-lsg   num-lsh   lsrat    time
      ------- ---------------- --------- --------- --------- ------- --------
       0.0000    -100.09511411 -1.20D-07  0.00D+00  0.00D+00 0.0D+00      3.7

          Number of sigma calls:       11
                       o<<<<< (aa):             0.00
                       o<<<<< (bb):             0.00
                       o<<<<< (ab):             0.10
                       o<<<<< (total)           0.10
                       o<<<<< (aa) ff           0.00
                       o<<<<< (aa) gop          0.00
                       o<<<<< (aa) dot          0.00
                       o<<<<< (ab) str          0.00
                       o<<<<< (ab) gath         0.00
                       o<<<<< (ab) dotab        0.00
                       o<<<<< (ab) scat         0.00
                       o<<<<< (ab) sync         0.00
                       o<<<<< Density           0.02
                       o<<<<< Density one       0.00
                       o<<<<< Density two       0.01
                       o<<<<< Density ab        0.01
                       o<<<<< Spin adapt        0.16
                       o<<<<< Symm adapt        0.00

                       o<<<<< (ab) max sync:      0.00
       1.0000    -100.09511419 -5.17D-08 -5.17D-08  6.79D-08 4.3D-01      4.1

          Number of sigma calls:       11
                       o<<<<< (aa):             0.01
                       o<<<<< (bb):             0.00
                       o<<<<< (ab):             0.10
                       o<<<<< (total)           0.11
                       o<<<<< (aa) ff           0.00
                       o<<<<< (aa) gop          0.00
                       o<<<<< (aa) dot          0.00
                       o<<<<< (ab) str          0.00
                       o<<<<< (ab) gath         0.00
                       o<<<<< (ab) dotab        0.00
                       o<<<<< (ab) scat         0.00
                       o<<<<< (ab) sync         0.00
                       o<<<<< Density           0.00
                       o<<<<< Density one       0.00
                       o<<<<< Density two       0.00
                       o<<<<< Density ab        0.00
                       o<<<<< Spin adapt        0.22
                       o<<<<< Symm adapt        0.00

                       o<<<<< (ab) max sync:      0.00
       1.7608    -100.09511421 -5.63D-13 -1.51D-13  6.79D-08 4.7D-06      4.5



          %%%%% MacroIteration   5 %%%%%


          Number of sigma calls:        1
                       o<<<<< (aa):             0.00
                       o<<<<< (bb):             0.00
                       o<<<<< (ab):             0.01
                       o<<<<< (total)           0.01
                       o<<<<< (aa) ff           0.00
                       o<<<<< (aa) gop          0.00
                       o<<<<< (aa) dot          0.00
                       o<<<<< (ab) str          0.00
                       o<<<<< (ab) gath         0.00
                       o<<<<< (ab) dotab        0.00
                       o<<<<< (ab) scat         0.00
                       o<<<<< (ab) sync         0.00
                       o<<<<< Density           0.03
                       o<<<<< Density one       0.01
                       o<<<<< Density two       0.00
                       o<<<<< Density ab        0.02
                       o<<<<< Spin adapt        0.00
                       o<<<<< Symm adapt        0.00

                       o<<<<< (ab) max sync:      0.00

           >>>| Valence CI:           -105.867119986283
           >>>| MCSCF energy:         -100.095114214277
           >>>| Gradient norm:          0.199553560D-03
     --- Warning:   46 Hessian diagonals < 0.05 ---

                              ----- Line search ------

        step       energy         lsg     num-lsg   num-lsh   lsrat    time
      ------- ---------------- --------- --------- --------- ------- --------
       0.0000    -100.09511421 -1.76D-08  0.00D+00  0.00D+00 0.0D+00      4.6

          Number of sigma calls:       10
                       o<<<<< (aa):             0.00
                       o<<<<< (bb):             0.00
                       o<<<<< (ab):             0.06
                       o<<<<< (total)           0.06
                       o<<<<< (aa) ff           0.00
                       o<<<<< (aa) gop          0.00
                       o<<<<< (aa) dot          0.00
                       o<<<<< (ab) str          0.00
                       o<<<<< (ab) gath         0.00
                       o<<<<< (ab) dotab        0.00
                       o<<<<< (ab) scat         0.00
                       o<<<<< (ab) sync         0.00
                       o<<<<< Density           0.02
                       o<<<<< Density one       0.00
                       o<<<<< Density two       0.01
                       o<<<<< Density ab        0.01
                       o<<<<< Spin adapt        0.16
                       o<<<<< Symm adapt        0.00

                       o<<<<< (ab) max sync:      0.00
       1.0000    -100.09511423 -6.58D-09 -6.58D-09  1.11D-08 3.7D-01      4.9

          Number of sigma calls:       10
                       o<<<<< (aa):             0.00
                       o<<<<< (bb):             0.01
                       o<<<<< (ab):             0.08
                       o<<<<< (total)           0.09
                       o<<<<< (aa) ff           0.00
                       o<<<<< (aa) gop          0.00
                       o<<<<< (aa) dot          0.00
                       o<<<<< (ab) str          0.00
                       o<<<<< (ab) gath         0.00
                       o<<<<< (ab) dotab        0.00
                       o<<<<< (ab) scat         0.00
                       o<<<<< (ab) sync         0.00
                       o<<<<< Density           0.02
                       o<<<<< Density one       0.01
                       o<<<<< Density two       0.00
                       o<<<<< Density ab        0.01
                       o<<<<< Spin adapt        0.21
                       o<<<<< Symm adapt        0.00

                       o<<<<< (ab) max sync:      0.00
       1.5949    -100.09511423  4.84D-12  4.01D-12  1.11D-08 2.7D-04      5.3



          %%%%% MacroIteration   6 %%%%%


          Number of sigma calls:        1
                       o<<<<< (aa):             0.00
                       o<<<<< (bb):             0.00
                       o<<<<< (ab):             0.01
                       o<<<<< (total)           0.01
                       o<<<<< (aa) ff           0.00
                       o<<<<< (aa) gop          0.00
                       o<<<<< (aa) dot          0.00
                       o<<<<< (ab) str          0.00
                       o<<<<< (ab) gath         0.00
                       o<<<<< (ab) dotab        0.00
                       o<<<<< (ab) scat         0.00
                       o<<<<< (ab) sync         0.00
                       o<<<<< Density           0.01
                       o<<<<< Density one       0.00
                       o<<<<< Density two       0.00
                       o<<<<< Density ab        0.01
                       o<<<<< Spin adapt        0.00
                       o<<<<< Symm adapt        0.00

                       o<<<<< (ab) max sync:      0.00

           >>>| Valence CI:           -105.867120000342
           >>>| MCSCF energy:         -100.095114228336
           >>>| Gradient norm:          0.721719316D-04




     ==============================
            MCSCF Converged
     ==============================



          Canonical Eigenvalues

              1      
    1  -26.2835
    2   -1.6418
    3   -0.8199
    4   -0.6573
    5   -0.6573
    6   -0.0213
    7   -0.0086
    8   -0.0040
    9    0.3842
   10    0.8891
   11    0.8891
   12    0.9684
   13    0.9684
   14    1.2037
   15    1.4822
   16    2.2177
   17    2.2177
   18    2.5921
   19    2.5921
   20    2.7257
   21    3.6070
   22    3.6070
   23    3.8508
   24    3.8508
   25    4.2328
   26    4.4447
   27    4.4447
   28    5.4090
   29    5.4166
   30    5.4166
   31    5.9003
   32    7.3969
   33    7.3969
   34    7.7041
   35    7.7041
   36    8.1662
   37    8.8097
   38    8.8097
   39    8.9083
   40    8.9083
   41    9.3532
   42    9.3532
   43    9.3542
   44   13.3770


          Converged CI vector

   Index           Coefficient          Config. Occupation
         1          0.99344756          1  2  3  4  5  1  2  3  4  5
         4         -0.02667555          1  2  3  4  5  1  2  4  5  6
       169         -0.02667555          1  2  4  5  6  1  2  3  4  5
       172         -0.06568735          1  2  4  5  6  1  2  4  5  6
       173          0.02531714          1  2  4  5  6  1  3  4  5  6
       178          0.02201238          1  2  4  5  6  1  3  4  5  7
       457         -0.02155770          1  2  4  5  7  1  2  4  5  7
      1312         -0.02158335          1  2  4  5  8  1  2  4  5  8
       228          0.02531714          1  3  4  5  6  1  2  4  5  6
       229         -0.02266176          1  3  4  5  6  1  3  4  5  6
       508          0.02201238          1  3  4  5  7  1  2  4  5  6

          Number of sigma calls:        1
                       o<<<<< (aa):             0.00
                       o<<<<< (bb):             0.00
                       o<<<<< (ab):             0.01
                       o<<<<< (total)           0.01
                       o<<<<< (aa) ff           0.00
                       o<<<<< (aa) gop          0.00
                       o<<<<< (aa) dot          0.00
                       o<<<<< (ab) str          0.00
                       o<<<<< (ab) gath         0.00
                       o<<<<< (ab) dotab        0.00
                       o<<<<< (ab) scat         0.00
                       o<<<<< (ab) sync         0.00
                       o<<<<< Density           0.01
                       o<<<<< Density one       0.01
                       o<<<<< Density two       0.00
                       o<<<<< Density ab        0.00
                       o<<<<< Spin adapt        0.00
                       o<<<<< Symm adapt        0.00

                       o<<<<< (ab) max sync:      0.00



          Natural orbital occupation numbers

              1      
    1    2.0000
    2    1.9994
    3    1.9994
    4    1.9953
    5    1.9837
    6    0.0156
    7    0.0048
    8    0.0019


          Number of sigma calls:       19
                       o<<<<< (aa):             0.00
                       o<<<<< (bb):             0.00
                       o<<<<< (ab):             0.13
                       o<<<<< (total)           0.14
                       o<<<<< (aa) ff           0.00
                       o<<<<< (aa) gop          0.00
                       o<<<<< (aa) dot          0.00
                       o<<<<< (ab) str          0.00
                       o<<<<< (ab) gath         0.00
                       o<<<<< (ab) dotab        0.00
                       o<<<<< (ab) scat         0.00
                       o<<<<< (ab) sync         0.00
                       o<<<<< Density           0.01
                       o<<<<< Density one       0.00
                       o<<<<< Density two       0.00
                       o<<<<< Density ab        0.01
                       o<<<<< Spin adapt        0.23
                       o<<<<< Symm adapt        0.00

                       o<<<<< (ab) max sync:      0.00


       Final MCSCF results 
       ------------------- 

       Total MCSCF energy =   -100.095114228336
            Gradient norm =      7.2D-05

    CPU time for solution =      5.8s
   Wall time for solution =     10.1s



                        Analysis of MCSCF natural orbitals
                        ----------------------------------

 Vector    1  Occ=1.999969D+00  E=-2.628350D+01  Symmetry=a
              MO Center=  1.7D-13, -8.2D-02,  1.1D-13, r^2= 1.2D-02
   Bfn.  Coefficient  Atom+Function         Bfn.  Coefficient  Atom+Function  
  ----- ------------  ---------------      ----- ------------  ---------------
     1      0.975578  1 F  s          

 Vector    2  Occ=1.999356D+00  E=-1.641809D+00  Symmetry=a
              MO Center= -8.4D-18, -5.8D-02, -2.0D-15, r^2= 4.6D-01
   Bfn.  Coefficient  Atom+Function         Bfn.  Coefficient  Atom+Function  
  ----- ------------  ---------------      ----- ------------  ---------------
    10      0.466703  1 F  pz                 7      0.381899  1 F  pz         
    13      0.346174  1 F  pz         

 Vector    3  Occ=1.999356D+00  E=-8.199111D-01  Symmetry=a
              MO Center= -1.6D-13, -5.8D-02,  7.0D-16, r^2= 4.6D-01
   Bfn.  Coefficient  Atom+Function         Bfn.  Coefficient  Atom+Function  
  ----- ------------  ---------------      ----- ------------  ---------------
     8      0.466703  1 F  px                 5      0.381899  1 F  px         
    11      0.346174  1 F  px         

 Vector    4  Occ=1.995305D+00  E=-6.573457D-01  Symmetry=a
              MO Center=  4.8D-14, -1.5D-01, -3.2D-14, r^2= 3.5D-01
   Bfn.  Coefficient  Atom+Function         Bfn.  Coefficient  Atom+Function  
  ----- ------------  ---------------      ----- ------------  ---------------
     2      0.555779  1 F  s                  4      0.367650  1 F  s          
     3      0.162751  1 F  s          

 Vector    5  Occ=1.983673D+00  E=-6.573457D-01  Symmetry=a
              MO Center= -4.9D-14,  1.6D-01, -4.6D-14, r^2= 4.9D-01
   Bfn.  Coefficient  Atom+Function         Bfn.  Coefficient  Atom+Function  
  ----- ------------  ---------------      ----- ------------  ---------------
     9      0.386563  1 F  py                 6      0.330655  1 F  py         
    32      0.243189  2 H  s                 12      0.206864  1 F  py         
    31      0.200931  2 H  s                  4     -0.159140  1 F  s          

 Vector    6  Occ=1.556491D-02  E=-2.131581D-02  Symmetry=a
              MO Center= -2.0D-16,  4.2D-01,  2.3D-15, r^2= 5.2D-01
   Bfn.  Coefficient  Atom+Function         Bfn.  Coefficient  Atom+Function  
  ----- ------------  ---------------      ----- ------------  ---------------
    32      0.694864  2 H  s                  6     -0.565274  1 F  py         
    31      0.449409  2 H  s                  4     -0.446521  1 F  s          
     9     -0.404341  1 F  py                 2     -0.186201  1 F  s          

 Vector    7  Occ=4.836337D-03  E=-8.593755D-03  Symmetry=a
              MO Center= -1.1D-14, -3.5D-01, -2.5D-14, r^2= 6.8D-01
   Bfn.  Coefficient  Atom+Function         Bfn.  Coefficient  Atom+Function  
  ----- ------------  ---------------      ----- ------------  ---------------
     4      1.139483  1 F  s                  3     -0.839044  1 F  s          
     2     -0.615988  1 F  s                 12     -0.303264  1 F  py         
     6      0.217838  1 F  py         

 Vector    8  Occ=1.939880D-03  E=-3.975594D-03  Symmetry=a
              MO Center=  4.1D-15, -1.0D-01, -5.3D-15, r^2= 4.5D-01
   Bfn.  Coefficient  Atom+Function         Bfn.  Coefficient  Atom+Function  
  ----- ------------  ---------------      ----- ------------  ---------------
    23      0.464190  1 F  d  2              18      0.367147  1 F  d  2       
     9      0.274913  1 F  py                21      0.267999  1 F  d  0       
    12      0.245150  1 F  py                 6     -0.240689  1 F  py         
    16      0.211972  1 F  d  0               4      0.205661  1 F  s          
    35      0.178644  2 H  py                31     -0.152271  2 H  s          

 Vector    9  Occ=0.000000D+00  E= 3.842241D-01  Symmetry=a
              MO Center=  9.5D-16,  1.1D+00,  2.3D-15, r^2= 3.5D+00
   Bfn.  Coefficient  Atom+Function         Bfn.  Coefficient  Atom+Function  
  ----- ------------  ---------------      ----- ------------  ---------------
    33     -1.856958  2 H  s                  4      1.815882  1 F  s          
    38      0.475436  2 H  py                12      0.467494  1 F  py         
     2     -0.365998  1 F  s                  1     -0.159814  1 F  s          

 Vector   10  Occ=0.000000D+00  E= 8.891081D-01  Symmetry=a
              MO Center=  1.6D-15,  6.9D-01,  1.5D-16, r^2= 1.0D+00
   Bfn.  Coefficient  Atom+Function         Bfn.  Coefficient  Atom+Function  
  ----- ------------  ---------------      ----- ------------  ---------------
    37      1.038266  2 H  px                 8     -0.513531  1 F  px         
     5     -0.188948  1 F  px         

 Vector   11  Occ=0.000000D+00  E= 8.891081D-01  Symmetry=a
              MO Center=  2.3D-16,  6.9D-01,  1.9D-16, r^2= 1.0D+00
   Bfn.  Coefficient  Atom+Function         Bfn.  Coefficient  Atom+Function  
  ----- ------------  ---------------      ----- ------------  ---------------
    39      1.038266  2 H  pz                10     -0.513531  1 F  pz         
     7     -0.188948  1 F  pz         

 Vector   12  Occ=0.000000D+00  E= 9.683802D-01  Symmetry=a
              MO Center= -9.2D-18, -1.7D-01,  4.6D-16, r^2= 1.6D+00
   Bfn.  Coefficient  Atom+Function         Bfn.  Coefficient  Atom+Function  
  ----- ------------  ---------------      ----- ------------  ---------------
    11      1.505760  1 F  px                37     -0.983019  2 H  px         
     8     -0.504170  1 F  px                 5     -0.175560  1 F  px         

 Vector   13  Occ=0.000000D+00  E= 9.683802D-01  Symmetry=a
              MO Center=  1.1D-16, -1.7D-01,  6.2D-15, r^2= 1.6D+00
   Bfn.  Coefficient  Atom+Function         Bfn.  Coefficient  Atom+Function  
  ----- ------------  ---------------      ----- ------------  ---------------
    13      1.505760  1 F  pz                39     -0.983019  2 H  pz         
    10     -0.504170  1 F  pz                 7     -0.175560  1 F  pz         

 Vector   14  Occ=0.000000D+00  E= 1.203663D+00  Symmetry=a
              MO Center= -1.6D-15,  3.8D-01, -4.5D-15, r^2= 2.1D+00
   Bfn.  Coefficient  Atom+Function         Bfn.  Coefficient  Atom+Function  
  ----- ------------  ---------------      ----- ------------  ---------------
    32      3.925352  2 H  s                  4     -2.803491  1 F  s          
    12     -2.339113  1 F  py                23      0.527694  1 F  d  2       
    33     -0.485743  2 H  s                  2      0.313969  1 F  s          
    21      0.304664  1 F  d  0              35     -0.301023  2 H  py         

 Vector   15  Occ=0.000000D+00  E= 1.482236D+00  Symmetry=a
              MO Center= -1.7D-15,  2.4D-02, -3.8D-15, r^2= 2.5D+00
   Bfn.  Coefficient  Atom+Function         Bfn.  Coefficient  Atom+Function  
  ----- ------------  ---------------      ----- ------------  ---------------
     4      8.990721  1 F  s                 32     -8.920753  2 H  s          
    38      4.706850  2 H  py                12      4.249174  1 F  py         
     9      1.090941  1 F  py                23     -0.597568  1 F  d  2       
    33     -0.435438  2 H  s                 21     -0.345005  1 F  d  0       
    44      0.310962  2 H  d  2              42      0.179534  2 H  d  0       

 Vector   16  Occ=0.000000D+00  E= 2.217686D+00  Symmetry=a
              MO Center=  2.3D-16, -1.2D-02,  1.8D-15, r^2= 6.0D-01
   Bfn.  Coefficient  Atom+Function         Bfn.  Coefficient  Atom+Function  
  ----- ------------  ---------------      ----- ------------  ---------------
    21      0.812441  1 F  d  0              23     -0.469061  1 F  d  2       

 Vector   17  Occ=0.000000D+00  E= 2.217686D+00  Symmetry=a
              MO Center=  1.3D-16, -1.2D-02,  2.1D-15, r^2= 6.0D-01
   Bfn.  Coefficient  Atom+Function         Bfn.  Coefficient  Atom+Function  
  ----- ------------  ---------------      ----- ------------  ---------------
    22      0.938125  1 F  d  1              43      0.170217  2 H  d  1       

 Vector   18  Occ=0.000000D+00  E= 2.592131D+00  Symmetry=a
              MO Center=  1.9D-16,  6.3D-02,  2.7D-15, r^2= 8.2D-01
   Bfn.  Coefficient  Atom+Function         Bfn.  Coefficient  Atom+Function  
  ----- ------------  ---------------      ----- ------------  ---------------
    20      1.136229  1 F  d -1              39     -0.867635  2 H  pz         
    13      0.531789  1 F  pz                36      0.154616  2 H  pz         


 Wrote Lagrangian and 1- and 2-particle density matrices to ./HF.mcpdm


     Multipole analysis of the density
     ---------------------------------

     L   x y z        total        nuclear
     -   - - -        -----        -------
     0   0 0 0     -0.000000     10.000000

     1   1 0 0     -0.000000      0.000000
     1   0 1 0      0.673786      0.000000
     1   0 0 1     -0.000000      0.000000

     2   2 0 0     -4.056390      0.000000
     2   1 1 0     -0.000000      0.000000
     2   1 0 1     -0.000000      0.000000
     2   0 2 0     -2.798691      2.188135
     2   0 1 1     -0.000000      0.000000
     2   0 0 2     -4.056390      0.000000


  Mulliken analysis of the total density
  --------------------------------------

    Atom       Charge   Shell Charges
 -----------   ------   -------------------------------------------------------
    1 F    9     9.28   1.95  1.04  0.26  0.62  1.57  2.46  1.36  0.00  0.01  0.00
    2 H    1     0.72   0.30  0.29  0.01  0.03  0.08  0.01

    Mulliken analysis of the active space density
    ---------------------------------------------

    Atom       Charge   Shell Charges
 -----------   ------   -------------------------------------------------------
    1 F    9     9.28   1.95  1.04  0.26  0.62  1.57  2.46  1.36  0.00  0.01  0.00
    2 H    1     0.72   0.30  0.29  0.01  0.03  0.08  0.01

 Parallel integral file used       3 records with       0 large values


 Task  times  cpu:        5.9s     wall:       10.1s


                                NWChem Input Module
                                -------------------


                                 NWChem SCF Module
                                 -----------------


                                        HF



  ao basis        = "ao basis"
  functions       =    44
  atoms           =     2
  closed shells   =     5
  open shells     =     0
  charge          =   0.00
  wavefunction    = RHF 
  input vectors   = ./HF.mos
  output vectors  = ./HF-trash.mos
  use symmetry    = F
  symmetry adapt  = F


 Summary of "ao basis" -> "ao basis" (spherical)
 ------------------------------------------------------------------------------
       Tag                 Description            Shells   Functions and Types
 ---------------- ------------------------------  ------  ---------------------
 F                          cc-pVTZ                 10       30   4s3p2d1f
 H                          cc-pVTZ                  6       14   3s2p1d



 Forming initial guess at      10.1s


 Loading old vectors from job with title :

HF


 Starting SCF solution at      10.1s



 ----------------------------------------------
         Quadratically convergent ROHF

 Convergence threshold     :          1.000E-04
 Maximum no. of iterations :           30
 Final Fock-matrix accuracy:          1.000E-07
 ----------------------------------------------


 Integral file          = ./HF.aoints.0
 Record size in doubles =  65536        No. of integs per rec  =  43688
 Max. records in memory =     18        Max. records in file   = 280363
 No. of bits per label  =      8        No. of bits per value  =     64


 #quartets = 9.316D+03 #integrals = 1.251D+05 #direct =  0.0% #cached =100.0%



       Final RHF  results 
       ------------------ 

         Total SCF energy =   -100.049892018432
      One-electron energy =   -151.590238030251
      Two-electron energy =     45.768340239812
 Nuclear repulsion energy =      5.772005772006

        Time for solution =      0.1s


             Final eigenvalues
             -----------------

              1      
    1  -26.2835
    2   -1.6418
    3   -0.8199
    4   -0.6573
    5   -0.6573
    6   -0.0213
    7   -0.0086
    8   -0.0040
    9    0.3842
   10    0.8891
   11    0.8891
   12    0.9684
   13    0.9684
   14    1.2037
   15    1.4822

                       ROHF Final Molecular Orbital Analysis
                       -------------------------------------

 Vector    2  Occ=2.000000D+00  E=-1.641809D+00
              MO Center= -8.4D-18, -5.8D-02, -2.0D-15, r^2= 4.6D-01
   Bfn.  Coefficient  Atom+Function         Bfn.  Coefficient  Atom+Function  
  ----- ------------  ---------------      ----- ------------  ---------------
    10      0.466703  1 F  pz                 7      0.381899  1 F  pz         
    13      0.346174  1 F  pz         

 Vector    3  Occ=2.000000D+00  E=-8.199111D-01
              MO Center= -1.6D-13, -5.8D-02,  7.0D-16, r^2= 4.6D-01
   Bfn.  Coefficient  Atom+Function         Bfn.  Coefficient  Atom+Function  
  ----- ------------  ---------------      ----- ------------  ---------------
     8      0.466703  1 F  px                 5      0.381899  1 F  px         
    11      0.346174  1 F  px         

 Vector    4  Occ=2.000000D+00  E=-6.573457D-01
              MO Center=  4.8D-14, -1.5D-01, -3.2D-14, r^2= 3.5D-01
   Bfn.  Coefficient  Atom+Function         Bfn.  Coefficient  Atom+Function  
  ----- ------------  ---------------      ----- ------------  ---------------
     2      0.555779  1 F  s                  4      0.367650  1 F  s          
     3      0.162751  1 F  s          

 Vector    5  Occ=2.000000D+00  E=-6.573457D-01
              MO Center= -4.9D-14,  1.6D-01, -4.6D-14, r^2= 4.9D-01
   Bfn.  Coefficient  Atom+Function         Bfn.  Coefficient  Atom+Function  
  ----- ------------  ---------------      ----- ------------  ---------------
     9      0.386563  1 F  py                 6      0.330655  1 F  py         
    32      0.243189  2 H  s                 12      0.206864  1 F  py         
    31      0.200931  2 H  s                  4     -0.159140  1 F  s          

 Vector    6  Occ=0.000000D+00  E=-2.131581D-02
              MO Center= -2.0D-16,  4.2D-01,  2.3D-15, r^2= 5.2D-01
   Bfn.  Coefficient  Atom+Function         Bfn.  Coefficient  Atom+Function  
  ----- ------------  ---------------      ----- ------------  ---------------
    32      0.694864  2 H  s                  6     -0.565274  1 F  py         
    31      0.449409  2 H  s                  4     -0.446521  1 F  s          
     9     -0.404341  1 F  py                 2     -0.186201  1 F  s          

 Vector    7  Occ=0.000000D+00  E=-8.593755D-03
              MO Center= -1.1D-14, -3.5D-01, -2.5D-14, r^2= 6.8D-01
   Bfn.  Coefficient  Atom+Function         Bfn.  Coefficient  Atom+Function  
  ----- ------------  ---------------      ----- ------------  ---------------
     4      1.139483  1 F  s                  3     -0.839044  1 F  s          
     2     -0.615988  1 F  s                 12     -0.303264  1 F  py         
     6      0.217838  1 F  py         

 Vector    8  Occ=0.000000D+00  E=-3.975594D-03
              MO Center=  4.1D-15, -1.0D-01, -5.3D-15, r^2= 4.5D-01
   Bfn.  Coefficient  Atom+Function         Bfn.  Coefficient  Atom+Function  
  ----- ------------  ---------------      ----- ------------  ---------------
    23      0.464190  1 F  d  2              18      0.367147  1 F  d  2       
     9      0.274913  1 F  py                21      0.267999  1 F  d  0       
    12      0.245150  1 F  py                 6     -0.240689  1 F  py         
    16      0.211972  1 F  d  0               4      0.205661  1 F  s          
    35      0.178644  2 H  py                31     -0.152271  2 H  s          

 Vector    9  Occ=0.000000D+00  E= 3.842241D-01
              MO Center=  9.5D-16,  1.1D+00,  2.3D-15, r^2= 3.5D+00
   Bfn.  Coefficient  Atom+Function         Bfn.  Coefficient  Atom+Function  
  ----- ------------  ---------------      ----- ------------  ---------------
    33     -1.856958  2 H  s                  4      1.815882  1 F  s          
    38      0.475436  2 H  py                12      0.467494  1 F  py         
     2     -0.365998  1 F  s                  1     -0.159814  1 F  s          

 Vector   10  Occ=0.000000D+00  E= 8.891081D-01
              MO Center=  1.6D-15,  6.9D-01,  1.5D-16, r^2= 1.0D+00
   Bfn.  Coefficient  Atom+Function         Bfn.  Coefficient  Atom+Function  
  ----- ------------  ---------------      ----- ------------  ---------------
    37      1.038266  2 H  px                 8     -0.513531  1 F  px         
     5     -0.188948  1 F  px         

 Vector   11  Occ=0.000000D+00  E= 8.891081D-01
              MO Center=  2.3D-16,  6.9D-01,  1.9D-16, r^2= 1.0D+00
   Bfn.  Coefficient  Atom+Function         Bfn.  Coefficient  Atom+Function  
  ----- ------------  ---------------      ----- ------------  ---------------
    39      1.038266  2 H  pz                10     -0.513531  1 F  pz         
     7     -0.188948  1 F  pz         

 Vector   12  Occ=0.000000D+00  E= 9.683802D-01
              MO Center= -9.2D-18, -1.7D-01,  4.6D-16, r^2= 1.6D+00
   Bfn.  Coefficient  Atom+Function         Bfn.  Coefficient  Atom+Function  
  ----- ------------  ---------------      ----- ------------  ---------------
    11      1.505760  1 F  px                37     -0.983019  2 H  px         
     8     -0.504170  1 F  px                 5     -0.175560  1 F  px         

 Vector   13  Occ=0.000000D+00  E= 9.683802D-01
              MO Center=  1.1D-16, -1.7D-01,  6.2D-15, r^2= 1.6D+00
   Bfn.  Coefficient  Atom+Function         Bfn.  Coefficient  Atom+Function  
  ----- ------------  ---------------      ----- ------------  ---------------
    13      1.505760  1 F  pz                39     -0.983019  2 H  pz         
    10     -0.504170  1 F  pz                 7     -0.175560  1 F  pz         

 Vector   14  Occ=0.000000D+00  E= 1.203663D+00
              MO Center= -1.6D-15,  3.8D-01, -4.5D-15, r^2= 2.1D+00
   Bfn.  Coefficient  Atom+Function         Bfn.  Coefficient  Atom+Function  
  ----- ------------  ---------------      ----- ------------  ---------------
    32      3.925352  2 H  s                  4     -2.803491  1 F  s          
    12     -2.339113  1 F  py                23      0.527694  1 F  d  2       
    33     -0.485743  2 H  s                  2      0.313969  1 F  s          
    21      0.304664  1 F  d  0              35     -0.301023  2 H  py         

 Vector   15  Occ=0.000000D+00  E= 1.482236D+00
              MO Center= -1.7D-15,  2.4D-02, -3.8D-15, r^2= 2.5D+00
   Bfn.  Coefficient  Atom+Function         Bfn.  Coefficient  Atom+Function  
  ----- ------------  ---------------      ----- ------------  ---------------
     4      8.990721  1 F  s                 32     -8.920753  2 H  s          
    38      4.706850  2 H  py                12      4.249174  1 F  py         
     9      1.090941  1 F  py                23     -0.597568  1 F  d  2       
    33     -0.435438  2 H  s                 21     -0.345005  1 F  d  0       
    44      0.310962  2 H  d  2              42      0.179534  2 H  d  0       


 center of mass
 --------------
 x =   0.00000000 y =  -0.07737689 z =   0.00000000

 moments of inertia (a.u.)
 ------------------
           2.326850662499           0.000000000000           0.000000000000
           0.000000000000           0.000000000000           0.000000000000
           0.000000000000           0.000000000000           2.326850662499

  Mulliken analysis of the total density
  --------------------------------------

    Atom       Charge   Shell Charges
 -----------   ------   -------------------------------------------------------
    1 F    9     9.28   1.95  1.05  0.26  0.62  1.57  2.46  1.36  0.00  0.01  0.00
    2 H    1     0.72   0.29  0.29  0.01  0.03  0.08  0.01

       Multipole analysis of the density wrt the origin
       ------------------------------------------------

     L   x y z        total         open         nuclear
     -   - - -        -----         ----         -------
     0   0 0 0     -0.000000      0.000000     10.000000

     1   1 0 0     -0.000000      0.000000      0.000000
     1   0 1 0      0.679044      0.000000      0.000000
     1   0 0 1     -0.000000      0.000000      0.000000

     2   2 0 0     -4.054231      0.000000      0.000000
     2   1 1 0     -0.000000      0.000000      0.000000
     2   1 0 1     -0.000000      0.000000      0.000000
     2   0 2 0     -2.785933      0.000000      2.188135
     2   0 1 1     -0.000000      0.000000      0.000000
     2   0 0 2     -4.054231      0.000000      0.000000


 Parallel integral file used       3 records with       0 large values

 ------------------------------------
     Number of active orbitals      8
     Number of active alpha electrons      5
     Number of active beta electrons       5
 ------------------------------------
                   NWChem Extensible Many-Electron Theory Module
                   ---------------------------------------------

              ======================================================
                   This portion of the program was automatically
                  generated by a Tensor Contraction Engine (TCE).
                  The development of this portion of the program
                 and TCE was supported by US Department of Energy,
                Office of Science, Office of Basic Energy Science.
                      TCE is a product of Battelle and PNNL.
              Please cite: S.Hirata, J.Phys.Chem.A 107, 9887 (2003).
              ======================================================

                                        HF


            General Information
            -------------------
      Number of processors :     1
         Wavefunction type : Restricted Hartree-Fock
          No. of electrons :    10
           Alpha electrons :     5
            Beta electrons :     5
           No. of orbitals :    88
            Alpha orbitals :    44
             Beta orbitals :    44
        Alpha frozen cores :     0
         Beta frozen cores :     0
     Alpha frozen virtuals :    36
      Beta frozen virtuals :    36
         Spin multiplicity : singlet 
    Number of AO functions :    44
       Number of AO shells :    16
        Use of symmetry is : off
      Symmetry adaption is : off
         Schwarz screening : 0.10D-09

          Correlation Information
          -----------------------
          Calculation type : Coupled-cluster singles & doubles                           
   Perturbative correction : none                                                        
            Max iterations :      500
        Residual threshold : 0.10D-06
     T(0) DIIS level shift : 0.00D+00
     L(0) DIIS level shift : 0.00D+00
     T(1) DIIS level shift : 0.00D+00
     L(1) DIIS level shift : 0.00D+00
     T(R) DIIS level shift : 0.00D+00
     T(I) DIIS level shift : 0.00D+00
   CC-T/L Amplitude update :  5-th order DIIS
                I/O scheme : Global Array Library
        L-threshold :  0.10D-06
        EOM-threshold :  0.10D-06
 no EOMCCSD initial starts read in
 TCE RESTART OPTIONS
 READ_INT:   F
 WRITE_INT:  F
 READ_TA:    F
 WRITE_TA:   F
 READ_XA:    F
 WRITE_XA:   F
 READ_IN3:   F
 WRITE_IN3:  F
 SLICE:      F
 D4D5:       F
 quantumc:   T
 qrotation:  F
 pwtce:      F
 qducc:      F
 nacto:                         0
 nrotv:                         0
 nrot:                          0

            Memory Information
            ------------------
          Available GA space size is    1610610800 doubles
          Available MA space size is    1610610316 doubles

 Maximum block size supplied by input
 Maximum block size         1 doubles

 tile_dim =      1

 Block   Spin    Irrep     Size     Offset   Alpha
 -------------------------------------------------
   1    alpha     a      1 doubles       0       1
   2    alpha     a      1 doubles       1       2
   3    alpha     a      1 doubles       2       3
   4    alpha     a      1 doubles       3       4
   5    alpha     a      1 doubles       4       5
   6    beta      a      1 doubles       5       1
   7    beta      a      1 doubles       6       2
   8    beta      a      1 doubles       7       3
   9    beta      a      1 doubles       8       4
  10    beta      a      1 doubles       9       5
  11    alpha     a      1 doubles      10      11
  12    alpha     a      1 doubles      11      12
  13    alpha     a      1 doubles      12      13
  14    beta      a      1 doubles      13      11
  15    beta      a      1 doubles      14      12
  16    beta      a      1 doubles      15      13

 Global array virtual files algorithm will be used

 Parallel file system coherency ......... OK

 Integral file          = ./HF.aoints.0
 Record size in doubles =  65536        No. of integs per rec  =  43688
 Max. records in memory =     18        Max. records in file   = 280363
 No. of bits per label  =      8        No. of bits per value  =     64


 #quartets = 9.316D+03 #integrals = 1.251D+05 #direct =  0.0% #cached =100.0%


 Fock matrix recomputed
 1-e file size   =               64
 1-e file name   = ./HF.f1
 Cpu & wall time / sec            0.1            0.1
 4-electron integrals stored in orbital form

 v2    file size   =              666
 4-index algorithm nr.  13 is used
 imaxsize =       30
 imaxsize ichop =        0
 begin_one_electron_integrals
    1    1       -41.0471449699
    4    1         0.9489413929
    5    1         0.0389081143
    6    1        -0.1825222293
    7    1        -0.7704573967
    8    1         0.0076718117
    2    2        -8.5106777345
    3    3        -8.5106777505
    1    4         0.9489413929
    4    4        -9.4631208108
    5    4        -0.1491872341
    6    4         0.3555951694
    7    4         2.2651633188
    8    4         0.0106220000
    1    5         0.0389081143
    4    5        -0.1491872341
    5    5        -8.2634977494
    6    5         2.4390273034
    7    5        -0.5617939078
    8    5         0.8135957089
    1    6        -0.1825222293
    4    6         0.3555951694
    5    6         2.4390273034
    6    6        -7.0435903629
    7    6        -0.0771308765
    8    6        -0.1549538954
    1    7        -0.7704573967
    4    7         2.2651633188
    5    7        -0.5617939078
    6    7        -0.0771308765
    7    7        -5.9811817894
    8    7         0.0886763759
    1    8         0.0076718117
    4    8         0.0106220000
    5    8         0.8135957089
    6    8        -0.1549538954
    7    8         0.0886763759
    8    8        -5.1202978615
 end_one_electron_integrals
 begin_two_electron_integrals
    1    1    1    1        5.3415156677
    2    1    2    1        0.0394216514
    3    1    3    1        0.0394216517
    4    1    1    1       -0.5573619864
    4    1    4    1        0.0931060356
    4    1    2    2       -0.0180813271
    4    1    3    3       -0.0180813272
    5    1    1    1       -0.0209782029
    5    1    4    1       -0.0009934949
    5    1    5    1        0.0304272592
    5    1    2    2        0.0000082021
    5    1    3    3        0.0000082021
    5    1    4    4       -0.0092129219
    6    1    1    1        0.1473421631
    6    1    4    1       -0.0193904224
    6    1    5    1       -0.0432766020
    6    1    6    1        0.0666106155
    6    1    2    2        0.0014734120
    6    1    3    3        0.0014734106
    6    1    4    4        0.0160605256
    6    1    5    4       -0.0416230311
    6    1    5    5       -0.0080032873
    7    1    1    1        0.6125975158
    7    1    4    1       -0.1095481647
    7    1    5    1        0.0101561813
    7    1    6    1        0.0100213524
    7    1    7    1        0.1332271621
    7    1    2    2        0.0134875370
    7    1    3    3        0.0134875343
    7    1    4    4        0.0214949494
    7    1    5    4        0.0119826586
    7    1    6    4       -0.0148094574
    7    1    5    5        0.0117229378
    7    1    6    5       -0.0139732488
    7    1    6    6        0.0271301936
    8    1    1    1       -0.0000916094
    8    1    4    1        0.0020067625
    8    1    5    1       -0.0145443385
    8    1    6    1        0.0201835265
    8    1    7    1       -0.0062965482
    8    1    8    1        0.0098184476
    8    1    2    2        0.0039006790
    8    1    3    3        0.0039006985
    8    1    4    4        0.0026263087
    8    1    5    4       -0.0123494388
    8    1    6    4        0.0074521616
    8    1    7    4       -0.0021892753
    8    1    5    5       -0.0114791350
    8    1    6    5        0.0066643665
    8    1    7    5        0.0071420042
    8    1    6    6       -0.0143725848
    8    1    7    6       -0.0097549636
    8    1    7    7        0.0050763344
    2    2    1    1        1.2179013416
    2    2    2    2        0.8868193198
    3    2    3    2        0.0433389479
    4    2    2    1        0.0403564382
    4    2    4    2        0.1670405649
    5    2    2    1        0.0016691741
    5    2    4    2        0.0058276361
    5    2    5    2        0.0389824375
    6    2    2    1       -0.0103342994
    6    2    4    2       -0.0302726209
    6    2    5    2       -0.0189037613
    6    2    6    2        0.0280052770
    7    2    2    1       -0.0223069045
    7    2    4    2       -0.0259241771
    7    2    5    2        0.0011097964
    7    2    6    2        0.0074564686
    7    2    7    2        0.0468850589
    8    2    2    1        0.0171952768
    8    2    4    2        0.0725127074
    8    2    5    2        0.0029547493
    8    2    6    2       -0.0136892364
    8    2    7    2       -0.0076678510
    8    2    8    2        0.0531600740
    3    3    1    1        1.2179013450
    3    3    2    2        0.8001414257
    3    3    3    3        0.8868193232
    4    3    3    1        0.0403564384
    4    3    4    3        0.1670405657
    5    3    3    1        0.0016691742
    5    3    4    3        0.0058276362
    5    3    5    3        0.0389824374
    6    3    3    1       -0.0103343049
    6    3    4    3       -0.0302726445
    6    3    5    3       -0.0189037629
    6    3    6    3        0.0280052865
    7    3    3    1       -0.0223069153
    7    3    4    3       -0.0259242220
    7    3    5    3        0.0011097939
    7    3    6    3        0.0074564801
    7    3    7    3        0.0468850693
    8    3    3    1        0.0171953513
    8    3    4    3        0.0725130135
    8    3    5    3        0.0029547684
    8    3    6    3       -0.0136893109
    8    3    7    3       -0.0076679120
    8    3    8    3        0.0531603715
    4    4    1    1        1.2814411370
    4    4    4    1       -0.0258083387
    4    4    2    2        0.8554593279
    4    4    3    3        0.8554593296
    4    4    4    4        0.9020913983
    5    4    1    1       -0.0344239617
    5    4    4    1       -0.0034149634
    5    4    5    1        0.0333258371
    5    4    2    2       -0.0052697939
    5    4    3    3       -0.0052697938
    5    4    4    4       -0.0452203985
    5    4    5    4        0.1559893546
    6    4    1    1       -0.0835898134
    6    4    4    1        0.0080807371
    6    4    5    1       -0.0237182315
    6    4    6    1        0.0299929387
    6    4    2    2       -0.0417682458
    6    4    3    3       -0.0417682564
    6    4    4    4       -0.0161711399
    6    4    5    4       -0.0629365137
    6    4    6    4        0.0621626182
    6    4    5    5       -0.0179556620
    7    4    1    1       -0.5846430821
    7    4    4    1        0.0315070046
    7    4    5    1        0.0092844346
    7    4    6    1       -0.0183649497
    7    4    7    1       -0.0283135950
    7    4    2    2       -0.1873690387
    7    4    3    3       -0.1873690594
    7    4    4    4       -0.2041088599
    7    4    5    4        0.0193287222
    7    4    6    4        0.0031416108
    7    4    7    4        0.1396018794
    7    4    5    5       -0.1639490053
    7    4    6    5        0.1288561627
    7    4    6    6       -0.1801458249
    8    4    1    1        0.0077135170
    8    4    4    1       -0.0008595064
    8    4    5    1       -0.0008986041
    8    4    6    1        0.0002713487
    8    4    7    1        0.0015232203
    8    4    8    1        0.0084726680
    8    4    2    2        0.0307167533
    8    4    3    3        0.0307168902
    8    4    4    4       -0.0089782205
    8    4    5    4        0.0121902990
    8    4    6    4       -0.0197796697
    8    4    7    4        0.0006015997
    8    4    8    4        0.0810407866
    8    4    5    5       -0.0610933958
    8    4    6    5        0.0203692362
    8    4    7    5        0.0026391217
    8    4    6    6       -0.0393472840
    8    4    7    6        0.0061484173
    8    4    7    7       -0.0191953073
    5    5    1    1        1.0950009336
    5    5    4    1       -0.0150014566
    5    5    5    1        0.0091441388
    5    5    2    2        0.7550154145
    5    5    3    3        0.7550154156
    5    5    4    4        0.7988245372
    5    5    5    4        0.0603510455
    5    5    5    5        0.8499555120
    6    5    1    1       -0.5569213044
    6    5    4    1        0.0189362937
    6    5    5    1        0.0002131850
    6    5    6    1       -0.0026675204
    6    5    2    2       -0.2117288014
    6    5    3    3       -0.2117288026
    6    5    4    4       -0.2362292768
    6    5    5    4        0.0514459223
    6    5    6    4        0.0337606638
    6    5    5    5       -0.1481638961
    6    5    6    5        0.2282775829
    7    5    1    1        0.1291485447
    7    5    4    1       -0.0021066497
    7    5    5    1       -0.0208987793
    7    5    6    1        0.0287415150
    7    5    7    1       -0.0050572625
    7    5    2    2        0.0431846901
    7    5    3    3        0.0431846896
    7    5    4    4        0.0555101837
    7    5    5    4       -0.0269291004
    7    5    6    4        0.0406497305
    7    5    7    4       -0.0471940369
    7    5    5    5        0.0524768507
    7    5    6    5       -0.0046245624
    7    5    7    5        0.0560292102
    7    5    6    6        0.0633018540
    8    5    1    1       -0.1704131681
    8    5    4    1        0.0101373085
    8    5    5    1       -0.0283215556
    8    5    6    1        0.0341194180
    8    5    7    1       -0.0155797544
    8    5    8    1        0.0135499467
    8    5    2    2       -0.0645841999
    8    5    3    3       -0.0645841938
    8    5    4    4       -0.0414424328
    8    5    5    4       -0.1286449862
    8    5    6    4        0.0566488550
    8    5    7    4        0.0288703139
    8    5    8    4        0.0003700688
    8    5    5    5       -0.1303024766
    8    5    6    5        0.0072265876
    8    5    7    5        0.0120520536
    8    5    8    5        0.1537859698
    8    5    6    6       -0.1445266513
    8    5    7    6       -0.0757395319
    8    5    7    7       -0.0032510285
    6    6    1    1        1.2169982212
    6    6    4    1       -0.0300553109
    6    6    5    1        0.0146702847
    6    6    6    1       -0.0124479297
    6    6    2    2        0.7333975132
    6    6    3    3        0.7333975192
    6    6    4    4        0.7582016814
    6    6    5    4        0.0827728948
    6    6    6    4       -0.0216618037
    6    6    5    5        0.8324428669
    6    6    6    5       -0.1220694127
    6    6    6    6        0.8854170939
    7    6    1    1       -0.0230853649
    7    6    4    1       -0.0045938920
    7    6    5    1        0.0295764617
    7    6    6    1       -0.0380361152
    7    6    7    1        0.0140677713
    7    6    2    2        0.0031590865
    7    6    3    3        0.0031590918
    7    6    4    4       -0.0213450562
    7    6    5    4        0.0954061515
    7    6    6    4       -0.0458056744
    7    6    7    4        0.0192770458
    7    6    5    5        0.0391143392
    7    6    6    5        0.0390750522
    7    6    7    5       -0.0301112157
    7    6    6    6        0.0578658403
    7    6    7    6        0.0740810142
    8    6    1    1        0.1002717923
    8    6    4    1       -0.0112729509
    8    6    5    1        0.0218432957
    8    6    6    1       -0.0266059396
    8    6    7    1        0.0157566338
    8    6    8    1       -0.0120128181
    8    6    2    2       -0.0003166008
    8    6    3    3       -0.0003166409
    8    6    4    4       -0.0170191093
    8    6    5    4        0.0580376958
    8    6    6    4       -0.0440923466
    8    6    7    4       -0.0076411615
    8    6    8    4       -0.0014562121
    8    6    5    5        0.0169189406
    8    6    6    5       -0.0283320937
    8    6    7    5       -0.0275394310
    8    6    8    5       -0.0655540719
    8    6    6    6        0.0344520345
    8    6    7    6        0.0380015537
    8    6    8    6        0.0608961368
    8    6    7    7       -0.0186411838
    7    7    1    1        1.2386516893
    7    7    4    1       -0.0397361434
    7    7    5    1       -0.0203130910
    7    7    6    1        0.0341951186
    7    7    7    1        0.0337558949
    7    7    2    2        0.7287360166
    7    7    3    3        0.7287360214
    7    7    4    4        0.7749356464
    7    7    5    4       -0.0777089812
    7    7    6    4        0.0054315548
    7    7    7    4       -0.1693702058
    7    7    5    5        0.6793217550
    7    7    6    5       -0.2064443876
    7    7    7    5        0.0506470445
    7    7    6    6        0.6538450211
    7    7    7    6       -0.0511802034
    7    7    7    7        0.7251691301
    8    7    1    1       -0.0116722802
    8    7    4    1        0.0017503843
    8    7    5    1        0.0041714444
    8    7    6    1       -0.0050219104
    8    7    7    1       -0.0014732836
    8    7    8    1       -0.0058228485
    8    7    2    2        0.0023253571
    8    7    3    3        0.0023253286
    8    7    4    4        0.0010959833
    8    7    5    4        0.0223918698
    8    7    6    4       -0.0048898214
    8    7    7    4       -0.0070945563
    8    7    8    4       -0.0036184988
    8    7    5    5        0.0202177134
    8    7    6    5       -0.0126772438
    8    7    7    5        0.0084819258
    8    7    8    5       -0.0232112316
    8    7    6    6        0.0255149759
    8    7    7    6        0.0068335178
    8    7    8    6        0.0122992331
    8    7    7    7       -0.0088233022
    8    7    8    7        0.0316932868
    8    8    1    1        1.0659736619
    8    8    4    1       -0.0088428079
    8    8    5    1        0.0090583674
    8    8    6    1       -0.0108063558
    8    8    7    1        0.0067117396
    8    8    8    1       -0.0097701706
    8    8    2    2        0.7848839438
    8    8    3    3        0.7848841156
    8    8    4    4        0.8367959729
    8    8    5    4        0.0064729649
    8    8    6    4       -0.0285662616
    8    8    7    4       -0.1592966600
    8    8    8    4       -0.0574913887
    8    8    5    5        0.8137257111
    8    8    6    5       -0.2055456262
    8    8    7    5        0.0274996193
    8    8    8    5       -0.0825722935
    8    8    6    6        0.7617558612
    8    8    7    6        0.0141690561
    8    8    8    6        0.0064270727
    8    8    7    7        0.7123566378
    8    8    8    7        0.0100435176
    8    8    8    8        0.8571995580
 end_two_electron_integrals
 enrep_tce =    5.7720057720057687     
  EHF(A)             =      -100.04989202
  EHF(total)         =      -100.04989202
  Shift (HFtot-HFA)  =         0.00000000
 Cpu & wall time / sec            0.8            0.9
 T1-number-of-tasks                   15

 t1 file size   =               15
 t1 file name   = ./HF.t1
 t1 file handle =       -998
 T2-number-of-boxes                  315

 t2 file size   =              315
 t2 file name   = ./HF.t2
 t2 file handle =       -996
CCSD iterations
 ---------------------------------------------------------
 Iter          Residuum       Correlation     Cpu    Wall 
 ---------------------------------------------------------
NEW TASK SCHEDULING
CCSD_T1_NTS --- OK
CCSD_T2_NTS --- OK
    1   1.2677211726765  -0.1482061215875     3.9     5.5
    2   4.6497325731953   0.2562822732586     3.9     5.5
    3  21.9082823300679  -0.9965792123729     4.0     5.5
    4  61.1224514739072   3.9311988498464     3.9     5.4
    5 438.6477143355590  -6.9207545759004     3.8     5.4
 MICROCYCLE DIIS UPDATE:                    5                    5
    6   0.4229533248886  -0.0544873790893     3.9     5.4
    7   2.1462209064908  -0.0033744907596     4.0     5.4
    8  11.3333886541439  -0.2456494350582     4.0     5.4
    9  51.5670118828150   0.9983973063509     3.9     5.4
   10 392.3528931211740  -3.9672084516463     4.1     5.4
 MICROCYCLE DIIS UPDATE:                   10                    5
   11   0.0343235835666  -0.0446712028920     3.9     5.5
   12   0.1754612173810  -0.0481254332670     3.8     5.5
   13   0.9082754197938  -0.0299434114724     4.2     5.5
   14   4.7715724213742  -0.1220510016250     4.0     5.5
   15  23.7278815795515   0.3529980044234     3.8     5.5
 MICROCYCLE DIIS UPDATE:                   15                    5
   16   0.0080746025377  -0.0450233682163     4.0     5.4
   17   0.0419029441421  -0.0459279837740     4.1     5.5
   18   0.2183346666778  -0.0415988301876     3.8     5.5
   19   1.1422081465360  -0.0630134040245     4.1     5.5
   20   5.9057627746613   0.0454182490356     3.9     5.5
 MICROCYCLE DIIS UPDATE:                   20                    5
   21   0.0008727344727  -0.0451757469817     3.9     5.5
   22   0.0045431982763  -0.0452568146473     3.8     5.5
   23   0.0237272002414  -0.0448312903993     4.0     5.5
   24   0.1240592762687  -0.0470240605875     4.0     5.5
   25   0.6481296107818  -0.0357452502227     3.9     5.5
 MICROCYCLE DIIS UPDATE:                   25                    5
   26   0.0000149142491  -0.0451880053796     4.0     5.5
   27   0.0000700848241  -0.0451893779361     3.8     5.5
   28   0.0003649860455  -0.0451830889329     4.0     5.5
   29   0.0019102079065  -0.0452154953163     3.8     5.5
   30   0.0100116434337  -0.0450479627443     4.0     5.5
 MICROCYCLE DIIS UPDATE:                   30                    5
   31   0.0000006691093  -0.0451883622250     3.9     5.5
   32   0.0000010759187  -0.0451882745796     4.0     5.5
   33   0.0000032911297  -0.0451884704655     3.9     5.5
   34   0.0000158948078  -0.0451879540655     4.0     5.5
   35   0.0000846583068  -0.0451895791296     3.9     5.5
 MICROCYCLE DIIS UPDATE:                   35                    5
   36   0.0000000713151  -0.0451883333663     4.0     5.5
 -----------------------------------------------------------------
 Iterations converged
 CCSD correlation energy / hartree =        -0.045188333366270
 CCSD total energy / hartree       =      -100.095080351798558

 Singles contributions

 Doubles contributions
     6a   (alpha)     6a   (beta ) ---     5a   (alpha)     5a   (beta )       -0.0776799357
     6a   (alpha)     7a   (beta ) ---     5a   (alpha)     4a   (beta )       -0.0276313425
     7a   (alpha)     6a   (beta ) ---     4a   (alpha)     5a   (beta )       -0.0276313425
     7a   (alpha)     7a   (beta ) ---     4a   (alpha)     4a   (beta )       -0.0233871260
     8a   (alpha)     8a   (beta ) ---     5a   (alpha)     5a   (beta )       -0.0217188195
 Ground state specification:
 exp(T)|Ref>~(1+T)|Ref>
 ------- a(p)+/a(q) strings ----------

 singles norm

 doubles norm

 Reference string
   1.0000000000000000      :(1a)+ (2a)+ (3a)+ (4a)+ (5a)+ (1b)+ (2b)+ (3b)+ (4b)+ (5b)+ |0>

 Singles strings

 Doubles strings
 -------------------------------------

 Parallel integral file used       3 records with       0 large values


 Task  times  cpu:      144.1s     wall:      200.3s


                                NWChem Input Module
                                -------------------


 Summary of allocated global arrays
-----------------------------------
  No active global arrays


MA_summarize_allocated_blocks: starting scan ...
MA_summarize_allocated_blocks: scan completed: 0 heap blocks, 0 stack blocks
MA usage statistics:

	allocation statistics:
					      heap	     stack
					      ----	     -----
	current number of blocks	         0	         0
	maximum number of blocks	        18	        42
	current total bytes		         0	         0
	maximum total bytes		   9520928	  26465432
	maximum total K-bytes		      9521	     26466
	maximum total M-bytes		        10	        27


                                     CITATION
                                     --------
                Please cite the following reference when publishing
                           results obtained with NWChem:

          E. Apra, E. J. Bylaska, W. A. de Jong, N. Govind, K. Kowalski,
       T. P. Straatsma, M. Valiev, H. J. J. van Dam, Y. Alexeev, J. Anchell,
       V. Anisimov, F. W. Aquino, R. Atta-Fynn, J. Autschbach, N. P. Bauman,
     J. C. Becca, D. E. Bernholdt, K. Bhaskaran-Nair, S. Bogatko, P. Borowski,
         J. Boschen, J. Brabec, A. Bruner, E. Cauet, Y. Chen, G. N. Chuev,
      C. J. Cramer, J. Daily, M. J. O. Deegan, T. H. Dunning Jr., M. Dupuis,
   K. G. Dyall, G. I. Fann, S. A. Fischer, A. Fonari, H. Fruchtl, L. Gagliardi,
      J. Garza, N. Gawande, S. Ghosh, K. Glaesemann, A. W. Gotz, J. Hammond,
       V. Helms, E. D. Hermes, K. Hirao, S. Hirata, M. Jacquelin, L. Jensen,
   B. G. Johnson, H. Jonsson, R. A. Kendall, M. Klemm, R. Kobayashi, V. Konkov,
      S. Krishnamoorthy, M. Krishnan, Z. Lin, R. D. Lins, R. J. Littlefield,
      A. J. Logsdail, K. Lopata, W. Ma, A. V. Marenich, J. Martin del Campo,
   D. Mejia-Rodriguez, J. E. Moore, J. M. Mullin, T. Nakajima, D. R. Nascimento,
    J. A. Nichols, P. J. Nichols, J. Nieplocha, A. Otero-de-la-Roza, B. Palmer,
    A. Panyala, T. Pirojsirikul, B. Peng, R. Peverati, J. Pittner, L. Pollack,
   R. M. Richard, P. Sadayappan, G. C. Schatz, W. A. Shelton, D. W. Silverstein,
   D. M. A. Smith, T. A. Soares, D. Song, M. Swart, H. L. Taylor, G. S. Thomas,
            V. Tipparaju, D. G. Truhlar, K. Tsemekhman, T. Van Voorhis,
      A. Vazquez-Mayagoitia, P. Verma, O. Villa, A. Vishnu, K. D. Vogiatzis,
        D. Wang, J. H. Weare, M. J. Williamson, T. L. Windus, K. Wolinski,
        A. T. Wong, Q. Wu, C. Yang, Q. Yu, M. Zacharias, Z. Zhang, Y. Zhao,
                                and R. J. Harrison
                        "NWChem: Past, present, and future
                         J. Chem. Phys. 152, 184102 (2020)
                               doi:10.1063/5.0004997

                                      AUTHORS
                                      -------
  E. Apra, E. J. Bylaska, N. Govind, K. Kowalski, M. Valiev, D. Mejia-Rodriguez,
       A. Kunitsa, N. P. Bauman, A. Panyala, W. A. de Jong, T. P. Straatsma,
        H. J. J. van Dam, D. Wang, T. L. Windus, J. Hammond, J. Autschbach,
    K. Bhaskaran-Nair, J. Brabec, K. Lopata, S. A. Fischer, S. Krishnamoorthy,
     M. Jacquelin, W. Ma, M. Klemm, O. Villa, Y. Chen, V. Anisimov, F. Aquino,
    S. Hirata, M. T. Hackler, Eric Hermes, L. Jensen, J. E. Moore, J. C. Becca,
      V. Konjkov, T. Risthaus, M. Malagoli, A. Marenich, A. Otero-de-la-Roza,
        J. Mullin, P. Nichols, R. Peverati, J. Pittner, Y. Zhao, P.-D. Fan,
        A. Fonari, M. J. Williamson, R. J. Harrison, J. R. Rehr, M. Dupuis,
     D. Silverstein, D. M. A. Smith, J. Nieplocha, V. Tipparaju, M. Krishnan,
     B. E. Van Kuiken, A. Vazquez-Mayagoitia, M. Swart, Q. Wu, T. Van Voorhis,
     A. A. Auer, M. Nooijen, L. D. Crosby, E. Brown, G. Cisneros, G. I. Fann,
   H. Fruchtl, J. Garza, K. Hirao, R. A. Kendall, J. A. Nichols, K. Tsemekhman,
    K. Wolinski, J. Anchell, D. E. Bernholdt, P. Borowski, T. Clark, D. Clerc,
   H. Dachsel, M. J. O. Deegan, K. Dyall, D. Elwood, E. Glendening, M. Gutowski,
   A. C. Hess, J. Jaffe, B. G. Johnson, J. Ju, R. Kobayashi, R. Kutteh, Z. Lin,
   R. Littlefield, X. Long, B. Meng, T. Nakajima, S. Niu, L. Pollack, M. Rosing,
   K. Glaesemann, G. Sandrone, M. Stave, H. Taylor, G. Thomas, J. H. van Lenthe,
                               A. T. Wong, Z. Zhang.

 Total times  cpu:      150.0s     wall:      210.5s
