 argument  1 = input.nw
  NWChem w/ OpenMP: maximum threads =    1



============================== echo of input deck ==============================
 echo
 start HF
 title "HF"

 memory total 24 gb

 geometry units bohr
 symmetry c1
        F  0.00000000  0.00000000  0.00000000
        H  0.00000000  1.749825  0.00000000
 end

 basis spherical
   * library cc-pVTZ
 end

 mcscf
   active  8
   actelec 10
   multiplicity 1
   maxiter 40
   vectors input HF.mos
   vectors output HF.mos
 end

 task mcscf

 scf
   vectors input HF.mos
   vectors output HF-trash.mos
   noscf
 end

 tce
   2eorb
   2emet 13
   ccsd
   maxiter 500
 end

 set tce:print_integrals T
 set tce:qorb 8
 set tce:qela 5
 set tce:qelb 5

# set tce:qducc T
# set tce:nactv 3
# set tce:nonhf T
# set tce:ducc_model 3

 set tce:printtol 0.02

 task tce
================================================================================


                                         
                                         


             Northwest Computational Chemistry Package (NWChem) 7.0.1
             --------------------------------------------------------


                    Environmental Molecular Sciences Laboratory
                       Pacific Northwest National Laboratory
                                Richland, WA 99352

                              Copyright (c) 1994-2020
                       Pacific Northwest National Laboratory
                            Battelle Memorial Institute

             NWChem is an open-source computational chemistry package
                        distributed under the terms of the
                      Educational Community License (ECL) 2.0
             A copy of the license is included with this distribution
                              in the LICENSE.TXT file

                                  ACKNOWLEDGMENT
                                  --------------

            This software and its documentation were developed at the
            EMSL at Pacific Northwest National Laboratory, a multiprogram
            national laboratory, operated for the U.S. Department of Energy
            by Battelle under Contract Number DE-AC05-76RL01830. Support
            for this work was provided by the Department of Energy Office
            of Biological and Environmental Research, Office of Basic
            Energy Sciences, and the Office of Advanced Scientific Computing.


           Job information
           ---------------

    hostname        = WE46210
    program         = /home/baum612/code/nwchem/bin/LINUX64/nwchem
    date            = Mon Nov  6 13:02:58 2023

    compiled        = Mon_Nov_06_10:06:57_2023
    source          = /home/baum612/code/nwchem
    nwchem branch   = 7.0.0
    nwchem revision = nwchem_on_git-4191-g39d87d64de
    ga revision     = 5.8.1
    use scalapack   = F
    input           = input.nw
    prefix          = HF.
    data base       = ./HF.db
    status          = startup
    nproc           =        1
    time left       =     -1s



           Memory information
           ------------------

    heap     =  805306362 doubles =   6144.0 Mbytes
    stack    =  805306367 doubles =   6144.0 Mbytes
    global   = 1610612736 doubles =  12288.0 Mbytes (distinct from heap & stack)
    total    = 3221225465 doubles =  24576.0 Mbytes
    verify   = yes
    hardfail = no 


           Directory information
           ---------------------

  0 permanent = .
  0 scratch   = .




                                NWChem Input Module
                                -------------------


                                        HF
                                        --
 Turning off AUTOSYM since
 SYMMETRY directive was detected!


          ------
          auto-z
          ------
  no constraints, skipping    0.0000000000000000     
  no constraints, skipping    0.0000000000000000     


                             Geometry "geometry" -> ""
                             -------------------------

 Output coordinates in a.u. (scale by  1.000000000 to convert to a.u.)

  No.       Tag          Charge          X              Y              Z
 ---- ---------------- ---------- -------------- -------------- --------------
    1 F                    9.0000     0.00000000    -0.17498250     0.00000000
    2 H                    1.0000     0.00000000     1.57484250     0.00000000

      Atomic Mass 
      ----------- 

      F                 18.998400
      H                  1.007825


 Effective nuclear repulsion energy (a.u.)       5.1433714800

            Nuclear Dipole moment (a.u.) 
            ----------------------------
        X                 Y               Z
 ---------------- ---------------- ----------------
     0.0000000000     0.0000000000     0.0000000000



                                Z-matrix (autoz)
                                -------- 

 Units are Angstrom for bonds and degrees for angles

      Type          Name      I     J     K     L     M      Value
      ----------- --------  ----- ----- ----- ----- ----- ----------
    1 Stretch                  1     2                       0.92597


            XYZ format geometry
            -------------------
     2
 geometry
 F                     0.00000000    -0.09259676     0.00000000
 H                     0.00000000     0.83337082     0.00000000

 ==============================================================================
                                internuclear distances
 ------------------------------------------------------------------------------
       center one      |      center two      | atomic units |       a.u.
 ------------------------------------------------------------------------------
    2 H                |   1 F                |     1.74983  |     1.74983
 ------------------------------------------------------------------------------
                         number of included internuclear distances:          1
 ==============================================================================





 Summary of "ao basis" -> "" (spherical)
 ------------------------------------------------------------------------------
       Tag                 Description            Shells   Functions and Types
 ---------------- ------------------------------  ------  ---------------------
 *                          cc-pVTZ                   on all atoms 


                      Basis "ao basis" -> "ao basis" (spherical)
                      -----
  F (Fluorine)
  ------------
            Exponent  Coefficients 
       -------------- ---------------------------------------------------------
  1 S  1.95000000E+04  0.000507
  1 S  2.92300000E+03  0.003923
  1 S  6.64500000E+02  0.020200
  1 S  1.87500000E+02  0.079010
  1 S  6.06200000E+01  0.230439
  1 S  2.14200000E+01  0.432872
  1 S  7.95000000E+00  0.349964
  1 S  8.81500000E-01 -0.007892

  2 S  1.95000000E+04 -0.000117
  2 S  2.92300000E+03 -0.000912
  2 S  6.64500000E+02 -0.004717
  2 S  1.87500000E+02 -0.019086
  2 S  6.06200000E+01 -0.059655
  2 S  2.14200000E+01 -0.140010
  2 S  7.95000000E+00 -0.176782
  2 S  8.81500000E-01  0.605043

  3 S  2.25700000E+00  1.000000

  4 S  3.04100000E-01  1.000000

  5 P  4.38800000E+01  0.016665
  5 P  9.92600000E+00  0.104472
  5 P  2.93000000E+00  0.317260

  6 P  9.13200000E-01  1.000000

  7 P  2.67200000E-01  1.000000

  8 D  3.10700000E+00  1.000000

  9 D  8.55000000E-01  1.000000

 10 F  1.91700000E+00  1.000000

  H (Hydrogen)
  ------------
            Exponent  Coefficients 
       -------------- ---------------------------------------------------------
  1 S  3.38700000E+01  0.006068
  1 S  5.09500000E+00  0.045308
  1 S  1.15900000E+00  0.202822

  2 S  3.25800000E-01  1.000000

  3 S  1.02700000E-01  1.000000

  4 P  1.40700000E+00  1.000000

  5 P  3.88000000E-01  1.000000

  6 D  1.05700000E+00  1.000000



 Summary of "ao basis" -> "ao basis" (spherical)
 ------------------------------------------------------------------------------
       Tag                 Description            Shells   Functions and Types
 ---------------- ------------------------------  ------  ---------------------
 F                          cc-pVTZ                 10       30   4s3p2d1f
 H                          cc-pVTZ                  6       14   3s2p1d



                            NWChem Direct MCSCF Module
                            --------------------------


                                        HF


     -----------------------------------
       Basis functions:             44
       Inactive shells:              0
       Active shells:                8
       Active electrons:            10
       Symmetry:                    a       
       Multiplicity:                 1
       Orbital rotations:          288
     -----------------------------------

     -----------------------------------
       E2 extrapolation:             F
       Conjugacy:                    T
       Micro CI relax:               T
       Canonical orbitals:           T
       Maximum iterations:          40
       Converge threshold:    1.00E-04
       Conjugacy resets:            20
       Initial levelshift:        0.10
     -----------------------------------

 Loading old vectors from job with title :

HF


   input molecular orbitals = ./HF.mos
  output molecular orbtials = ./HF.mos

       No. of determinants:          3136


  Starting Orbital Energies
   -26.287154    -1.602324    -0.780103    -0.647826    -0.647801    -0.020751
    -0.007182    -0.000691     0.852768     0.852773     0.987368     0.987379
     1.043807     1.384563     2.217792     2.225780     2.225780     2.531772
     2.531772     3.100925     3.544840     3.544840     3.857842     3.857842
     4.127573     4.299135     4.299137     5.003622     5.350079     5.350082
     5.986293     7.405587     7.405587     7.594099     7.594099     8.348058
     8.436419     8.436422     8.904308     8.904308     9.326400     9.326402
     9.660752    12.294109

  Orbital Symmetry Irreps
a    a    a    a    a    a    a    a    a    a    a    a    a    a    a   
a    a    a    a    a    a    a    a    a    a    a    a    a    a    a   
a    a    a    a    a    a    a    a    a    a    a    a    a    a   

 Integral file          = ./HF.aoints.0
 Record size in doubles =  65536        No. of integs per rec  =  43688
 Max. records in memory =     18        Max. records in file   = 280399
 No. of bits per label  =      8        No. of bits per value  =     64


 #quartets = 9.316D+03 #integrals = 1.251D+05 #direct =  0.0% #cached =100.0%




          %%%%% MacroIteration   1 %%%%%


          Number of sigma calls:       20
                       o<<<<< (aa):             0.00
                       o<<<<< (bb):             0.00
                       o<<<<< (ab):             0.11
                       o<<<<< (total)           0.11
                       o<<<<< (aa) ff           0.00
                       o<<<<< (aa) gop          0.00
                       o<<<<< (aa) dot          0.00
                       o<<<<< (ab) str          0.00
                       o<<<<< (ab) gath         0.00
                       o<<<<< (ab) dotab        0.00
                       o<<<<< (ab) scat         0.00
                       o<<<<< (ab) sync         0.00
                       o<<<<< Density           0.00
                       o<<<<< Density one       0.00
                       o<<<<< Density two       0.00
                       o<<<<< Density ab        0.00
                       o<<<<< Spin adapt        0.19
                       o<<<<< Symm adapt        0.00

                       o<<<<< (ab) max sync:      0.00

           >>>| Valence CI:           -105.249917778985
           >>>| MCSCF energy:         -100.106546298980
           >>>| Gradient norm:          0.227688054D-01
     --- Warning:   22 Hessian diagonals < 0.05 ---

                              ----- Line search ------

        step       energy         lsg     num-lsg   num-lsh   lsrat    time
      ------- ---------------- --------- --------- --------- ------- --------
       0.0000    -100.10654630 -3.69D-05  0.00D+00  0.00D+00 0.0D+00      0.8

          Number of sigma calls:       18
                       o<<<<< (aa):             0.00
                       o<<<<< (bb):             0.00
                       o<<<<< (ab):             0.09
                       o<<<<< (total)           0.09
                       o<<<<< (aa) ff           0.00
                       o<<<<< (aa) gop          0.00
                       o<<<<< (aa) dot          0.00
                       o<<<<< (ab) str          0.00
                       o<<<<< (ab) gath         0.00
                       o<<<<< (ab) dotab        0.00
                       o<<<<< (ab) scat         0.00
                       o<<<<< (ab) sync         0.00
                       o<<<<< Density           0.02
                       o<<<<< Density one       0.01
                       o<<<<< Density two       0.00
                       o<<<<< Density ab        0.01
                       o<<<<< Spin adapt        0.18
                       o<<<<< Symm adapt        0.00

                       o<<<<< (ab) max sync:      0.00
       1.0000    -100.10656631 -3.16D-06 -3.16D-06  3.37D-05 8.6D-02      1.2
     --- Orbitals canonicalized ---



          %%%%% MacroIteration   2 %%%%%


          Number of sigma calls:       14
                       o<<<<< (aa):             0.00
                       o<<<<< (bb):             0.00
                       o<<<<< (ab):             0.10
                       o<<<<< (total)           0.10
                       o<<<<< (aa) ff           0.00
                       o<<<<< (aa) gop          0.00
                       o<<<<< (aa) dot          0.00
                       o<<<<< (ab) str          0.00
                       o<<<<< (ab) gath         0.00
                       o<<<<< (ab) dotab        0.00
                       o<<<<< (ab) scat         0.00
                       o<<<<< (ab) sync         0.00
                       o<<<<< Density           0.02
                       o<<<<< Density one       0.01
                       o<<<<< Density two       0.00
                       o<<<<< Density ab        0.01
                       o<<<<< Spin adapt        0.13
                       o<<<<< Symm adapt        0.00

                       o<<<<< (ab) max sync:      0.00

           >>>| Valence CI:           -105.249937792954
           >>>| MCSCF energy:         -100.106566312949
           >>>| Gradient norm:          0.439534789D-02
     --- Warning:   46 Hessian diagonals < 0.05 ---
     --- Conjugacy reset ---

                              ----- Line search ------

        step       energy         lsg     num-lsg   num-lsh   lsrat    time
      ------- ---------------- --------- --------- --------- ------- --------
       0.0000    -100.10656631 -1.21D-06  0.00D+00  0.00D+00 0.0D+00      1.6

          Number of sigma calls:       13
                       o<<<<< (aa):             0.00
                       o<<<<< (bb):             0.00
                       o<<<<< (ab):             0.06
                       o<<<<< (total)           0.06
                       o<<<<< (aa) ff           0.00
                       o<<<<< (aa) gop          0.00
                       o<<<<< (aa) dot          0.00
                       o<<<<< (ab) str          0.00
                       o<<<<< (ab) gath         0.00
                       o<<<<< (ab) dotab        0.00
                       o<<<<< (ab) scat         0.00
                       o<<<<< (ab) sync         0.00
                       o<<<<< Density           0.01
                       o<<<<< Density one       0.00
                       o<<<<< Density two       0.00
                       o<<<<< Density ab        0.01
                       o<<<<< Spin adapt        0.20
                       o<<<<< Symm adapt        0.00

                       o<<<<< (ab) max sync:      0.00
       1.0000    -100.10656715 -4.62D-07 -4.62D-07  7.46D-07 3.8D-01      1.9

          Number of sigma calls:       12
                       o<<<<< (aa):             0.00
                       o<<<<< (bb):             0.01
                       o<<<<< (ab):             0.07
                       o<<<<< (total)           0.07
                       o<<<<< (aa) ff           0.00
                       o<<<<< (aa) gop          0.00
                       o<<<<< (aa) dot          0.00
                       o<<<<< (ab) str          0.00
                       o<<<<< (ab) gath         0.00
                       o<<<<< (ab) dotab        0.00
                       o<<<<< (ab) scat         0.00
                       o<<<<< (ab) sync         0.00
                       o<<<<< Density           0.01
                       o<<<<< Density one       0.01
                       o<<<<< Density two       0.00
                       o<<<<< Density ab        0.00
                       o<<<<< Spin adapt        0.17
                       o<<<<< Symm adapt        0.00

                       o<<<<< (ab) max sync:      0.00
       1.6198    -100.10656729  7.58D-10  7.11D-10  7.47D-07 6.3D-04      2.2



          %%%%% MacroIteration   3 %%%%%


          Number of sigma calls:        1
                       o<<<<< (aa):             0.00
                       o<<<<< (bb):             0.00
                       o<<<<< (ab):             0.01
                       o<<<<< (total)           0.01
                       o<<<<< (aa) ff           0.00
                       o<<<<< (aa) gop          0.00
                       o<<<<< (aa) dot          0.00
                       o<<<<< (ab) str          0.00
                       o<<<<< (ab) gath         0.00
                       o<<<<< (ab) dotab        0.00
                       o<<<<< (ab) scat         0.00
                       o<<<<< (ab) sync         0.00
                       o<<<<< Density           0.01
                       o<<<<< Density one       0.00
                       o<<<<< Density two       0.01
                       o<<<<< Density ab        0.01
                       o<<<<< Spin adapt        0.00
                       o<<<<< Symm adapt        0.00

                       o<<<<< (ab) max sync:      0.00

           >>>| Valence CI:           -105.249938770973
           >>>| MCSCF energy:         -100.106567290968
           >>>| Gradient norm:          0.559273385D-03
     --- Warning:   46 Hessian diagonals < 0.05 ---

                              ----- Line search ------

        step       energy         lsg     num-lsg   num-lsh   lsrat    time
      ------- ---------------- --------- --------- --------- ------- --------
       0.0000    -100.10656729 -6.30D-08  0.00D+00  0.00D+00 0.0D+00      2.3

          Number of sigma calls:       11
                       o<<<<< (aa):             0.00
                       o<<<<< (bb):             0.01
                       o<<<<< (ab):             0.06
                       o<<<<< (total)           0.07
                       o<<<<< (aa) ff           0.00
                       o<<<<< (aa) gop          0.00
                       o<<<<< (aa) dot          0.00
                       o<<<<< (ab) str          0.00
                       o<<<<< (ab) gath         0.00
                       o<<<<< (ab) dotab        0.00
                       o<<<<< (ab) scat         0.00
                       o<<<<< (ab) sync         0.00
                       o<<<<< Density           0.02
                       o<<<<< Density one       0.00
                       o<<<<< Density two       0.01
                       o<<<<< Density ab        0.01
                       o<<<<< Spin adapt        0.15
                       o<<<<< Symm adapt        0.00

                       o<<<<< (ab) max sync:      0.00
       1.0000    -100.10656733 -1.82D-08 -1.82D-08  4.48D-08 2.9D-01      2.6

          Number of sigma calls:       10
                       o<<<<< (aa):             0.00
                       o<<<<< (bb):             0.00
                       o<<<<< (ab):             0.06
                       o<<<<< (total)           0.06
                       o<<<<< (aa) ff           0.00
                       o<<<<< (aa) gop          0.00
                       o<<<<< (aa) dot          0.00
                       o<<<<< (ab) str          0.00
                       o<<<<< (ab) gath         0.00
                       o<<<<< (ab) dotab        0.00
                       o<<<<< (ab) scat         0.00
                       o<<<<< (ab) sync         0.00
                       o<<<<< Density           0.01
                       o<<<<< Density one       0.00
                       o<<<<< Density two       0.00
                       o<<<<< Density ab        0.01
                       o<<<<< Spin adapt        0.15
                       o<<<<< Symm adapt        0.00

                       o<<<<< (ab) max sync:      0.00
       1.4063    -100.10656734  3.22D-12  3.38D-12  4.48D-08 5.1D-05      2.9



          %%%%% MacroIteration   4 %%%%%


          Number of sigma calls:        1
                       o<<<<< (aa):             0.00
                       o<<<<< (bb):             0.00
                       o<<<<< (ab):             0.00
                       o<<<<< (total)           0.01
                       o<<<<< (aa) ff           0.00
                       o<<<<< (aa) gop          0.00
                       o<<<<< (aa) dot          0.00
                       o<<<<< (ab) str          0.00
                       o<<<<< (ab) gath         0.00
                       o<<<<< (ab) dotab        0.00
                       o<<<<< (ab) scat         0.00
                       o<<<<< (ab) sync         0.00
                       o<<<<< Density           0.01
                       o<<<<< Density one       0.01
                       o<<<<< Density two       0.00
                       o<<<<< Density ab        0.00
                       o<<<<< Spin adapt        0.00
                       o<<<<< Symm adapt        0.00

                       o<<<<< (ab) max sync:      0.00

           >>>| Valence CI:           -105.249938815270
           >>>| MCSCF energy:         -100.106567335265
           >>>| Gradient norm:          0.159742902D-03
     --- Warning:   46 Hessian diagonals < 0.05 ---

                              ----- Line search ------

        step       energy         lsg     num-lsg   num-lsh   lsrat    time
      ------- ---------------- --------- --------- --------- ------- --------
       0.0000    -100.10656734 -8.08D-09  0.00D+00  0.00D+00 0.0D+00      2.9

          Number of sigma calls:       10
                       o<<<<< (aa):             0.00
                       o<<<<< (bb):             0.00
                       o<<<<< (ab):             0.05
                       o<<<<< (total)           0.05
                       o<<<<< (aa) ff           0.00
                       o<<<<< (aa) gop          0.00
                       o<<<<< (aa) dot          0.00
                       o<<<<< (ab) str          0.00
                       o<<<<< (ab) gath         0.00
                       o<<<<< (ab) dotab        0.00
                       o<<<<< (ab) scat         0.00
                       o<<<<< (ab) sync         0.00
                       o<<<<< Density           0.00
                       o<<<<< Density one       0.00
                       o<<<<< Density two       0.00
                       o<<<<< Density ab        0.00
                       o<<<<< Spin adapt        0.11
                       o<<<<< Symm adapt        0.00

                       o<<<<< (ab) max sync:      0.00
       1.0000    -100.10656734 -2.98D-09 -2.98D-09  5.10D-09 3.7D-01      3.2

          Number of sigma calls:        9
                       o<<<<< (aa):             0.01
                       o<<<<< (bb):             0.00
                       o<<<<< (ab):             0.05
                       o<<<<< (total)           0.06
                       o<<<<< (aa) ff           0.00
                       o<<<<< (aa) gop          0.00
                       o<<<<< (aa) dot          0.00
                       o<<<<< (ab) str          0.00
                       o<<<<< (ab) gath         0.00
                       o<<<<< (ab) dotab        0.00
                       o<<<<< (ab) scat         0.00
                       o<<<<< (ab) sync         0.00
                       o<<<<< Density           0.01
                       o<<<<< Density one       0.00
                       o<<<<< Density two       0.01
                       o<<<<< Density ab        0.00
                       o<<<<< Spin adapt        0.15
                       o<<<<< Symm adapt        0.00

                       o<<<<< (ab) max sync:      0.00
       1.5841    -100.10656734 -2.30D-13 -6.44D-13  5.10D-09 2.9D-05      3.5



          %%%%% MacroIteration   5 %%%%%


          Number of sigma calls:        1
                       o<<<<< (aa):             0.00
                       o<<<<< (bb):             0.00
                       o<<<<< (ab):             0.01
                       o<<<<< (total)           0.01
                       o<<<<< (aa) ff           0.00
                       o<<<<< (aa) gop          0.00
                       o<<<<< (aa) dot          0.00
                       o<<<<< (ab) str          0.00
                       o<<<<< (ab) gath         0.00
                       o<<<<< (ab) dotab        0.00
                       o<<<<< (ab) scat         0.00
                       o<<<<< (ab) sync         0.00
                       o<<<<< Density           0.01
                       o<<<<< Density one       0.00
                       o<<<<< Density two       0.00
                       o<<<<< Density ab        0.01
                       o<<<<< Spin adapt        0.00
                       o<<<<< Symm adapt        0.00

                       o<<<<< (ab) max sync:      0.00

           >>>| Valence CI:           -105.249938821668
           >>>| MCSCF energy:         -100.106567341663
           >>>| Gradient norm:          0.545582269D-04




     ==============================
            MCSCF Converged
     ==============================



          Canonical Eigenvalues

              1      
    1  -26.2876
    2   -1.6017
    3   -0.7812
    4   -0.6476
    5   -0.6476
    6   -0.0261
    7   -0.0083
    8   -0.0038
    9    0.3785
   10    0.8499
   11    0.8499
   12    0.9891
   13    0.9891
   14    1.1837
   15    1.5351
   16    2.2268
   17    2.2268
   18    2.5253
   19    2.5253
   20    2.6627
   21    3.5400
   22    3.5400
   23    3.8588
   24    3.8588
   25    4.1430
   26    4.2864
   27    4.2864
   28    4.9677
   29    5.3428
   30    5.3428
   31    5.9671
   32    7.4061
   33    7.4061
   34    7.5847
   35    7.5847
   36    8.0794
   37    8.4033
   38    8.4033
   39    8.9034
   40    8.9034
   41    9.1812
   42    9.3222
   43    9.3222
   44   12.2115


          Converged CI vector

   Index           Coefficient          Config. Occupation
         1          0.99135213          1  2  3  4  5  1  2  3  4  5
         4         -0.03337877          1  2  3  4  5  1  2  4  5  6
       169         -0.03337877          1  2  4  5  6  1  2  3  4  5
       172         -0.08475299          1  2  4  5  6  1  2  4  5  6
       173          0.02744061          1  2  4  5  6  1  3  4  5  6
       178          0.02345731          1  2  4  5  6  1  3  4  5  7
      1312         -0.02045879          1  2  4  5  8  1  2  4  5  8
       228          0.02744061          1  3  4  5  6  1  2  4  5  6
       229         -0.02302475          1  3  4  5  6  1  3  4  5  6
       508          0.02345731          1  3  4  5  7  1  2  4  5  6

          Number of sigma calls:        1
                       o<<<<< (aa):             0.00
                       o<<<<< (bb):             0.00
                       o<<<<< (ab):             0.01
                       o<<<<< (total)           0.01
                       o<<<<< (aa) ff           0.00
                       o<<<<< (aa) gop          0.00
                       o<<<<< (aa) dot          0.00
                       o<<<<< (ab) str          0.00
                       o<<<<< (ab) gath         0.00
                       o<<<<< (ab) dotab        0.00
                       o<<<<< (ab) scat         0.00
                       o<<<<< (ab) sync         0.00
                       o<<<<< Density           0.01
                       o<<<<< Density one       0.00
                       o<<<<< Density two       0.00
                       o<<<<< Density ab        0.01
                       o<<<<< Spin adapt        0.00
                       o<<<<< Symm adapt        0.00

                       o<<<<< (ab) max sync:      0.00



          Natural orbital occupation numbers

              1      
    1    2.0000
    2    1.9993
    3    1.9993
    4    1.9950
    5    1.9772
    6    0.0223
    7    0.0049
    8    0.0020


          Number of sigma calls:       20
                       o<<<<< (aa):             0.01
                       o<<<<< (bb):             0.00
                       o<<<<< (ab):             0.09
                       o<<<<< (total)           0.10
                       o<<<<< (aa) ff           0.00
                       o<<<<< (aa) gop          0.00
                       o<<<<< (aa) dot          0.00
                       o<<<<< (ab) str          0.00
                       o<<<<< (ab) gath         0.00
                       o<<<<< (ab) dotab        0.00
                       o<<<<< (ab) scat         0.00
                       o<<<<< (ab) sync         0.00
                       o<<<<< Density           0.02
                       o<<<<< Density one       0.01
                       o<<<<< Density two       0.00
                       o<<<<< Density ab        0.01
                       o<<<<< Spin adapt        0.12
                       o<<<<< Symm adapt        0.00

                       o<<<<< (ab) max sync:      0.00


       Final MCSCF results 
       ------------------- 

       Total MCSCF energy =   -100.106567341662
            Gradient norm =      5.5D-05

    CPU time for solution =      3.8s
   Wall time for solution =      6.2s



                        Analysis of MCSCF natural orbitals
                        ----------------------------------

 Vector    1  Occ=1.999973D+00  E=-2.628764D+01  Symmetry=a
              MO Center=  1.9D-14, -9.3D-02,  6.1D-14, r^2= 1.2D-02
   Bfn.  Coefficient  Atom+Function         Bfn.  Coefficient  Atom+Function  
  ----- ------------  ---------------      ----- ------------  ---------------
     1      0.975592  1 F  s          

 Vector    2  Occ=1.999294D+00  E=-1.601740D+00  Symmetry=a
              MO Center=  6.6D-13, -7.0D-02, -2.2D-15, r^2= 4.6D-01
   Bfn.  Coefficient  Atom+Function         Bfn.  Coefficient  Atom+Function  
  ----- ------------  ---------------      ----- ------------  ---------------
     8      0.467394  1 F  px                 5      0.382596  1 F  px         
    11      0.351452  1 F  px         

 Vector    3  Occ=1.999294D+00  E=-7.811792D-01  Symmetry=a
              MO Center=  1.3D-15, -7.0D-02,  4.2D-13, r^2= 4.6D-01
   Bfn.  Coefficient  Atom+Function         Bfn.  Coefficient  Atom+Function  
  ----- ------------  ---------------      ----- ------------  ---------------
    10      0.467394  1 F  pz                 7      0.382596  1 F  pz         
    13      0.351452  1 F  pz         

 Vector    4  Occ=1.994966D+00  E=-6.476142D-01  Symmetry=a
              MO Center= -6.3D-13, -1.7D-01, -4.1D-13, r^2= 3.5D-01
   Bfn.  Coefficient  Atom+Function         Bfn.  Coefficient  Atom+Function  
  ----- ------------  ---------------      ----- ------------  ---------------
     2      0.560125  1 F  s                  4      0.377487  1 F  s          
     3      0.164344  1 F  s          

 Vector    5  Occ=1.977214D+00  E=-6.476141D-01  Symmetry=a
              MO Center= -6.8D-14,  2.0D-01, -3.9D-14, r^2= 5.4D-01
   Bfn.  Coefficient  Atom+Function         Bfn.  Coefficient  Atom+Function  
  ----- ------------  ---------------      ----- ------------  ---------------
     9      0.388469  1 F  py                 6      0.320994  1 F  py         
    32      0.238792  2 H  s                 12      0.224511  1 F  py         
    31      0.184299  2 H  s          

 Vector    6  Occ=2.234460D-02  E=-2.606101D-02  Symmetry=a
              MO Center= -1.0D-15,  4.9D-01,  1.0D-15, r^2= 5.5D-01
   Bfn.  Coefficient  Atom+Function         Bfn.  Coefficient  Atom+Function  
  ----- ------------  ---------------      ----- ------------  ---------------
    32      0.701699  2 H  s                  6     -0.508364  1 F  py         
     9     -0.446014  1 F  py                31      0.388784  2 H  s          
     4     -0.374324  1 F  s                  2     -0.196071  1 F  s          

 Vector    7  Occ=4.942111D-03  E=-8.331137D-03  Symmetry=a
              MO Center=  9.8D-15, -3.6D-01, -1.9D-14, r^2= 7.0D-01
   Bfn.  Coefficient  Atom+Function         Bfn.  Coefficient  Atom+Function  
  ----- ------------  ---------------      ----- ------------  ---------------
     4      1.220268  1 F  s                  3     -0.809010  1 F  s          
     2     -0.626465  1 F  s                 12     -0.288281  1 F  py         
     6      0.224705  1 F  py         

 Vector    8  Occ=1.972866D-03  E=-3.791482D-03  Symmetry=a
              MO Center=  8.8D-15, -1.4D-01, -9.6D-15, r^2= 4.5D-01
   Bfn.  Coefficient  Atom+Function         Bfn.  Coefficient  Atom+Function  
  ----- ------------  ---------------      ----- ------------  ---------------
    23      0.517083  1 F  d  2              18      0.365394  1 F  d  2       
    21      0.298551  1 F  d  0               6     -0.243134  1 F  py         
    12      0.219239  1 F  py                16      0.210969  1 F  d  0       
     9      0.179052  1 F  py         

 Vector    9  Occ=0.000000D+00  E= 3.785062D-01  Symmetry=a
              MO Center=  4.3D-15,  1.2D+00,  3.9D-15, r^2= 3.4D+00
   Bfn.  Coefficient  Atom+Function         Bfn.  Coefficient  Atom+Function  
  ----- ------------  ---------------      ----- ------------  ---------------
    33      1.839221  2 H  s                  4     -1.435491  1 F  s          
    12     -0.395516  1 F  py                 2      0.363552  1 F  s          
    32     -0.363727  2 H  s                 38     -0.350281  2 H  py         
     1      0.161755  1 F  s          

 Vector   10  Occ=0.000000D+00  E= 8.499368D-01  Symmetry=a
              MO Center=  5.3D-16,  7.8D-01,  1.5D-16, r^2= 1.0D+00
   Bfn.  Coefficient  Atom+Function         Bfn.  Coefficient  Atom+Function  
  ----- ------------  ---------------      ----- ------------  ---------------
    39      1.028774  2 H  pz                10     -0.431328  1 F  pz         
     7     -0.172672  1 F  pz         

 Vector   11  Occ=0.000000D+00  E= 8.499369D-01  Symmetry=a
              MO Center=  1.5D-15,  7.8D-01,  5.5D-16, r^2= 1.0D+00
   Bfn.  Coefficient  Atom+Function         Bfn.  Coefficient  Atom+Function  
  ----- ------------  ---------------      ----- ------------  ---------------
    37      1.028774  2 H  px                 8     -0.431328  1 F  px         
     5     -0.172672  1 F  px         

 Vector   12  Occ=0.000000D+00  E= 9.890699D-01  Symmetry=a
              MO Center= -9.0D-17, -1.7D-01,  2.7D-15, r^2= 1.6D+00
   Bfn.  Coefficient  Atom+Function         Bfn.  Coefficient  Atom+Function  
  ----- ------------  ---------------      ----- ------------  ---------------
    13      1.433345  1 F  pz                39     -0.826450  2 H  pz         
    10     -0.587418  1 F  pz                 7     -0.191642  1 F  pz         

 Vector   13  Occ=0.000000D+00  E= 9.890699D-01  Symmetry=a
              MO Center= -6.4D-15, -1.7D-01,  2.4D-16, r^2= 1.6D+00
   Bfn.  Coefficient  Atom+Function         Bfn.  Coefficient  Atom+Function  
  ----- ------------  ---------------      ----- ------------  ---------------
    11      1.433345  1 F  px                37     -0.826450  2 H  px         
     8     -0.587418  1 F  px                 5     -0.191642  1 F  px         

 Vector   14  Occ=0.000000D+00  E= 1.183744D+00  Symmetry=a
              MO Center=  5.0D-15,  8.0D-01, -1.3D-15, r^2= 1.7D+00
   Bfn.  Coefficient  Atom+Function         Bfn.  Coefficient  Atom+Function  
  ----- ------------  ---------------      ----- ------------  ---------------
    32      1.506219  2 H  s                 12     -1.173370  1 F  py         
    38      0.872409  2 H  py                33     -0.542443  2 H  s          
     4     -0.438998  1 F  s                  2      0.336004  1 F  s          
     9      0.325817  1 F  py                23      0.311996  1 F  d  2       
    35     -0.182325  2 H  py                21      0.180137  1 F  d  0       

 Vector   15  Occ=0.000000D+00  E= 1.535107D+00  Symmetry=a
              MO Center= -3.8D-15, -2.9D-01, -3.7D-15, r^2= 2.4D+00
   Bfn.  Coefficient  Atom+Function         Bfn.  Coefficient  Atom+Function  
  ----- ------------  ---------------      ----- ------------  ---------------
     4      7.250438  1 F  s                 32     -7.156004  2 H  s          
    12      4.064840  1 F  py                38      4.022387  2 H  py         
     9      0.807156  1 F  py                23     -0.786101  1 F  d  2       
    21     -0.453872  1 F  d  0              33     -0.339753  2 H  s          
    44      0.337751  2 H  d  2               2     -0.269107  1 F  s          

 Vector   16  Occ=0.000000D+00  E= 2.226759D+00  Symmetry=a
              MO Center=  2.2D-15, -2.5D-02,  1.4D-15, r^2= 6.1D-01
   Bfn.  Coefficient  Atom+Function         Bfn.  Coefficient  Atom+Function  
  ----- ------------  ---------------      ----- ------------  ---------------
    22      0.951188  1 F  d  1              43      0.171197  2 H  d  1       

 Vector   17  Occ=0.000000D+00  E= 2.226759D+00  Symmetry=a
              MO Center=  2.3D-15, -2.5D-02,  1.2D-15, r^2= 6.1D-01
   Bfn.  Coefficient  Atom+Function         Bfn.  Coefficient  Atom+Function  
  ----- ------------  ---------------      ----- ------------  ---------------
    21      0.823737  1 F  d  0              23     -0.475622  1 F  d  2       

 Vector   18  Occ=0.000000D+00  E= 2.525318D+00  Symmetry=a
              MO Center=  7.2D-16,  1.0D-01,  3.9D-16, r^2= 8.1D-01
   Bfn.  Coefficient  Atom+Function         Bfn.  Coefficient  Atom+Function  
  ----- ------------  ---------------      ----- ------------  ---------------
    19      1.026259  1 F  d -2              37     -0.683834  2 H  px         
    11      0.394785  1 F  px                34      0.164008  2 H  px         


 Wrote Lagrangian and 1- and 2-particle density matrices to ./HF.mcpdm


     Multipole analysis of the density
     ---------------------------------

     L   x y z        total        nuclear
     -   - - -        -----        -------
     0   0 0 0     -0.000000     10.000000

     1   1 0 0      0.000000      0.000000
     1   0 1 0      0.728417      0.000000
     1   0 0 1     -0.000000      0.000000

     2   2 0 0     -4.127793      0.000000
     2   1 1 0     -0.000000      0.000000
     2   1 0 1      0.000000      0.000000
     2   0 2 0     -2.619096      2.755699
     2   0 1 1     -0.000000      0.000000
     2   0 0 2     -4.127792      0.000000


  Mulliken analysis of the total density
  --------------------------------------

    Atom       Charge   Shell Charges
 -----------   ------   -------------------------------------------------------
    1 F    9     9.33   1.95  1.05  0.27  0.64  1.55  2.45  1.41  0.00  0.01  0.00
    2 H    1     0.67   0.25  0.31  0.02  0.02  0.07  0.01

    Mulliken analysis of the active space density
    ---------------------------------------------

    Atom       Charge   Shell Charges
 -----------   ------   -------------------------------------------------------
    1 F    9     9.33   1.95  1.05  0.27  0.64  1.55  2.45  1.41  0.00  0.01  0.00
    2 H    1     0.67   0.25  0.31  0.02  0.02  0.07  0.01

 Parallel integral file used       3 records with       0 large values


 Task  times  cpu:        3.8s     wall:        6.3s


                                NWChem Input Module
                                -------------------


                                 NWChem SCF Module
                                 -----------------


                                        HF



  ao basis        = "ao basis"
  functions       =    44
  atoms           =     2
  closed shells   =     5
  open shells     =     0
  charge          =   0.00
  wavefunction    = RHF 
  input vectors   = ./HF.mos
  output vectors  = ./HF-trash.mos
  use symmetry    = F
  symmetry adapt  = F


 Summary of "ao basis" -> "ao basis" (spherical)
 ------------------------------------------------------------------------------
       Tag                 Description            Shells   Functions and Types
 ---------------- ------------------------------  ------  ---------------------
 F                          cc-pVTZ                 10       30   4s3p2d1f
 H                          cc-pVTZ                  6       14   3s2p1d



 Forming initial guess at       6.3s


 Loading old vectors from job with title :

HF


 Starting SCF solution at       6.3s



 ----------------------------------------------
         Quadratically convergent ROHF

 Convergence threshold     :          1.000E-04
 Maximum no. of iterations :           30
 Final Fock-matrix accuracy:          1.000E-07
 ----------------------------------------------


 Integral file          = ./HF.aoints.0
 Record size in doubles =  65536        No. of integs per rec  =  43688
 Max. records in memory =     18        Max. records in file   = 280409
 No. of bits per label  =      8        No. of bits per value  =     64


 #quartets = 9.316D+03 #integrals = 1.251D+05 #direct =  0.0% #cached =100.0%



       Final RHF  results 
       ------------------ 

         Total SCF energy =   -100.057002509201
      One-electron energy =   -150.540429121110
      Two-electron energy =     45.340055131903
 Nuclear repulsion energy =      5.143371480005

        Time for solution =      0.1s


             Final eigenvalues
             -----------------

              1      
    1  -26.2876
    2   -1.6017
    3   -0.7812
    4   -0.6476
    5   -0.6476
    6   -0.0261
    7   -0.0083
    8   -0.0038
    9    0.3785
   10    0.8499
   11    0.8499
   12    0.9891
   13    0.9891
   14    1.1837
   15    1.5351

                       ROHF Final Molecular Orbital Analysis
                       -------------------------------------

 Vector    2  Occ=2.000000D+00  E=-1.601740D+00
              MO Center=  6.6D-13, -7.0D-02, -2.2D-15, r^2= 4.6D-01
   Bfn.  Coefficient  Atom+Function         Bfn.  Coefficient  Atom+Function  
  ----- ------------  ---------------      ----- ------------  ---------------
     8      0.467394  1 F  px                 5      0.382596  1 F  px         
    11      0.351452  1 F  px         

 Vector    3  Occ=2.000000D+00  E=-7.811792D-01
              MO Center=  1.3D-15, -7.0D-02,  4.2D-13, r^2= 4.6D-01
   Bfn.  Coefficient  Atom+Function         Bfn.  Coefficient  Atom+Function  
  ----- ------------  ---------------      ----- ------------  ---------------
    10      0.467394  1 F  pz                 7      0.382596  1 F  pz         
    13      0.351452  1 F  pz         

 Vector    4  Occ=2.000000D+00  E=-6.476142D-01
              MO Center= -6.3D-13, -1.7D-01, -4.1D-13, r^2= 3.5D-01
   Bfn.  Coefficient  Atom+Function         Bfn.  Coefficient  Atom+Function  
  ----- ------------  ---------------      ----- ------------  ---------------
     2      0.560125  1 F  s                  4      0.377487  1 F  s          
     3      0.164344  1 F  s          

 Vector    5  Occ=2.000000D+00  E=-6.476141D-01
              MO Center= -6.8D-14,  2.0D-01, -3.9D-14, r^2= 5.4D-01
   Bfn.  Coefficient  Atom+Function         Bfn.  Coefficient  Atom+Function  
  ----- ------------  ---------------      ----- ------------  ---------------
     9      0.388469  1 F  py                 6      0.320994  1 F  py         
    32      0.238792  2 H  s                 12      0.224511  1 F  py         
    31      0.184299  2 H  s          

 Vector    6  Occ=0.000000D+00  E=-2.606101D-02
              MO Center= -1.0D-15,  4.9D-01,  1.0D-15, r^2= 5.5D-01
   Bfn.  Coefficient  Atom+Function         Bfn.  Coefficient  Atom+Function  
  ----- ------------  ---------------      ----- ------------  ---------------
    32      0.701699  2 H  s                  6     -0.508364  1 F  py         
     9     -0.446014  1 F  py                31      0.388784  2 H  s          
     4     -0.374324  1 F  s                  2     -0.196071  1 F  s          

 Vector    7  Occ=0.000000D+00  E=-8.331137D-03
              MO Center=  9.8D-15, -3.6D-01, -1.9D-14, r^2= 7.0D-01
   Bfn.  Coefficient  Atom+Function         Bfn.  Coefficient  Atom+Function  
  ----- ------------  ---------------      ----- ------------  ---------------
     4      1.220268  1 F  s                  3     -0.809010  1 F  s          
     2     -0.626465  1 F  s                 12     -0.288281  1 F  py         
     6      0.224705  1 F  py         

 Vector    8  Occ=0.000000D+00  E=-3.791482D-03
              MO Center=  8.8D-15, -1.4D-01, -9.6D-15, r^2= 4.5D-01
   Bfn.  Coefficient  Atom+Function         Bfn.  Coefficient  Atom+Function  
  ----- ------------  ---------------      ----- ------------  ---------------
    23      0.517083  1 F  d  2              18      0.365394  1 F  d  2       
    21      0.298551  1 F  d  0               6     -0.243134  1 F  py         
    12      0.219239  1 F  py                16      0.210969  1 F  d  0       
     9      0.179052  1 F  py         

 Vector    9  Occ=0.000000D+00  E= 3.785062D-01
              MO Center=  4.3D-15,  1.2D+00,  3.9D-15, r^2= 3.4D+00
   Bfn.  Coefficient  Atom+Function         Bfn.  Coefficient  Atom+Function  
  ----- ------------  ---------------      ----- ------------  ---------------
    33      1.839221  2 H  s                  4     -1.435491  1 F  s          
    12     -0.395516  1 F  py                 2      0.363552  1 F  s          
    32     -0.363727  2 H  s                 38     -0.350281  2 H  py         
     1      0.161755  1 F  s          

 Vector   10  Occ=0.000000D+00  E= 8.499368D-01
              MO Center=  5.3D-16,  7.8D-01,  1.5D-16, r^2= 1.0D+00
   Bfn.  Coefficient  Atom+Function         Bfn.  Coefficient  Atom+Function  
  ----- ------------  ---------------      ----- ------------  ---------------
    39      1.028774  2 H  pz                10     -0.431328  1 F  pz         
     7     -0.172672  1 F  pz         

 Vector   11  Occ=0.000000D+00  E= 8.499369D-01
              MO Center=  1.5D-15,  7.8D-01,  5.5D-16, r^2= 1.0D+00
   Bfn.  Coefficient  Atom+Function         Bfn.  Coefficient  Atom+Function  
  ----- ------------  ---------------      ----- ------------  ---------------
    37      1.028774  2 H  px                 8     -0.431328  1 F  px         
     5     -0.172672  1 F  px         

 Vector   12  Occ=0.000000D+00  E= 9.890699D-01
              MO Center= -9.0D-17, -1.7D-01,  2.7D-15, r^2= 1.6D+00
   Bfn.  Coefficient  Atom+Function         Bfn.  Coefficient  Atom+Function  
  ----- ------------  ---------------      ----- ------------  ---------------
    13      1.433345  1 F  pz                39     -0.826450  2 H  pz         
    10     -0.587418  1 F  pz                 7     -0.191642  1 F  pz         

 Vector   13  Occ=0.000000D+00  E= 9.890699D-01
              MO Center= -6.4D-15, -1.7D-01,  2.4D-16, r^2= 1.6D+00
   Bfn.  Coefficient  Atom+Function         Bfn.  Coefficient  Atom+Function  
  ----- ------------  ---------------      ----- ------------  ---------------
    11      1.433345  1 F  px                37     -0.826450  2 H  px         
     8     -0.587418  1 F  px                 5     -0.191642  1 F  px         

 Vector   14  Occ=0.000000D+00  E= 1.183744D+00
              MO Center=  5.0D-15,  8.0D-01, -1.3D-15, r^2= 1.7D+00
   Bfn.  Coefficient  Atom+Function         Bfn.  Coefficient  Atom+Function  
  ----- ------------  ---------------      ----- ------------  ---------------
    32      1.506219  2 H  s                 12     -1.173370  1 F  py         
    38      0.872409  2 H  py                33     -0.542443  2 H  s          
     4     -0.438998  1 F  s                  2      0.336004  1 F  s          
     9      0.325817  1 F  py                23      0.311996  1 F  d  2       
    35     -0.182325  2 H  py                21      0.180137  1 F  d  0       

 Vector   15  Occ=0.000000D+00  E= 1.535107D+00
              MO Center= -3.8D-15, -2.9D-01, -3.7D-15, r^2= 2.4D+00
   Bfn.  Coefficient  Atom+Function         Bfn.  Coefficient  Atom+Function  
  ----- ------------  ---------------      ----- ------------  ---------------
     4      7.250438  1 F  s                 32     -7.156004  2 H  s          
    12      4.064840  1 F  py                38      4.022387  2 H  py         
     9      0.807156  1 F  py                23     -0.786101  1 F  d  2       
    21     -0.453872  1 F  d  0              33     -0.339753  2 H  s          
    44      0.337751  2 H  d  2               2     -0.269107  1 F  s          


 center of mass
 --------------
 x =   0.00000000 y =  -0.08683407 z =   0.00000000

 moments of inertia (a.u.)
 ------------------
           2.930395507179           0.000000000000           0.000000000000
           0.000000000000           0.000000000000           0.000000000000
           0.000000000000           0.000000000000           2.930395507179

  Mulliken analysis of the total density
  --------------------------------------

    Atom       Charge   Shell Charges
 -----------   ------   -------------------------------------------------------
    1 F    9     9.34   1.95  1.06  0.26  0.64  1.55  2.45  1.42  0.00  0.01  0.00
    2 H    1     0.66   0.24  0.30  0.02  0.02  0.07  0.01

       Multipole analysis of the density wrt the origin
       ------------------------------------------------

     L   x y z        total         open         nuclear
     -   - - -        -----         ----         -------
     0   0 0 0     -0.000000      0.000000     10.000000

     1   1 0 0      0.000000      0.000000      0.000000
     1   0 1 0      0.738076      0.000000      0.000000
     1   0 0 1     -0.000000      0.000000      0.000000

     2   2 0 0     -4.125562      0.000000      0.000000
     2   1 1 0     -0.000000      0.000000      0.000000
     2   1 0 1      0.000000      0.000000      0.000000
     2   0 2 0     -2.598917      0.000000      2.755699
     2   0 1 1     -0.000000      0.000000      0.000000
     2   0 0 2     -4.125562      0.000000      0.000000


 Parallel integral file used       3 records with       0 large values

 ------------------------------------
     Number of active orbitals      8
     Number of active alpha electrons      5
     Number of active beta electrons       5
 ------------------------------------
                   NWChem Extensible Many-Electron Theory Module
                   ---------------------------------------------

              ======================================================
                   This portion of the program was automatically
                  generated by a Tensor Contraction Engine (TCE).
                  The development of this portion of the program
                 and TCE was supported by US Department of Energy,
                Office of Science, Office of Basic Energy Science.
                      TCE is a product of Battelle and PNNL.
              Please cite: S.Hirata, J.Phys.Chem.A 107, 9887 (2003).
              ======================================================

                                        HF


            General Information
            -------------------
      Number of processors :     1
         Wavefunction type : Restricted Hartree-Fock
          No. of electrons :    10
           Alpha electrons :     5
            Beta electrons :     5
           No. of orbitals :    88
            Alpha orbitals :    44
             Beta orbitals :    44
        Alpha frozen cores :     0
         Beta frozen cores :     0
     Alpha frozen virtuals :    36
      Beta frozen virtuals :    36
         Spin multiplicity : singlet 
    Number of AO functions :    44
       Number of AO shells :    16
        Use of symmetry is : off
      Symmetry adaption is : off
         Schwarz screening : 0.10D-09

          Correlation Information
          -----------------------
          Calculation type : Coupled-cluster singles & doubles                           
   Perturbative correction : none                                                        
            Max iterations :      500
        Residual threshold : 0.10D-06
     T(0) DIIS level shift : 0.00D+00
     L(0) DIIS level shift : 0.00D+00
     T(1) DIIS level shift : 0.00D+00
     L(1) DIIS level shift : 0.00D+00
     T(R) DIIS level shift : 0.00D+00
     T(I) DIIS level shift : 0.00D+00
   CC-T/L Amplitude update :  5-th order DIIS
                I/O scheme : Global Array Library
        L-threshold :  0.10D-06
        EOM-threshold :  0.10D-06
 no EOMCCSD initial starts read in
 TCE RESTART OPTIONS
 READ_INT:   F
 WRITE_INT:  F
 READ_TA:    F
 WRITE_TA:   F
 READ_XA:    F
 WRITE_XA:   F
 READ_IN3:   F
 WRITE_IN3:  F
 SLICE:      F
 D4D5:       F
 quantumc:   T
 qrotation:  F
 pwtce:      F
 qducc:      F
 nacto:                         0
 nrotv:                         0
 nrot:                          0

            Memory Information
            ------------------
          Available GA space size is    1610610800 doubles
          Available MA space size is    1610610316 doubles

 Maximum block size supplied by input
 Maximum block size         1 doubles

 tile_dim =      1

 Block   Spin    Irrep     Size     Offset   Alpha
 -------------------------------------------------
   1    alpha     a      1 doubles       0       1
   2    alpha     a      1 doubles       1       2
   3    alpha     a      1 doubles       2       3
   4    alpha     a      1 doubles       3       4
   5    alpha     a      1 doubles       4       5
   6    beta      a      1 doubles       5       1
   7    beta      a      1 doubles       6       2
   8    beta      a      1 doubles       7       3
   9    beta      a      1 doubles       8       4
  10    beta      a      1 doubles       9       5
  11    alpha     a      1 doubles      10      11
  12    alpha     a      1 doubles      11      12
  13    alpha     a      1 doubles      12      13
  14    beta      a      1 doubles      13      11
  15    beta      a      1 doubles      14      12
  16    beta      a      1 doubles      15      13

 Global array virtual files algorithm will be used

 Parallel file system coherency ......... OK

 Integral file          = ./HF.aoints.0
 Record size in doubles =  65536        No. of integs per rec  =  43688
 Max. records in memory =     18        Max. records in file   = 280409
 No. of bits per label  =      8        No. of bits per value  =     64


 #quartets = 9.316D+03 #integrals = 1.251D+05 #direct =  0.0% #cached =100.0%


 Fock matrix recomputed
 1-e file size   =               64
 1-e file name   = ./HF.f1
 Cpu & wall time / sec            0.1            0.1
 4-electron integrals stored in orbital form

 v2    file size   =              666
 4-index algorithm nr.  13 is used
 imaxsize =       30
 imaxsize ichop =        0
 begin_one_electron_integrals
    1    1       -40.9828225686
    4    1         0.8567733576
    5    1         0.0324255127
    6    1        -0.1865296711
    7    1        -0.7545156098
    8    1         0.0302457737
    2    2        -8.4580184214
    3    3        -8.4580187176
    1    4         0.8567733576
    4    4        -9.4016825979
    5    4        -0.1083134556
    6    4         0.3626988854
    7    4         2.2362736667
    8    4        -0.0630906179
    1    5         0.0324255127
    4    5        -0.1083134556
    5    5        -7.9696722551
    6    5         2.4554020529
    7    5        -0.5625908057
    8    5         0.7796746042
    1    6        -0.1865296711
    4    6         0.3626988854
    5    6         2.4554020529
    6    6        -6.8975887334
    7    6        -0.0376832109
    8    6        -0.1894345963
    1    7        -0.7545156098
    4    7         2.2362736667
    5    7        -0.5625908057
    6    7        -0.0376832109
    7    7        -5.9025675360
    8    7         0.1046939982
    1    8         0.0302457737
    4    8        -0.0630906179
    5    8         0.7796746042
    6    8        -0.1894345963
    7    8         0.1046939982
    8    8        -5.0574927652
 end_one_electron_integrals
 begin_two_electron_integrals
    1    1    1    1        5.3483628366
    2    1    2    1        0.0392639300
    3    1    3    1        0.0392639340
    4    1    1    1       -0.5470312244
    4    1    4    1        0.0905103654
    4    1    2    2       -0.0170414755
    4    1    3    3       -0.0170414770
    5    1    1    1       -0.0236469204
    5    1    4    1       -0.0007920394
    5    1    5    1        0.0284862635
    5    1    2    2       -0.0000834431
    5    1    3    3       -0.0000834431
    5    1    4    4       -0.0099457937
    6    1    1    1        0.1462913583
    6    1    4    1       -0.0185346081
    6    1    5    1       -0.0390674255
    6    1    6    1        0.0580529307
    6    1    2    2        0.0021408045
    6    1    3    3        0.0021407911
    6    1    4    4        0.0168887803
    6    1    5    4       -0.0378125144
    6    1    5    5       -0.0076989838
    7    1    1    1        0.5991536762
    7    1    4    1       -0.1056248846
    7    1    5    1        0.0097912174
    7    1    6    1        0.0094194066
    7    1    7    1        0.1273644033
    7    1    2    2        0.0137324077
    7    1    3    3        0.0137323760
    7    1    4    4        0.0203178029
    7    1    5    4        0.0122561254
    7    1    6    4       -0.0151779640
    7    1    5    5        0.0116059199
    7    1    6    5       -0.0129864002
    7    1    6    6        0.0244430278
    8    1    1    1       -0.0199190543
    8    1    4    1        0.0059048513
    8    1    5    1       -0.0141683734
    8    1    6    1        0.0181002168
    8    1    7    1       -0.0110330293
    8    1    8    1        0.0101569298
    8    1    2    2        0.0035934616
    8    1    3    3        0.0035937311
    8    1    4    4        0.0024773541
    8    1    5    4       -0.0119483878
    8    1    6    4        0.0082387028
    8    1    7    4       -0.0014414008
    8    1    5    5       -0.0110060478
    8    1    6    5        0.0070431269
    8    1    7    5        0.0069631959
    8    1    6    6       -0.0142120926
    8    1    7    6       -0.0092724642
    8    1    7    7        0.0042780572
    2    2    1    1        1.2179158787
    2    2    2    2        0.8860331391
    3    2    3    2        0.0433143881
    4    2    2    1        0.0401196766
    4    2    4    2        0.1680104794
    5    2    2    1        0.0021548716
    5    2    4    2        0.0076935128
    5    2    5    2        0.0375102460
    6    2    2    1       -0.0099185648
    6    2    4    2       -0.0288877085
    6    2    5    2       -0.0203914491
    6    2    6    2        0.0272696489
    7    2    2    1       -0.0214497402
    7    2    4    2       -0.0236096182
    7    2    5    2        0.0015336218
    7    2    6    2        0.0068865788
    7    2    7    2        0.0461808714
    8    2    2    1        0.0174419728
    8    2    4    2        0.0727340309
    8    2    5    2        0.0032851945
    8    2    6    2       -0.0129458320
    8    2    7    2       -0.0070855333
    8    2    8    2        0.0528783453
    3    3    1    1        1.2179159416
    3    3    2    2        0.7994043943
    3    3    3    3        0.8860332019
    4    3    3    1        0.0401196808
    4    3    4    3        0.1680104922
    5    3    3    1        0.0021548718
    5    3    4    3        0.0076935137
    5    3    5    3        0.0375102455
    6    3    3    1       -0.0099186221
    6    3    4    3       -0.0288879606
    6    3    5    3       -0.0203914683
    6    3    6    3        0.0272697434
    7    3    3    1       -0.0214498727
    7    3    4    3       -0.0236101788
    7    3    5    3        0.0015335845
    7    3    6    3        0.0068867052
    7    3    7    3        0.0461809829
    8    3    3    1        0.0174430144
    8    3    4    3        0.0727383948
    8    3    5    3        0.0032855215
    8    3    6    3       -0.0129468100
    8    3    7    3       -0.0070862750
    8    3    8    3        0.0528825595
    4    4    1    1        1.2817384215
    4    4    4    1       -0.0240518671
    4    4    2    2        0.8563134589
    4    4    3    3        0.8563134906
    4    4    4    4        0.9063752927
    5    4    1    1       -0.0358797312
    5    4    4    1       -0.0038507835
    5    4    5    1        0.0306678876
    5    4    2    2       -0.0069039049
    5    4    3    3       -0.0069039052
    5    4    4    4       -0.0509634470
    5    4    5    4        0.1436057115
    6    4    1    1       -0.0824969946
    6    4    4    1        0.0081368377
    6    4    5    1       -0.0234674270
    6    4    6    1        0.0287173602
    6    4    2    2       -0.0420397480
    6    4    3    3       -0.0420398625
    6    4    4    4       -0.0134421510
    6    4    5    4       -0.0701722256
    6    4    6    4        0.0637443547
    6    4    5    5       -0.0251070732
    7    4    1    1       -0.5770903821
    7    4    4    1        0.0292720318
    7    4    5    1        0.0097670805
    7    4    6    1       -0.0184561262
    7    4    7    1       -0.0263147678
    7    4    2    2       -0.1857083388
    7    4    3    3       -0.1857086010
    7    4    4    4       -0.2049467893
    7    4    5    4        0.0208502638
    7    4    6    4        0.0013257075
    7    4    7    4        0.1388768324
    7    4    5    5       -0.1565264838
    7    4    6    5        0.1232678141
    7    4    6    6       -0.1688588564
    8    4    1    1        0.0267371049
    8    4    4    1       -0.0019631629
    8    4    5    1       -0.0007564672
    8    4    6    1        0.0005915064
    8    4    7    1        0.0027995014
    8    4    8    1        0.0080264716
    8    4    2    2        0.0365087752
    8    4    3    3        0.0365107288
    8    4    4    4       -0.0024916766
    8    4    5    4        0.0147620509
    8    4    6    4       -0.0203485208
    8    4    7    4       -0.0009854651
    8    4    8    4        0.0809937092
    8    4    5    5       -0.0511773698
    8    4    6    5        0.0198412065
    8    4    7    5        0.0033291040
    8    4    6    6       -0.0314966556
    8    4    7    6        0.0058663075
    8    4    7    7       -0.0138361530
    5    5    1    1        1.0543484113
    5    5    4    1       -0.0136335359
    5    5    5    1        0.0087049468
    5    5    2    2        0.7335036118
    5    5    3    3        0.7335036317
    5    5    4    4        0.7719229003
    5    5    5    4        0.0566603279
    5    5    5    5        0.8127022103
    6    5    1    1       -0.5449210460
    6    5    4    1        0.0165413971
    6    5    5    1       -0.0009006610
    6    5    6    1       -0.0014848237
    6    5    2    2       -0.2192172784
    6    5    3    3       -0.2192172982
    6    5    4    4       -0.2468411783
    6    5    5    4        0.0451920374
    6    5    6    4        0.0306050151
    6    5    5    5       -0.1412646119
    6    5    6    5        0.2306345952
    7    5    1    1        0.1291037311
    7    5    4    1       -0.0015636467
    7    5    5    1       -0.0196998979
    7    5    6    1        0.0261875050
    7    5    7    1       -0.0053470732
    7    5    2    2        0.0439633983
    7    5    3    3        0.0439633913
    7    5    4    4        0.0573053736
    7    5    5    4       -0.0287560986
    7    5    6    4        0.0370770692
    7    5    7    4       -0.0478676174
    7    5    5    5        0.0487202445
    7    5    6    5       -0.0060486727
    7    5    7    5        0.0516891477
    7    5    6    6        0.0552674184
    8    5    1    1       -0.1659260190
    8    5    4    1        0.0099629570
    8    5    5    1       -0.0257161512
    8    5    6    1        0.0304018110
    8    5    7    1       -0.0154498953
    8    5    8    1        0.0131154301
    8    5    2    2       -0.0623180280
    8    5    3    3       -0.0623179200
    8    5    4    4       -0.0354428841
    8    5    5    4       -0.1188241560
    8    5    6    4        0.0624735687
    8    5    7    4        0.0272054539
    8    5    8    4       -0.0044382848
    8    5    5    5       -0.1232743158
    8    5    6    5        0.0109680078
    8    5    7    5        0.0130639739
    8    5    8    5        0.1435810845
    8    5    6    6       -0.1348973082
    8    5    7    6       -0.0642728938
    8    5    7    7        0.0004265645
    6    6    1    1        1.1432130220
    6    6    4    1       -0.0257000971
    6    6    5    1        0.0140931480
    6    6    6    1       -0.0123980938
    6    6    2    2        0.7051748295
    6    6    3    3        0.7051748973
    6    6    4    4        0.7256948774
    6    6    5    4        0.0768587269
    6    6    6    4       -0.0301961126
    6    6    5    5        0.7951943246
    6    6    6    5       -0.1045339504
    6    6    6    6        0.8444102648
    7    6    1    1       -0.0278322220
    7    6    4    1       -0.0045913296
    7    6    5    1        0.0262242404
    7    6    6    1       -0.0330056257
    7    6    7    1        0.0134690908
    7    6    2    2        0.0000769908
    7    6    3    3        0.0000770480
    7    6    4    4       -0.0250030784
    7    6    5    4        0.0814137941
    7    6    6    4       -0.0474636700
    7    6    7    4        0.0218440998
    7    6    5    5        0.0314095283
    7    6    6    5        0.0301491593
    7    6    7    5       -0.0320272819
    7    6    6    6        0.0454854818
    7    6    7    6        0.0604086503
    8    6    1    1        0.1024454119
    8    6    4    1       -0.0106646733
    8    6    5    1        0.0210104790
    8    6    6    1       -0.0248632600
    8    6    7    1        0.0152839561
    8    6    8    1       -0.0122654067
    8    6    2    2        0.0039087150
    8    6    3    3        0.0039081942
    8    6    4    4       -0.0151876160
    8    6    5    4        0.0625761012
    8    6    6    4       -0.0470787298
    8    6    7    4       -0.0085124167
    8    6    8    4       -0.0001482981
    8    6    5    5        0.0258118744
    8    6    6    5       -0.0262421626
    8    6    7    5       -0.0251748645
    8    6    8    5       -0.0721458763
    8    6    6    6        0.0428608573
    8    6    7    6        0.0378324309
    8    6    8    6        0.0630441269
    8    6    7    7       -0.0195550676
    7    7    1    1        1.2150531626
    7    7    4    1       -0.0362341234
    7    7    5    1       -0.0203271641
    7    7    6    1        0.0332886659
    7    7    7    1        0.0305085966
    7    7    2    2        0.7219703304
    7    7    3    3        0.7219703877
    7    7    4    4        0.7709594918
    7    7    5    4       -0.0790401479
    7    7    6    4        0.0102085070
    7    7    7    4       -0.1658347426
    7    7    5    5        0.6510705410
    7    7    6    5       -0.2085255368
    7    7    7    5        0.0519259140
    7    7    6    6        0.6179415386
    7    7    7    6       -0.0491317088
    7    7    7    7        0.7152510760
    8    7    1    1       -0.0233794895
    8    7    4    1        0.0031175770
    8    7    5    1        0.0039945682
    8    7    6    1       -0.0051864475
    8    7    7    1       -0.0029239611
    8    7    8    1       -0.0056064592
    8    7    2    2        0.0028602891
    8    7    3    3        0.0028599573
    8    7    4    4        0.0015837522
    8    7    5    4        0.0213512132
    8    7    6    4       -0.0063708038
    8    7    7    4       -0.0054923001
    8    7    8    4       -0.0039339608
    8    7    5    5        0.0213119840
    8    7    6    5       -0.0107764971
    8    7    7    5        0.0081299262
    8    7    8    5       -0.0226551847
    8    7    6    6        0.0252865003
    8    7    7    6        0.0049985488
    8    7    8    6        0.0126597280
    8    7    7    7       -0.0081964075
    8    7    8    7        0.0316677260
    8    8    1    1        1.0647894670
    8    8    4    1       -0.0082685728
    8    8    5    1        0.0074542117
    8    8    6    1       -0.0083504838
    8    8    7    1        0.0068487032
    8    8    8    1       -0.0089353051
    8    8    2    2        0.7831052637
    8    8    3    3        0.7831077072
    8    8    4    4        0.8370560774
    8    8    5    4       -0.0047513318
    8    8    6    4       -0.0279801739
    8    8    7    4       -0.1592755247
    8    8    8    4       -0.0526500139
    8    8    5    5        0.7843364272
    8    8    6    5       -0.2198967224
    8    8    7    5        0.0277916018
    8    8    8    5       -0.0704310634
    8    8    6    6        0.7284175648
    8    8    7    6        0.0072513196
    8    8    8    6        0.0088059308
    8    8    7    7        0.7078387453
    8    8    8    7        0.0098374836
    8    8    8    8        0.8542470409
 end_two_electron_integrals
 enrep_tce =    5.1433714800051398     
  EHF(A)             =      -100.05700251
  EHF(total)         =      -100.05700251
  Shift (HFtot-HFA)  =        -0.00000000
 Cpu & wall time / sec            0.6            0.6
 T1-number-of-tasks                   15

 t1 file size   =               15
 t1 file name   = ./HF.t1
 t1 file handle =       -998
 T2-number-of-boxes                  315

 t2 file size   =              315
 t2 file name   = ./HF.t2
 t2 file handle =       -996
CCSD iterations
 ---------------------------------------------------------
 Iter          Residuum       Correlation     Cpu    Wall 
 ---------------------------------------------------------
NEW TASK SCHEDULING
CCSD_T1_NTS --- OK
CCSD_T2_NTS --- OK
    1   1.1941425204507  -0.1472441523376     2.9     3.9
    2   4.4188695688523   0.2245724061043     2.8     3.9
    3  20.9087746514025  -0.9091998871001     2.7     3.9
    4  62.4929535576836   3.5311977123286     2.7     3.9
    5 468.6837837654527  -6.9038636267193     2.6     3.8
 MICROCYCLE DIIS UPDATE:                    5                    5
    6   0.3914525781258  -0.0577124855006     2.7     3.8
    7   2.0008215763031  -0.0147883359597     2.9     3.8
    8  10.6154532646002  -0.2205871183150     2.7     3.9
    9  49.5713355290780   0.8622183592754     2.8     3.9
   10 372.4430371382965  -3.5848776691699     2.8     3.9
 MICROCYCLE DIIS UPDATE:                   10                    5
   11   0.0271463882260  -0.0494000487595     2.7     3.8
   12   0.1373038862823  -0.0513120924233     2.8     3.9
   13   0.7135944058244  -0.0387623288000     2.8     4.0
   14   3.7621167274445  -0.1064224768033     3.0     3.9
   15  19.0626541668701   0.2490991771488     3.0     4.0
 MICROCYCLE DIIS UPDATE:                   15                    5
   16   0.0093447698801  -0.0493363849134     2.9     4.0
   17   0.0488099143985  -0.0502938699388     3.5     4.8
   18   0.2564113039845  -0.0456509432270     3.3     4.5
   19   1.3529965088322  -0.0691882728979     3.2     4.5
   20   7.0449970976035   0.0520621447029     3.0     4.0
 MICROCYCLE DIIS UPDATE:                   20                    5
   21   0.0015267618774  -0.0495048487891     3.2     4.4
   22   0.0080053517196  -0.0496309598827     2.9     4.2
   23   0.0421889521687  -0.0489230418141     2.8     3.9
   24   0.2226284403387  -0.0526143932023     3.0     3.9
   25   1.1726760256033  -0.0334630520247     3.0     3.9
 MICROCYCLE DIIS UPDATE:                   25                    5
   26   0.0000580322686  -0.0495185821469     2.7     3.9
   27   0.0002925836917  -0.0495241720631     2.8     3.9
   28   0.0015455883883  -0.0494993260979     2.6     3.9
   29   0.0081897018135  -0.0496280077097     2.7     3.9
   30   0.0434378278871  -0.0489534753127     2.8     3.9
 MICROCYCLE DIIS UPDATE:                   30                    5
   31   0.0000025818683  -0.0495202041475     2.7     3.9
   32   0.0000044068433  -0.0495197646847     3.0     4.2
   33   0.0000165293219  -0.0495206079977     3.4     4.8
   34   0.0000769797258  -0.0495180783185     3.0     4.1
   35   0.0004137105647  -0.0495273716106     3.6     4.8
 MICROCYCLE DIIS UPDATE:                   35                    5
   36   0.0000002705442  -0.0495200139628     2.9     4.0
   37   0.0000009486766  -0.0495200306041     2.7     3.9
   38   0.0000044903743  -0.0495199729308     2.7     3.9
   39   0.0000222881141  -0.0495202852323     2.9     4.0
   40   0.0001133977346  -0.0495186042680     2.8     3.9
 MICROCYCLE DIIS UPDATE:                   40                    5
   41   0.0000000276780  -0.0495200225071     2.9     3.9
 -----------------------------------------------------------------
 Iterations converged
 CCSD correlation energy / hartree =        -0.049520022507078
 CCSD total energy / hartree       =      -100.106522531708436

 Singles contributions

 Doubles contributions
     6a   (alpha)     6a   (beta ) ---     5a   (alpha)     5a   (beta )       -0.0964391522
     6a   (alpha)     7a   (beta ) ---     5a   (alpha)     4a   (beta )       -0.0280620816
     7a   (alpha)     6a   (beta ) ---     4a   (alpha)     5a   (beta )       -0.0280620816
     7a   (alpha)     7a   (beta ) ---     4a   (alpha)     4a   (beta )       -0.0237710409
     8a   (alpha)     8a   (beta ) ---     5a   (alpha)     5a   (beta )       -0.0201376645
 Ground state specification:
 exp(T)|Ref>~(1+T)|Ref>
 ------- a(p)+/a(q) strings ----------

 singles norm

 doubles norm

 Reference string
   1.0000000000000000      :(1a)+ (2a)+ (3a)+ (4a)+ (5a)+ (1b)+ (2b)+ (3b)+ (4b)+ (5b)+ |0>

 Singles strings

 Doubles strings
 -------------------------------------

 Parallel integral file used       3 records with       0 large values


 Task  times  cpu:      120.5s     wall:      167.6s


                                NWChem Input Module
                                -------------------


 Summary of allocated global arrays
-----------------------------------
  No active global arrays


MA_summarize_allocated_blocks: starting scan ...
MA_summarize_allocated_blocks: scan completed: 0 heap blocks, 0 stack blocks
MA usage statistics:

	allocation statistics:
					      heap	     stack
					      ----	     -----
	current number of blocks	         0	         0
	maximum number of blocks	        18	        42
	current total bytes		         0	         0
	maximum total bytes		   9520928	  26465432
	maximum total K-bytes		      9521	     26466
	maximum total M-bytes		        10	        27


                                     CITATION
                                     --------
                Please cite the following reference when publishing
                           results obtained with NWChem:

          E. Apra, E. J. Bylaska, W. A. de Jong, N. Govind, K. Kowalski,
       T. P. Straatsma, M. Valiev, H. J. J. van Dam, Y. Alexeev, J. Anchell,
       V. Anisimov, F. W. Aquino, R. Atta-Fynn, J. Autschbach, N. P. Bauman,
     J. C. Becca, D. E. Bernholdt, K. Bhaskaran-Nair, S. Bogatko, P. Borowski,
         J. Boschen, J. Brabec, A. Bruner, E. Cauet, Y. Chen, G. N. Chuev,
      C. J. Cramer, J. Daily, M. J. O. Deegan, T. H. Dunning Jr., M. Dupuis,
   K. G. Dyall, G. I. Fann, S. A. Fischer, A. Fonari, H. Fruchtl, L. Gagliardi,
      J. Garza, N. Gawande, S. Ghosh, K. Glaesemann, A. W. Gotz, J. Hammond,
       V. Helms, E. D. Hermes, K. Hirao, S. Hirata, M. Jacquelin, L. Jensen,
   B. G. Johnson, H. Jonsson, R. A. Kendall, M. Klemm, R. Kobayashi, V. Konkov,
      S. Krishnamoorthy, M. Krishnan, Z. Lin, R. D. Lins, R. J. Littlefield,
      A. J. Logsdail, K. Lopata, W. Ma, A. V. Marenich, J. Martin del Campo,
   D. Mejia-Rodriguez, J. E. Moore, J. M. Mullin, T. Nakajima, D. R. Nascimento,
    J. A. Nichols, P. J. Nichols, J. Nieplocha, A. Otero-de-la-Roza, B. Palmer,
    A. Panyala, T. Pirojsirikul, B. Peng, R. Peverati, J. Pittner, L. Pollack,
   R. M. Richard, P. Sadayappan, G. C. Schatz, W. A. Shelton, D. W. Silverstein,
   D. M. A. Smith, T. A. Soares, D. Song, M. Swart, H. L. Taylor, G. S. Thomas,
            V. Tipparaju, D. G. Truhlar, K. Tsemekhman, T. Van Voorhis,
      A. Vazquez-Mayagoitia, P. Verma, O. Villa, A. Vishnu, K. D. Vogiatzis,
        D. Wang, J. H. Weare, M. J. Williamson, T. L. Windus, K. Wolinski,
        A. T. Wong, Q. Wu, C. Yang, Q. Yu, M. Zacharias, Z. Zhang, Y. Zhao,
                                and R. J. Harrison
                        "NWChem: Past, present, and future
                         J. Chem. Phys. 152, 184102 (2020)
                               doi:10.1063/5.0004997

                                      AUTHORS
                                      -------
  E. Apra, E. J. Bylaska, N. Govind, K. Kowalski, M. Valiev, D. Mejia-Rodriguez,
       A. Kunitsa, N. P. Bauman, A. Panyala, W. A. de Jong, T. P. Straatsma,
        H. J. J. van Dam, D. Wang, T. L. Windus, J. Hammond, J. Autschbach,
    K. Bhaskaran-Nair, J. Brabec, K. Lopata, S. A. Fischer, S. Krishnamoorthy,
     M. Jacquelin, W. Ma, M. Klemm, O. Villa, Y. Chen, V. Anisimov, F. Aquino,
    S. Hirata, M. T. Hackler, Eric Hermes, L. Jensen, J. E. Moore, J. C. Becca,
      V. Konjkov, T. Risthaus, M. Malagoli, A. Marenich, A. Otero-de-la-Roza,
        J. Mullin, P. Nichols, R. Peverati, J. Pittner, Y. Zhao, P.-D. Fan,
        A. Fonari, M. J. Williamson, R. J. Harrison, J. R. Rehr, M. Dupuis,
     D. Silverstein, D. M. A. Smith, J. Nieplocha, V. Tipparaju, M. Krishnan,
     B. E. Van Kuiken, A. Vazquez-Mayagoitia, M. Swart, Q. Wu, T. Van Voorhis,
     A. A. Auer, M. Nooijen, L. D. Crosby, E. Brown, G. Cisneros, G. I. Fann,
   H. Fruchtl, J. Garza, K. Hirao, R. A. Kendall, J. A. Nichols, K. Tsemekhman,
    K. Wolinski, J. Anchell, D. E. Bernholdt, P. Borowski, T. Clark, D. Clerc,
   H. Dachsel, M. J. O. Deegan, K. Dyall, D. Elwood, E. Glendening, M. Gutowski,
   A. C. Hess, J. Jaffe, B. G. Johnson, J. Ju, R. Kobayashi, R. Kutteh, Z. Lin,
   R. Littlefield, X. Long, B. Meng, T. Nakajima, S. Niu, L. Pollack, M. Rosing,
   K. Glaesemann, G. Sandrone, M. Stave, H. Taylor, G. Thomas, J. H. van Lenthe,
                               A. T. Wong, Z. Zhang.

 Total times  cpu:      124.3s     wall:      173.9s
