 argument  1 = input.nw
  NWChem w/ OpenMP: maximum threads =    1



============================== echo of input deck ==============================

echo
start H4
title "H4"

memory total 12 gb

geometry units bohr
symmetry c1
H 0 0 0
H 0 0 1.99
H 0 0 3.98
H 0 0 5.97
end

basis spherical
  * library cc-pVTZ
end

scf
  vectors input H4.mos
  vectors output H4.mos
end

tce
  2eorb
  2emet 13
  ccsd
  maxiter 300
end

# set tce:print_integrals T
# set tce:qorb 4
# set tce:qela 2
# set tce:qelb 2

set tce:qducc T
set tce:nactv 2
set tce:nonhf T
set tce:ducc_model 6

set tce:printtol 0.02

task tce
================================================================================


                                         
                                         


             Northwest Computational Chemistry Package (NWChem) 7.0.1
             --------------------------------------------------------


                    Environmental Molecular Sciences Laboratory
                       Pacific Northwest National Laboratory
                                Richland, WA 99352

                              Copyright (c) 1994-2020
                       Pacific Northwest National Laboratory
                            Battelle Memorial Institute

             NWChem is an open-source computational chemistry package
                        distributed under the terms of the
                      Educational Community License (ECL) 2.0
             A copy of the license is included with this distribution
                              in the LICENSE.TXT file

                                  ACKNOWLEDGMENT
                                  --------------

            This software and its documentation were developed at the
            EMSL at Pacific Northwest National Laboratory, a multiprogram
            national laboratory, operated for the U.S. Department of Energy
            by Battelle under Contract Number DE-AC05-76RL01830. Support
            for this work was provided by the Department of Energy Office
            of Biological and Environmental Research, Office of Basic
            Energy Sciences, and the Office of Advanced Scientific Computing.


           Job information
           ---------------

    hostname        = WE46210
    program         = /home/baum612/code/nwchem/bin/LINUX64/nwchem
    date            = Fri Nov  1 10:05:31 2024

    compiled        = Wed_Sep_04_02:00:17_2024
    source          = /home/baum612/code/nwchem
    nwchem branch   = 7.0.0
    nwchem revision = nwchem_on_git-4191-g39d87d64de
    ga revision     = 5.8.1
    use scalapack   = F
    input           = input.nw
    prefix          = H4.
    data base       = ./H4.db
    status          = startup
    nproc           =        1
    time left       =     -1s



           Memory information
           ------------------

    heap     =  402653182 doubles =   3072.0 Mbytes
    stack    =  402653179 doubles =   3072.0 Mbytes
    global   =  805306368 doubles =   6144.0 Mbytes (distinct from heap & stack)
    total    = 1610612729 doubles =  12288.0 Mbytes
    verify   = yes
    hardfail = no 


           Directory information
           ---------------------

  0 permanent = .
  0 scratch   = .




                                NWChem Input Module
                                -------------------


                                        H4
                                        --
 Turning off AUTOSYM since
 SYMMETRY directive was detected!


          ------
          auto-z
          ------
     1 autoz failed with cvr_scaling = 1.2 changing to 1.3
     2 autoz failed with cvr_scaling = 1.3 changing to 1.4
  autoz: angle generation failed due to 4 colinear atoms                     1                    2                    3                    4
     3 autoz failed with cvr_scaling = 1.4 changing to 1.5
  autoz: angle generation failed due to 4 colinear atoms                     1                    2                    3                    4
     4 autoz failed with cvr_scaling = 1.5 changing to 1.6
  autoz: angle generation failed due to 4 colinear atoms                     1                    2                    3                    4
     5 autoz failed with cvr_scaling = 1.6 changing to 1.7
  autoz: angle generation failed due to 4 colinear atoms                     1                    2                    3                    4

 AUTOZ failed to generate good internal coordinates.
 Cartesian coordinates will be used in optimizations.



                             Geometry "geometry" -> ""
                             -------------------------

 Output coordinates in a.u. (scale by  1.000000000 to convert to a.u.)

  No.       Tag          Charge          X              Y              Z
 ---- ---------------- ---------- -------------- -------------- --------------
    1 H                    1.0000     0.00000000     0.00000000    -2.98500000
    2 H                    1.0000     0.00000000     0.00000000    -0.99500000
    3 H                    1.0000     0.00000000     0.00000000     0.99500000
    4 H                    1.0000     0.00000000     0.00000000     2.98500000

      Atomic Mass 
      ----------- 

      H                  1.007825


 Effective nuclear repulsion energy (a.u.)       2.1775544389

            Nuclear Dipole moment (a.u.) 
            ----------------------------
        X                 Y               Z
 ---------------- ---------------- ----------------
     0.0000000000     0.0000000000    -0.0000000000


            XYZ format geometry
            -------------------
     4
 geometry
 H                     0.00000000     0.00000000    -1.57959409
 H                     0.00000000     0.00000000    -0.52653136
 H                     0.00000000     0.00000000     0.52653136
 H                     0.00000000     0.00000000     1.57959409



 Summary of "ao basis" -> "" (spherical)
 ------------------------------------------------------------------------------
       Tag                 Description            Shells   Functions and Types
 ---------------- ------------------------------  ------  ---------------------
 *                          cc-pVTZ                   on all atoms 


                      Basis "ao basis" -> "ao basis" (spherical)
                      -----
  H (Hydrogen)
  ------------
            Exponent  Coefficients 
       -------------- ---------------------------------------------------------
  1 S  3.38700000E+01  0.006068
  1 S  5.09500000E+00  0.045308
  1 S  1.15900000E+00  0.202822

  2 S  3.25800000E-01  1.000000

  3 S  1.02700000E-01  1.000000

  4 P  1.40700000E+00  1.000000

  5 P  3.88000000E-01  1.000000

  6 D  1.05700000E+00  1.000000



 Summary of "ao basis" -> "ao basis" (spherical)
 ------------------------------------------------------------------------------
       Tag                 Description            Shells   Functions and Types
 ---------------- ------------------------------  ------  ---------------------
 H                          cc-pVTZ                  6       14   3s2p1d


                                 NWChem SCF Module
                                 -----------------


                                        H4



  ao basis        = "ao basis"
  functions       =    56
  atoms           =     4
  closed shells   =     2
  open shells     =     0
  charge          =   0.00
  wavefunction    = RHF 
  input vectors   = ./H4.mos
  output vectors  = ./H4.mos
  use symmetry    = F
  symmetry adapt  = F


 Summary of "ao basis" -> "ao basis" (spherical)
 ------------------------------------------------------------------------------
       Tag                 Description            Shells   Functions and Types
 ---------------- ------------------------------  ------  ---------------------
 H                          cc-pVTZ                  6       14   3s2p1d



 Forming initial guess at       0.0s


 Loading old vectors from job with title :

H4


 Starting SCF solution at       0.1s



 ----------------------------------------------
         Quadratically convergent ROHF

 Convergence threshold     :          1.000E-04
 Maximum no. of iterations :           30
 Final Fock-matrix accuracy:          1.000E-07
 ----------------------------------------------


 Integral file          = ./H4.aoints.0
 Record size in doubles =  65536        No. of integs per rec  =  43688
 Max. records in memory =     43        Max. records in file   = 229914
 No. of bits per label  =      8        No. of bits per value  =     64


 #quartets = 4.305D+04 #integrals = 2.851D+05 #direct =  0.0% #cached =100.0%


              iter       energy          gnorm     gmax       time
             ----- ------------------- --------- --------- --------
                 1       -2.1580142560  9.40D-03  6.53D-03      0.3
                 2       -2.1580202373  1.04D-05  5.88D-06      0.3


       Final RHF  results 
       ------------------ 

         Total SCF energy =     -2.158020237272
      One-electron energy =     -6.530193729218
      Two-electron energy =      2.194619053085
 Nuclear repulsion energy =      2.177554438861

        Time for solution =      0.1s


             Final eigenvalues
             -----------------

              1      
    1   -0.6367
    2   -0.4338
    3    0.0698
    4    0.2356
    5    0.3388
    6    0.4717
    7    0.5082
    8    0.5865
    9    0.5865
   10    0.6705
   11    0.7291
   12    0.7291

                       ROHF Final Molecular Orbital Analysis
                       -------------------------------------

 Vector    1  Occ=2.000000D+00  E=-6.367211D-01
              MO Center= -5.9D-17,  1.3D-16,  4.0D-12, r^2= 1.5D+00
   Bfn.  Coefficient  Atom+Function         Bfn.  Coefficient  Atom+Function  
  ----- ------------  ---------------      ----- ------------  ---------------
    16      0.226853  2 H  s                 30      0.226853  3 H  s          
     2      0.160041  1 H  s                 44      0.160041  4 H  s          

 Vector    2  Occ=2.000000D+00  E=-4.337567D-01
              MO Center= -2.6D-16,  4.3D-16, -6.5D-12, r^2= 2.6D+00
   Bfn.  Coefficient  Atom+Function         Bfn.  Coefficient  Atom+Function  
  ----- ------------  ---------------      ----- ------------  ---------------
     2      0.237722  1 H  s                 17      0.237230  2 H  s          
    31     -0.237230  3 H  s                 44     -0.237722  4 H  s          
    16      0.184867  2 H  s                 30     -0.184867  3 H  s          
     3      0.172525  1 H  s                 45     -0.172525  4 H  s          

 Vector    3  Occ=0.000000D+00  E= 6.979161D-02
              MO Center=  3.3D-17, -4.8D-17,  7.0D-11, r^2= 4.5D+00
   Bfn.  Coefficient  Atom+Function         Bfn.  Coefficient  Atom+Function  
  ----- ------------  ---------------      ----- ------------  ---------------
     3      0.939164  1 H  s                 45      0.939164  4 H  s          
    17     -0.578362  2 H  s                 31     -0.578362  3 H  s          

 Vector    4  Occ=0.000000D+00  E= 2.356456D-01
              MO Center= -6.9D-16, -3.9D-16,  4.1D-12, r^2= 7.9D+00
   Bfn.  Coefficient  Atom+Function         Bfn.  Coefficient  Atom+Function  
  ----- ------------  ---------------      ----- ------------  ---------------
    17      3.662283  2 H  s                 31     -3.662283  3 H  s          
     3     -2.304762  1 H  s                 45      2.304762  4 H  s          
     2      0.301515  1 H  s                 44     -0.301515  4 H  s          

 Vector    5  Occ=0.000000D+00  E= 3.387591D-01
              MO Center= -3.1D-16, -1.8D-16, -7.0D-11, r^2= 4.1D+00
   Bfn.  Coefficient  Atom+Function         Bfn.  Coefficient  Atom+Function  
  ----- ------------  ---------------      ----- ------------  ---------------
    16      0.619314  2 H  s                 30      0.619314  3 H  s          
    17     -0.603387  2 H  s                 31     -0.603387  3 H  s          
     2      0.563158  1 H  s                 44      0.563158  4 H  s          
     3     -0.467600  1 H  s                 45     -0.467600  4 H  s          

 Vector    6  Occ=0.000000D+00  E= 4.716816D-01
              MO Center=  9.7D-18, -1.9D-17, -3.4D-11, r^2= 5.4D+00
   Bfn.  Coefficient  Atom+Function         Bfn.  Coefficient  Atom+Function  
  ----- ------------  ---------------      ----- ------------  ---------------
     3      1.641848  1 H  s                 45      1.641848  4 H  s          
    17     -1.488962  2 H  s                 31     -1.488962  3 H  s          
    16      0.895310  2 H  s                 30      0.895310  3 H  s          
     2     -0.860666  1 H  s                 44     -0.860666  4 H  s          

 Vector    7  Occ=0.000000D+00  E= 5.081721D-01
              MO Center=  4.4D-16, -3.0D-16,  5.5D-11, r^2= 4.3D+00
   Bfn.  Coefficient  Atom+Function         Bfn.  Coefficient  Atom+Function  
  ----- ------------  ---------------      ----- ------------  ---------------
    17      4.588463  2 H  s                 31     -4.588463  3 H  s          
     2     -0.992477  1 H  s                 44      0.992477  4 H  s          
     3     -0.827150  1 H  s                 45      0.827150  4 H  s          
    16     -0.749389  2 H  s                 30      0.749389  3 H  s          
    23     -0.334779  2 H  pz                37     -0.334779  3 H  pz         

 Vector    8  Occ=0.000000D+00  E= 5.864548D-01
              MO Center=  3.4D-16, -3.7D-16,  3.5D-12, r^2= 1.8D+00
   Bfn.  Coefficient  Atom+Function         Bfn.  Coefficient  Atom+Function  
  ----- ------------  ---------------      ----- ------------  ---------------
    22      0.376676  2 H  py                36      0.376676  3 H  py         
    21     -0.272539  2 H  px                35     -0.272539  3 H  px         
     8      0.249300  1 H  py                50      0.249300  4 H  py         
     7     -0.180378  1 H  px                49     -0.180378  4 H  px         

 Vector    9  Occ=0.000000D+00  E= 5.864548D-01
              MO Center=  1.5D-16,  3.2D-16,  3.4D-12, r^2= 1.8D+00
   Bfn.  Coefficient  Atom+Function         Bfn.  Coefficient  Atom+Function  
  ----- ------------  ---------------      ----- ------------  ---------------
    21      0.376676  2 H  px                35      0.376676  3 H  px         
    22      0.272539  2 H  py                36      0.272539  3 H  py         
     7      0.249300  1 H  px                49      0.249300  4 H  px         
     8      0.180378  1 H  py                50      0.180378  4 H  py         

 Vector   10  Occ=0.000000D+00  E= 6.704791D-01
              MO Center=  2.6D-16, -4.6D-16, -4.2D-11, r^2= 4.2D+00
   Bfn.  Coefficient  Atom+Function         Bfn.  Coefficient  Atom+Function  
  ----- ------------  ---------------      ----- ------------  ---------------
    17      4.974929  2 H  s                 31     -4.974929  3 H  s          
     3     -2.128769  1 H  s                 45      2.128769  4 H  s          
    16     -1.400433  2 H  s                 30      1.400433  3 H  s          
    23     -0.402197  2 H  pz                37     -0.402197  3 H  pz         
     9     -0.393077  1 H  pz                51     -0.393077  4 H  pz         

 Vector   11  Occ=0.000000D+00  E= 7.291266D-01
              MO Center=  6.1D-17,  2.5D-16, -5.5D-13, r^2= 2.9D+00
   Bfn.  Coefficient  Atom+Function         Bfn.  Coefficient  Atom+Function  
  ----- ------------  ---------------      ----- ------------  ---------------
     8      0.600525  1 H  py                50     -0.600525  4 H  py         
    22      0.313747  2 H  py                36     -0.313747  3 H  py         

 Vector   12  Occ=0.000000D+00  E= 7.291266D-01
              MO Center= -1.1D-15, -1.9D-16, -5.5D-13, r^2= 2.9D+00
   Bfn.  Coefficient  Atom+Function         Bfn.  Coefficient  Atom+Function  
  ----- ------------  ---------------      ----- ------------  ---------------
     7      0.600525  1 H  px                49     -0.600525  4 H  px         
    21      0.313747  2 H  px                35     -0.313747  3 H  px         


 center of mass
 --------------
 x =   0.00000000 y =   0.00000000 z =  -0.00000000

 moments of inertia (a.u.)
 ------------------
          19.955438912500           0.000000000000           0.000000000000
           0.000000000000          19.955438912500           0.000000000000
           0.000000000000           0.000000000000           0.000000000000

  Mulliken analysis of the total density
  --------------------------------------

    Atom       Charge   Shell Charges
 -----------   ------   -------------------------------------------------------
    1 H    1     0.96   0.18  0.49  0.28  0.00  0.01  0.00
    2 H    1     1.04   0.20  0.51  0.29  0.00  0.03  0.00
    3 H    1     1.04   0.20  0.51  0.29  0.00  0.03  0.00
    4 H    1     0.96   0.18  0.49  0.28  0.00  0.01  0.00

       Multipole analysis of the density wrt the origin
       ------------------------------------------------

     L   x y z        total         open         nuclear
     -   - - -        -----         ----         -------
     0   0 0 0     -0.000000      0.000000      4.000000

     1   1 0 0      0.000000      0.000000      0.000000
     1   0 1 0     -0.000000      0.000000      0.000000
     1   0 0 1      0.000000      0.000000     -0.000000

     2   2 0 0     -3.605475      0.000000      0.000000
     2   1 1 0      0.000000      0.000000      0.000000
     2   1 0 1      0.000000      0.000000      0.000000
     2   0 2 0     -3.605475      0.000000      0.000000
     2   0 1 1      0.000000      0.000000      0.000000
     2   0 0 2     -2.548540      0.000000     19.800500


 Parallel integral file used       7 records with       0 large values

                   NWChem Extensible Many-Electron Theory Module
                   ---------------------------------------------

              ======================================================
                   This portion of the program was automatically
                  generated by a Tensor Contraction Engine (TCE).
                  The development of this portion of the program
                 and TCE was supported by US Department of Energy,
                Office of Science, Office of Basic Energy Science.
                      TCE is a product of Battelle and PNNL.
              Please cite: S.Hirata, J.Phys.Chem.A 107, 9887 (2003).
              ======================================================

                                        H4


            General Information
            -------------------
      Number of processors :     1
         Wavefunction type : Restricted Hartree-Fock
          No. of electrons :     4
           Alpha electrons :     2
            Beta electrons :     2
           No. of orbitals :   112
            Alpha orbitals :    56
             Beta orbitals :    56
        Alpha frozen cores :     0
         Beta frozen cores :     0
     Alpha frozen virtuals :     0
      Beta frozen virtuals :     0
         Spin multiplicity : singlet 
    Number of AO functions :    56
       Number of AO shells :    24
        Use of symmetry is : off
      Symmetry adaption is : off
         Schwarz screening : 0.10D-09

          Correlation Information
          -----------------------
          Calculation type : Coupled-cluster singles & doubles                           
   Perturbative correction : none                                                        
            Max iterations :      300
        Residual threshold : 0.10D-06
     T(0) DIIS level shift : 0.00D+00
     L(0) DIIS level shift : 0.00D+00
     T(1) DIIS level shift : 0.00D+00
     L(1) DIIS level shift : 0.00D+00
     T(R) DIIS level shift : 0.00D+00
     T(I) DIIS level shift : 0.00D+00
   CC-T/L Amplitude update :  5-th order DIIS
                I/O scheme : Global Array Library
        L-threshold :  0.10D-06
        EOM-threshold :  0.10D-06
 no EOMCCSD initial starts read in
 TCE RESTART OPTIONS
 READ_INT:   F
 WRITE_INT:  F
 READ_TA:    F
 WRITE_TA:   F
 READ_XA:    F
 WRITE_XA:   F
 READ_IN3:   F
 WRITE_IN3:  F
 SLICE:      F
 D4D5:       F
 quantumc:   F
 qrotation:  F
 pwtce:      F
 qducc:      T
 nacto:                         0
 nrotv:                         0
 nrot:                          0

            Memory Information
            ------------------
          Available GA space size is     805303232 doubles
          Available MA space size is     805304268 doubles

 Maximum block size        32 doubles

 tile_dim =     27

 Block   Spin    Irrep     Size     Offset   Alpha
 -------------------------------------------------
   1    alpha     a      2 doubles       0       1
   2    beta      a      2 doubles       2       1
   3    alpha     a     27 doubles       4       3
   4    alpha     a     27 doubles      31       4
   5    beta      a     27 doubles      58       3
   6    beta      a     27 doubles      85       4

 Global array virtual files algorithm will be used

 Parallel file system coherency ......... OK

 Integral file          = ./H4.aoints.0
 Record size in doubles =  65536        No. of integs per rec  =  43688
 Max. records in memory =     43        Max. records in file   = 229914
 No. of bits per label  =      8        No. of bits per value  =     64


 #quartets = 4.426D+04 #integrals = 3.027D+05 #direct =  0.0% #cached =100.0%


 Fock matrix recomputed
 1-e file size   =             3136
 1-e file name   = ./H4.f1
 Cpu & wall time / sec            0.1            0.1
 4-electron integrals stored in orbital form

 v2    file size   =          3442786
 4-index algorithm nr.  13 is used
 imaxsize =       30
 imaxsize ichop =        0
 Cpu & wall time / sec            2.1            2.1
 T1-number-of-tasks                    2

 t1 file size   =              108
 t1 file name   = ./H4.t1
 t1 file handle =       -998
 T2-number-of-boxes                    7

 t2 file size   =            20412
 t2 file name   = ./H4.t2
 t2 file handle =       -996
CCSD iterations
 ---------------------------------------------------------
 Iter          Residuum       Correlation     Cpu    Wall 
 ---------------------------------------------------------
NEW TASK SCHEDULING
CCSD_T1_NTS --- OK
CCSD_T2_NTS --- OK
    1   0.1068767374042  -0.0754677819766     0.1     0.1
    2   0.0410093024953  -0.0889330997270     0.1     0.2
    3   0.0189805157346  -0.0935218594995     0.2     0.2
    4   0.0098227662833  -0.0953892697542     0.2     0.2
    5   0.0054718244543  -0.0962488480376     0.2     0.2
 MICROCYCLE DIIS UPDATE:                    5                    5
    6   0.0010891584913  -0.0971954911322     0.2     0.2
    7   0.0005630256116  -0.0971603749445     0.1     0.1
    8   0.0003130272310  -0.0971614992961     0.2     0.2
    9   0.0001983452727  -0.0971615405687     0.1     0.2
   10   0.0001241251168  -0.0971633588261     0.2     0.2
 MICROCYCLE DIIS UPDATE:                   10                    5
   11   0.0000198393041  -0.0971676571269     0.2     0.2
   12   0.0000073544291  -0.0971691220786     0.1     0.2
   13   0.0000036624754  -0.0971697762156     0.1     0.2
   14   0.0000019663987  -0.0971700790572     0.1     0.2
   15   0.0000011050644  -0.0971702308961     0.1     0.1
 MICROCYCLE DIIS UPDATE:                   15                    5
   16   0.0000002256927  -0.0971704036001     0.1     0.1
   17   0.0000001209702  -0.0971704033856     0.1     0.1
   18   0.0000000661566  -0.0971704045056     0.1     0.1
 -----------------------------------------------------------------
 Iterations converged
 CCSD correlation energy / hartree =        -0.097170404505598
 CCSD total energy / hartree       =        -2.255190641777333

 Singles contributions

 Doubles contributions
     3a   (alpha)     4a   (alpha) ---     1a   (alpha)     2a   (alpha)        0.0226272493
     3a   (alpha)     4a   (alpha) ---     2a   (alpha)     1a   (alpha)       -0.0226272493
     3a   (alpha)    10a   (alpha) ---     1a   (alpha)     2a   (alpha)       -0.0204206388
     3a   (alpha)    10a   (alpha) ---     2a   (alpha)     1a   (alpha)        0.0204206388
     4a   (alpha)     3a   (alpha) ---     1a   (alpha)     2a   (alpha)       -0.0226272493
     4a   (alpha)     3a   (alpha) ---     2a   (alpha)     1a   (alpha)        0.0226272493
    10a   (alpha)     3a   (alpha) ---     1a   (alpha)     2a   (alpha)        0.0204206388
    10a   (alpha)     3a   (alpha) ---     2a   (alpha)     1a   (alpha)       -0.0204206388
     3a   (alpha)     3a   (beta ) ---     1a   (alpha)     1a   (beta )       -0.0542240905
     3a   (alpha)     3a   (beta ) ---     2a   (alpha)     2a   (beta )       -0.1358183425
     3a   (alpha)     4a   (beta ) ---     1a   (alpha)     2a   (beta )        0.0316567701
     3a   (alpha)     5a   (beta ) ---     2a   (alpha)     2a   (beta )       -0.0419276122
     3a   (alpha)     6a   (beta ) ---     1a   (alpha)     1a   (beta )        0.0352699832
     3a   (alpha)     6a   (beta ) ---     2a   (alpha)     2a   (beta )        0.0513196226
     3a   (alpha)     7a   (beta ) ---     1a   (alpha)     2a   (beta )        0.0245368101
     3a   (alpha)     7a   (beta ) ---     2a   (alpha)     1a   (beta )        0.0215633335
     3a   (alpha)    10a   (beta ) ---     1a   (alpha)     2a   (beta )       -0.0501062920
     3a   (alpha)    10a   (beta ) ---     2a   (alpha)     1a   (beta )       -0.0296856532
     4a   (alpha)     3a   (beta ) ---     2a   (alpha)     1a   (beta )        0.0316567701
     4a   (alpha)     4a   (beta ) ---     2a   (alpha)     2a   (beta )       -0.0251209587
     4a   (alpha)    10a   (beta ) ---     1a   (alpha)     1a   (beta )        0.0224369381
     5a   (alpha)     3a   (beta ) ---     2a   (alpha)     2a   (beta )       -0.0419276122
     5a   (alpha)     5a   (beta ) ---     2a   (alpha)     2a   (beta )       -0.0275453470
     5a   (alpha)     6a   (beta ) ---     2a   (alpha)     2a   (beta )        0.0223163119
     6a   (alpha)     3a   (beta ) ---     1a   (alpha)     1a   (beta )        0.0352699832
     6a   (alpha)     3a   (beta ) ---     2a   (alpha)     2a   (beta )        0.0513196226
     6a   (alpha)     5a   (beta ) ---     2a   (alpha)     2a   (beta )        0.0223163119
     6a   (alpha)     6a   (beta ) ---     1a   (alpha)     1a   (beta )       -0.0248685431
     6a   (alpha)     6a   (beta ) ---     2a   (alpha)     2a   (beta )       -0.0234613636
     6a   (alpha)    10a   (beta ) ---     1a   (alpha)     2a   (beta )        0.0248301464
     7a   (alpha)     3a   (beta ) ---     1a   (alpha)     2a   (beta )        0.0215633335
     7a   (alpha)     3a   (beta ) ---     2a   (alpha)     1a   (beta )        0.0245368101
     8a   (alpha)     8a   (beta ) ---     1a   (alpha)     1a   (beta )       -0.0292150513
     9a   (alpha)     9a   (beta ) ---     1a   (alpha)     1a   (beta )       -0.0292150513
    10a   (alpha)     3a   (beta ) ---     1a   (alpha)     2a   (beta )       -0.0296856532
    10a   (alpha)     3a   (beta ) ---     2a   (alpha)     1a   (beta )       -0.0501062920
    10a   (alpha)     4a   (beta ) ---     1a   (alpha)     1a   (beta )        0.0224369381
    10a   (alpha)     6a   (beta ) ---     2a   (alpha)     1a   (beta )        0.0248301464
    10a   (alpha)    10a   (beta ) ---     1a   (alpha)     1a   (beta )       -0.0332513660
    10a   (alpha)    10a   (beta ) ---     2a   (alpha)     2a   (beta )       -0.0267660128
    11a   (alpha)    11a   (beta ) ---     2a   (alpha)     2a   (beta )       -0.0239565246
    12a   (alpha)    12a   (beta ) ---     2a   (alpha)     2a   (beta )       -0.0239565246
 Ground state specification:
 exp(T)|Ref>~(1+T)|Ref>
 ------- a(p)+/a(q) strings ----------

 singles norm

 doubles norm

 Reference string
  0.99090236270927801      :(1a)+ (2a)+ (1b)+ (2b)+ |0>

 Singles strings

 Doubles strings
 -0.13458271648755807      :(3a)+ (3b)+ (2b)  (2a)  (1a)+ (2a)+ (1b)+ (2b)+ |0>
 -------------------------------------
 enrep_tce =    2.1775544388609709     
  EHF(total)         =        -2.15802024
  Shift (HFtot-HFA)  =         0.00000000
 ALL OCCUPIED ORBITALS ARE ACTIVE IN DUCC --> NO SHIFT
 Number of active orbitals                    4
 Number of active alpha electrons                    2
 Number of active beta electrons                    2
  nos                     4
  nvs                   108
 noas                     2
 nobs                     2
 nvas                    54
 nvbs                    54
 nactv                     2
 DUCC MODEL =                     6
 NONHF =  T
 F-T1 correlation    =    4.9536155534155792E-009
 V-T1-T1 correlation =    4.0410094995652364E-005
 V-T2 correlation    =   -9.7210819558527908E-002
 Total correlation   =   -9.7170404509916708E-002
 F-T1(Ext) correlation         =    9.5010695207904278E-009
 V-T1(Ext)-T1(Ext) correlation =    3.2234538541355882E-005
 V-T2(Ext) correlation         =   -7.9853176807582180E-002
 Total Ext correlation         =   -7.9820932767971309E-002
1-BODY TIME =   69.785 SECONDS.
  HHHH TIME =   63.268 SECONDS.
  PPPP TIME =    0.525 SECONDS.
  HHHP TIME =    3.224 SECONDS.
  PPPH TIME =    0.761 SECONDS.
  HPHP TIME =    3.272 SECONDS.
  HHPP TIME =    1.248 SECONDS.
 ONE-BODY UNITARY CHECK
 TWO-BODY UNITARY CHECK
                    1                    2                    2                    1  -1.3117840147458537E-012
                    1                    3                    2                    4   1.1922268727815322E-011
                    1                    3                    4                    2  -1.1922213216664090E-011
                    1                    4                    2                    3   8.9817320247931320E-012
                    1                    4                    4                    1  -1.0291267837914120E-011
                    2                    1                    1                    2   1.3117840147458537E-012
                    2                    3                    1                    4  -8.9817320247931320E-012
                    2                    3                    3                    2   1.0291267837914120E-011
                    2                    4                    1                    3  -1.1922268727815322E-011
                    2                    4                    3                    1   1.1922213216664090E-011
                    3                    1                    2                    4  -1.1922213216664090E-011
                    3                    1                    4                    2   1.1922157705512859E-011
                    3                    2                    2                    3  -1.0291267837914120E-011
                    3                    2                    4                    1   8.9824259141835228E-012
                    3                    4                    4                    3  -1.3117285035946225E-012
                    4                    1                    1                    4   1.0291267837914120E-011
                    4                    1                    3                    2  -8.9824259141835228E-012
                    4                    2                    1                    3   1.1922213216664090E-011
                    4                    2                    3                    1  -1.1922157705512859E-011
                    4                    3                    3                    4   1.3117285035946225E-012
 TWO-BODY ANTISYMMETRY CHECK
 TRANSFORMED ~FOCK~ MATRIX
    1    1        -0.6724454654
    1    3         0.0047349451
    2    2        -0.4726826902
    2    4        -0.0094301824
    3    1         0.0047349451
    3    3         0.0814662807
    4    2        -0.0094301824
    4    4         0.2404987480
 begin_one_electron_integrals
    1    1        -1.7723081393
    1    3         0.1518460293
    2    2        -1.4981304022
    2    4        -0.1613010092
    3    1         0.1518460293
    3    3        -1.1256665161
    4    2        -0.1613010092
    4    4        -0.7051487800
 end_one_electron_integrals
 begin_two_electron_integrals
    1    1    1    1        0.4539467292
    1    1    1    3       -0.0692330751
    1    2    1    2        0.1244011030
    1    2    1    4        0.0369930590
    1    3    1    1       -0.0692330751
    1    3    1    3        0.0740794524
    1    4    1    2        0.0369930590
    1    4    1    4        0.0305029877
    1    1    2    2        0.3873086169
    1    1    2    4        0.0704145235
    1    2    2    1        0.1287012890
    1    2    2    3        0.0597202885
    1    3    2    2       -0.0090788603
    1    3    2    4       -0.0264562187
    1    4    2    1        0.0366207414
    1    4    2    3       -0.0021311651
    1    1    3    1       -0.0692330751
    1    1    3    3        0.3421352650
    1    2    3    2        0.0621042555
    1    2    3    4       -0.0542685077
    1    3    3    1        0.0656358758
    1    3    3    3       -0.0158060707
    1    4    3    2       -0.0035135753
    1    4    3    4       -0.0038483688
    1    1    4    2        0.0704145235
    1    1    4    4        0.2496673691
    1    2    4    1        0.0366207414
    1    2    4    3       -0.0534779680
    1    3    4    2       -0.0262893292
    1    3    4    4       -0.0031559385
    1    4    4    1        0.0237572454
    1    4    4    3       -0.0041381327
    2    1    1    2        0.1287012890
    2    1    1    4        0.0366207414
    2    2    1    1        0.3873086169
    2    2    1    3       -0.0090788603
    2    3    1    2        0.0597202885
    2    3    1    4       -0.0021311651
    2    4    1    1        0.0704145235
    2    4    1    3       -0.0264562187
    2    1    2    1        0.1244011030
    2    1    2    3        0.0621042555
    2    2    2    2        0.3795317673
    2    2    2    4        0.0476625212
    2    3    2    1        0.0621042555
    2    3    2    3        0.0869597576
    2    4    2    2        0.0476625212
    2    4    2    4        0.0360433015
    2    1    3    2        0.0597202885
    2    1    3    4       -0.0534779680
    2    2    3    1       -0.0090788603
    2    2    3    3        0.3307279507
    2    3    3    2        0.0729577587
    2    3    3    4       -0.0372261806
    2    4    3    1       -0.0262893292
    2    4    3    3        0.0282978425
    2    1    4    1        0.0369930590
    2    1    4    3       -0.0542685077
    2    2    4    2        0.0476625212
    2    2    4    4        0.2499167361
    2    3    4    1       -0.0035135753
    2    3    4    3       -0.0342327129
    2    4    4    2        0.0297634370
    2    4    4    4        0.0063449298
    3    1    1    1       -0.0692330751
    3    1    1    3        0.0656358758
    3    2    1    2        0.0621042555
    3    2    1    4       -0.0035135753
    3    3    1    1        0.3421352650
    3    3    1    3       -0.0158060707
    3    4    1    2       -0.0542685077
    3    4    1    4       -0.0038483688
    3    1    2    2       -0.0090788603
    3    1    2    4       -0.0262893292
    3    2    2    1        0.0597202885
    3    2    2    3        0.0729577587
    3    3    2    2        0.3307279507
    3    3    2    4        0.0282978425
    3    4    2    1       -0.0534779680
    3    4    2    3       -0.0372261806
    3    1    3    1        0.0740794524
    3    1    3    3       -0.0158060707
    3    2    3    2        0.0869597576
    3    2    3    4       -0.0342327129
    3    3    3    1       -0.0158060707
    3    3    3    3        0.3004318123
    3    4    3    2       -0.0342327129
    3    4    3    4        0.0576634532
    3    1    4    2       -0.0264562187
    3    1    4    4       -0.0031559385
    3    2    4    1       -0.0021311651
    3    2    4    3       -0.0372261806
    3    3    4    2        0.0282978425
    3    3    4    4        0.2414202043
    3    4    4    1       -0.0041381327
    3    4    4    3        0.0577495899
    3    4    4    4       -0.0000000001
    4    1    1    2        0.0366207414
    4    1    1    4        0.0237572454
    4    2    1    1        0.0704145235
    4    2    1    3       -0.0262893292
    4    3    1    2       -0.0534779680
    4    3    1    4       -0.0041381327
    4    4    1    1        0.2496673691
    4    4    1    3       -0.0031559385
    4    1    2    1        0.0369930590
    4    1    2    3       -0.0035135753
    4    2    2    2        0.0476625212
    4    2    2    4        0.0297634370
    4    3    2    1       -0.0542685077
    4    3    2    3       -0.0342327129
    4    4    2    2        0.2499167361
    4    4    2    4        0.0063449298
    4    1    3    2       -0.0021311651
    4    1    3    4       -0.0041381327
    4    2    3    1       -0.0264562187
    4    2    3    3        0.0282978425
    4    3    3    2       -0.0372261806
    4    3    3    4        0.0577495899
    4    4    3    1       -0.0031559385
    4    4    3    3        0.2414202043
    4    4    3    4       -0.0000000001
    4    1    4    1        0.0305029877
    4    1    4    3       -0.0038483688
    4    2    4    2        0.0360433015
    4    2    4    4        0.0063449298
    4    3    4    1       -0.0038483688
    4    3    4    3        0.0576634532
    4    3    4    4       -0.0000000001
    4    4    4    2        0.0063449298
    4    4    4    3       -0.0000000001
    4    4    4    4        0.2304986158
 end_two_electron_integrals

 Parallel integral file used       7 records with       0 large values


 Task  times  cpu:      168.7s     wall:      170.3s


                                NWChem Input Module
                                -------------------


 Summary of allocated global arrays
-----------------------------------
  No active global arrays


MA_summarize_allocated_blocks: starting scan ...
MA_summarize_allocated_blocks: scan completed: 0 heap blocks, 0 stack blocks
MA usage statistics:

	allocation statistics:
					      heap	     stack
					      ----	     -----
	current number of blocks	         0	         0
	maximum number of blocks	        17	        42
	current total bytes		         0	         0
	maximum total bytes		  22559232	4101638264
	maximum total K-bytes		     22560	   4101639
	maximum total M-bytes		        23	      4102


                                     CITATION
                                     --------
                Please cite the following reference when publishing
                           results obtained with NWChem:

          E. Apra, E. J. Bylaska, W. A. de Jong, N. Govind, K. Kowalski,
       T. P. Straatsma, M. Valiev, H. J. J. van Dam, Y. Alexeev, J. Anchell,
       V. Anisimov, F. W. Aquino, R. Atta-Fynn, J. Autschbach, N. P. Bauman,
     J. C. Becca, D. E. Bernholdt, K. Bhaskaran-Nair, S. Bogatko, P. Borowski,
         J. Boschen, J. Brabec, A. Bruner, E. Cauet, Y. Chen, G. N. Chuev,
      C. J. Cramer, J. Daily, M. J. O. Deegan, T. H. Dunning Jr., M. Dupuis,
   K. G. Dyall, G. I. Fann, S. A. Fischer, A. Fonari, H. Fruchtl, L. Gagliardi,
      J. Garza, N. Gawande, S. Ghosh, K. Glaesemann, A. W. Gotz, J. Hammond,
       V. Helms, E. D. Hermes, K. Hirao, S. Hirata, M. Jacquelin, L. Jensen,
   B. G. Johnson, H. Jonsson, R. A. Kendall, M. Klemm, R. Kobayashi, V. Konkov,
      S. Krishnamoorthy, M. Krishnan, Z. Lin, R. D. Lins, R. J. Littlefield,
      A. J. Logsdail, K. Lopata, W. Ma, A. V. Marenich, J. Martin del Campo,
   D. Mejia-Rodriguez, J. E. Moore, J. M. Mullin, T. Nakajima, D. R. Nascimento,
    J. A. Nichols, P. J. Nichols, J. Nieplocha, A. Otero-de-la-Roza, B. Palmer,
    A. Panyala, T. Pirojsirikul, B. Peng, R. Peverati, J. Pittner, L. Pollack,
   R. M. Richard, P. Sadayappan, G. C. Schatz, W. A. Shelton, D. W. Silverstein,
   D. M. A. Smith, T. A. Soares, D. Song, M. Swart, H. L. Taylor, G. S. Thomas,
            V. Tipparaju, D. G. Truhlar, K. Tsemekhman, T. Van Voorhis,
      A. Vazquez-Mayagoitia, P. Verma, O. Villa, A. Vishnu, K. D. Vogiatzis,
        D. Wang, J. H. Weare, M. J. Williamson, T. L. Windus, K. Wolinski,
        A. T. Wong, Q. Wu, C. Yang, Q. Yu, M. Zacharias, Z. Zhang, Y. Zhao,
                                and R. J. Harrison
                        "NWChem: Past, present, and future
                         J. Chem. Phys. 152, 184102 (2020)
                               doi:10.1063/5.0004997

                                      AUTHORS
                                      -------
  E. Apra, E. J. Bylaska, N. Govind, K. Kowalski, M. Valiev, D. Mejia-Rodriguez,
       A. Kunitsa, N. P. Bauman, A. Panyala, W. A. de Jong, T. P. Straatsma,
        H. J. J. van Dam, D. Wang, T. L. Windus, J. Hammond, J. Autschbach,
    K. Bhaskaran-Nair, J. Brabec, K. Lopata, S. A. Fischer, S. Krishnamoorthy,
     M. Jacquelin, W. Ma, M. Klemm, O. Villa, Y. Chen, V. Anisimov, F. Aquino,
    S. Hirata, M. T. Hackler, Eric Hermes, L. Jensen, J. E. Moore, J. C. Becca,
      V. Konjkov, T. Risthaus, M. Malagoli, A. Marenich, A. Otero-de-la-Roza,
        J. Mullin, P. Nichols, R. Peverati, J. Pittner, Y. Zhao, P.-D. Fan,
        A. Fonari, M. J. Williamson, R. J. Harrison, J. R. Rehr, M. Dupuis,
     D. Silverstein, D. M. A. Smith, J. Nieplocha, V. Tipparaju, M. Krishnan,
     B. E. Van Kuiken, A. Vazquez-Mayagoitia, M. Swart, Q. Wu, T. Van Voorhis,
     A. A. Auer, M. Nooijen, L. D. Crosby, E. Brown, G. Cisneros, G. I. Fann,
   H. Fruchtl, J. Garza, K. Hirao, R. A. Kendall, J. A. Nichols, K. Tsemekhman,
    K. Wolinski, J. Anchell, D. E. Bernholdt, P. Borowski, T. Clark, D. Clerc,
   H. Dachsel, M. J. O. Deegan, K. Dyall, D. Elwood, E. Glendening, M. Gutowski,
   A. C. Hess, J. Jaffe, B. G. Johnson, J. Ju, R. Kobayashi, R. Kutteh, Z. Lin,
   R. Littlefield, X. Long, B. Meng, T. Nakajima, S. Niu, L. Pollack, M. Rosing,
   K. Glaesemann, G. Sandrone, M. Stave, H. Taylor, G. Thomas, J. H. van Lenthe,
                               A. T. Wong, Z. Zhang.

 Total times  cpu:      168.7s     wall:      170.3s
