 argument  1 = input.nw
  NWChem w/ OpenMP: maximum threads =    1



============================== echo of input deck ==============================

echo
start H4
title "H4"

memory total 12 gb

geometry units bohr
symmetry c1
H 0 0 0
H 0 0 2.35
H 0 0 4.70
H 0 0 7.05
end

basis spherical
  * library cc-pVTZ
end

scf
  vectors input H4.mos
  vectors output H4.mos
end

tce
  2eorb
  2emet 13
  ccsd
  maxiter 300
end

# set tce:print_integrals T
# set tce:qorb 4
# set tce:qela 2
# set tce:qelb 2

set tce:qducc T
set tce:nactv 2
set tce:nonhf T
set tce:ducc_model 6

set tce:printtol 0.02

task tce
================================================================================


                                         
                                         


             Northwest Computational Chemistry Package (NWChem) 7.0.1
             --------------------------------------------------------


                    Environmental Molecular Sciences Laboratory
                       Pacific Northwest National Laboratory
                                Richland, WA 99352

                              Copyright (c) 1994-2020
                       Pacific Northwest National Laboratory
                            Battelle Memorial Institute

             NWChem is an open-source computational chemistry package
                        distributed under the terms of the
                      Educational Community License (ECL) 2.0
             A copy of the license is included with this distribution
                              in the LICENSE.TXT file

                                  ACKNOWLEDGMENT
                                  --------------

            This software and its documentation were developed at the
            EMSL at Pacific Northwest National Laboratory, a multiprogram
            national laboratory, operated for the U.S. Department of Energy
            by Battelle under Contract Number DE-AC05-76RL01830. Support
            for this work was provided by the Department of Energy Office
            of Biological and Environmental Research, Office of Basic
            Energy Sciences, and the Office of Advanced Scientific Computing.


           Job information
           ---------------

    hostname        = WE46210
    program         = /home/baum612/code/nwchem/bin/LINUX64/nwchem
    date            = Fri Nov  1 11:17:11 2024

    compiled        = Wed_Sep_04_02:00:17_2024
    source          = /home/baum612/code/nwchem
    nwchem branch   = 7.0.0
    nwchem revision = nwchem_on_git-4191-g39d87d64de
    ga revision     = 5.8.1
    use scalapack   = F
    input           = input.nw
    prefix          = H4.
    data base       = ./H4.db
    status          = startup
    nproc           =        1
    time left       =     -1s



           Memory information
           ------------------

    heap     =  402653182 doubles =   3072.0 Mbytes
    stack    =  402653179 doubles =   3072.0 Mbytes
    global   =  805306368 doubles =   6144.0 Mbytes (distinct from heap & stack)
    total    = 1610612729 doubles =  12288.0 Mbytes
    verify   = yes
    hardfail = no 


           Directory information
           ---------------------

  0 permanent = .
  0 scratch   = .




                                NWChem Input Module
                                -------------------


                                        H4
                                        --
 Turning off AUTOSYM since
 SYMMETRY directive was detected!


          ------
          auto-z
          ------
     1 autoz failed with cvr_scaling = 1.2 changing to 1.3
     2 autoz failed with cvr_scaling = 1.3 changing to 1.4
     3 autoz failed with cvr_scaling = 1.4 changing to 1.5
     4 autoz failed with cvr_scaling = 1.5 changing to 1.6
  autoz: angle generation failed due to 4 colinear atoms                     1                    2                    3                    4
     5 autoz failed with cvr_scaling = 1.6 changing to 1.7
  autoz: angle generation failed due to 4 colinear atoms                     1                    2                    3                    4

 AUTOZ failed to generate good internal coordinates.
 Cartesian coordinates will be used in optimizations.



                             Geometry "geometry" -> ""
                             -------------------------

 Output coordinates in a.u. (scale by  1.000000000 to convert to a.u.)

  No.       Tag          Charge          X              Y              Z
 ---- ---------------- ---------- -------------- -------------- --------------
    1 H                    1.0000     0.00000000     0.00000000    -3.52500000
    2 H                    1.0000     0.00000000     0.00000000    -1.17500000
    3 H                    1.0000     0.00000000     0.00000000     1.17500000
    4 H                    1.0000     0.00000000     0.00000000     3.52500000

      Atomic Mass 
      ----------- 

      H                  1.007825


 Effective nuclear repulsion energy (a.u.)       1.8439716312

            Nuclear Dipole moment (a.u.) 
            ----------------------------
        X                 Y               Z
 ---------------- ---------------- ----------------
     0.0000000000     0.0000000000     0.0000000000


            XYZ format geometry
            -------------------
     4
 geometry
 H                     0.00000000     0.00000000    -1.86534980
 H                     0.00000000     0.00000000    -0.62178327
 H                     0.00000000     0.00000000     0.62178327
 H                     0.00000000     0.00000000     1.86534980



 Summary of "ao basis" -> "" (spherical)
 ------------------------------------------------------------------------------
       Tag                 Description            Shells   Functions and Types
 ---------------- ------------------------------  ------  ---------------------
 *                          cc-pVTZ                   on all atoms 


                      Basis "ao basis" -> "ao basis" (spherical)
                      -----
  H (Hydrogen)
  ------------
            Exponent  Coefficients 
       -------------- ---------------------------------------------------------
  1 S  3.38700000E+01  0.006068
  1 S  5.09500000E+00  0.045308
  1 S  1.15900000E+00  0.202822

  2 S  3.25800000E-01  1.000000

  3 S  1.02700000E-01  1.000000

  4 P  1.40700000E+00  1.000000

  5 P  3.88000000E-01  1.000000

  6 D  1.05700000E+00  1.000000



 Summary of "ao basis" -> "ao basis" (spherical)
 ------------------------------------------------------------------------------
       Tag                 Description            Shells   Functions and Types
 ---------------- ------------------------------  ------  ---------------------
 H                          cc-pVTZ                  6       14   3s2p1d


                                 NWChem SCF Module
                                 -----------------


                                        H4



  ao basis        = "ao basis"
  functions       =    56
  atoms           =     4
  closed shells   =     2
  open shells     =     0
  charge          =   0.00
  wavefunction    = RHF 
  input vectors   = ./H4.mos
  output vectors  = ./H4.mos
  use symmetry    = F
  symmetry adapt  = F


 Summary of "ao basis" -> "ao basis" (spherical)
 ------------------------------------------------------------------------------
       Tag                 Description            Shells   Functions and Types
 ---------------- ------------------------------  ------  ---------------------
 H                          cc-pVTZ                  6       14   3s2p1d



 Forming initial guess at       0.0s


 Loading old vectors from job with title :

H4


 Starting SCF solution at       0.0s



 ----------------------------------------------
         Quadratically convergent ROHF

 Convergence threshold     :          1.000E-04
 Maximum no. of iterations :           30
 Final Fock-matrix accuracy:          1.000E-07
 ----------------------------------------------


 Integral file          = ./H4.aoints.0
 Record size in doubles =  65536        No. of integs per rec  =  43688
 Max. records in memory =     43        Max. records in file   = 229912
 No. of bits per label  =      8        No. of bits per value  =     64


 #quartets = 4.170D+04 #integrals = 2.482D+05 #direct =  0.0% #cached =100.0%


              iter       energy          gnorm     gmax       time
             ----- ------------------- --------- --------- --------
                 1       -2.0985633911  6.75D-03  4.70D-03      0.1
                 2       -2.0985668394  1.09D-05  4.72D-06      0.1


       Final RHF  results 
       ------------------ 

         Total SCF energy =     -2.098566839427
      One-electron energy =     -5.908275177413
      Two-electron energy =      1.965736706780
 Nuclear repulsion energy =      1.843971631206

        Time for solution =      0.1s


             Final eigenvalues
             -----------------

              1      
    1   -0.5707
    2   -0.4177
    3    0.0205
    4    0.2091
    5    0.3448
    6    0.4521
    7    0.4619
    8    0.5937
    9    0.5937
   10    0.5969
   11    0.7089
   12    0.7089

                       ROHF Final Molecular Orbital Analysis
                       -------------------------------------

 Vector    1  Occ=2.000000D+00  E=-5.707388D-01
              MO Center= -6.3D-17,  1.3D-16,  2.5D-12, r^2= 2.0D+00
   Bfn.  Coefficient  Atom+Function         Bfn.  Coefficient  Atom+Function  
  ----- ------------  ---------------      ----- ------------  ---------------
    16      0.227912  2 H  s                 30      0.227912  3 H  s          
     2      0.160126  1 H  s                 44      0.160126  4 H  s          

 Vector    2  Occ=2.000000D+00  E=-4.176621D-01
              MO Center= -2.8D-16,  4.4D-16, -3.7D-12, r^2= 3.3D+00
   Bfn.  Coefficient  Atom+Function         Bfn.  Coefficient  Atom+Function  
  ----- ------------  ---------------      ----- ------------  ---------------
     2      0.230663  1 H  s                 44     -0.230663  4 H  s          
    17      0.225257  2 H  s                 31     -0.225257  3 H  s          
     3      0.192034  1 H  s                 45     -0.192034  4 H  s          
    16      0.176287  2 H  s                 30     -0.176287  3 H  s          

 Vector    3  Occ=0.000000D+00  E= 2.052910D-02
              MO Center=  4.0D-17, -5.0D-17,  3.7D-12, r^2= 4.7D+00
   Bfn.  Coefficient  Atom+Function         Bfn.  Coefficient  Atom+Function  
  ----- ------------  ---------------      ----- ------------  ---------------
     3      0.702174  1 H  s                 45      0.702174  4 H  s          
    17     -0.435665  2 H  s                 31     -0.435665  3 H  s          
     2      0.154327  1 H  s                 44      0.154327  4 H  s          
    16     -0.152277  2 H  s                 30     -0.152277  3 H  s          

 Vector    4  Occ=0.000000D+00  E= 2.090547D-01
              MO Center=  1.4D-16,  1.4D-16, -1.3D-12, r^2= 7.4D+00
   Bfn.  Coefficient  Atom+Function         Bfn.  Coefficient  Atom+Function  
  ----- ------------  ---------------      ----- ------------  ---------------
    17      2.363558  2 H  s                 31     -2.363558  3 H  s          
     3     -1.630201  1 H  s                 45      1.630201  4 H  s          
     2      0.193587  1 H  s                 44     -0.193587  4 H  s          
    16      0.150144  2 H  s                 30     -0.150144  3 H  s          

 Vector    5  Occ=0.000000D+00  E= 3.448092D-01
              MO Center=  2.3D-17,  1.5D-16,  3.6D-12, r^2= 5.0D+00
   Bfn.  Coefficient  Atom+Function         Bfn.  Coefficient  Atom+Function  
  ----- ------------  ---------------      ----- ------------  ---------------
     2      0.671633  1 H  s                 44      0.671633  4 H  s          
     3     -0.651701  1 H  s                 45     -0.651701  4 H  s          
    16      0.590873  2 H  s                 30      0.590873  3 H  s          
    17     -0.498407  2 H  s                 31     -0.498407  3 H  s          

 Vector    6  Occ=0.000000D+00  E= 4.521238D-01
              MO Center=  1.8D-16, -1.8D-16,  1.4D-11, r^2= 5.2D+00
   Bfn.  Coefficient  Atom+Function         Bfn.  Coefficient  Atom+Function  
  ----- ------------  ---------------      ----- ------------  ---------------
    17      1.117998  2 H  s                 31     -1.117998  3 H  s          
     2     -0.918400  1 H  s                 44      0.918400  4 H  s          
     3      0.580025  1 H  s                 45     -0.580025  4 H  s          

 Vector    7  Occ=0.000000D+00  E= 4.619395D-01
              MO Center=  2.2D-16,  4.8D-17, -1.7D-11, r^2= 5.8D+00
   Bfn.  Coefficient  Atom+Function         Bfn.  Coefficient  Atom+Function  
  ----- ------------  ---------------      ----- ------------  ---------------
     3      1.364641  1 H  s                 45      1.364641  4 H  s          
    17     -1.281934  2 H  s                 31     -1.281934  3 H  s          
    16      0.766560  2 H  s                 30      0.766560  3 H  s          
     2     -0.652913  1 H  s                 44     -0.652913  4 H  s          

 Vector    8  Occ=0.000000D+00  E= 5.936925D-01
              MO Center= -1.5D-16, -5.0D-16,  3.4D-12, r^2= 2.1D+00
   Bfn.  Coefficient  Atom+Function         Bfn.  Coefficient  Atom+Function  
  ----- ------------  ---------------      ----- ------------  ---------------
    22      0.493903  2 H  py                36      0.493903  3 H  py         
     8      0.308842  1 H  py                50      0.308842  4 H  py         

 Vector    9  Occ=0.000000D+00  E= 5.936925D-01
              MO Center= -1.6D-17, -4.9D-18,  3.4D-12, r^2= 2.1D+00
   Bfn.  Coefficient  Atom+Function         Bfn.  Coefficient  Atom+Function  
  ----- ------------  ---------------      ----- ------------  ---------------
    21      0.493903  2 H  px                35      0.493903  3 H  px         
     7      0.308842  1 H  px                49      0.308842  4 H  px         

 Vector   10  Occ=0.000000D+00  E= 5.969250D-01
              MO Center=  3.4D-16,  6.3D-16, -1.2D-12, r^2= 4.7D+00
   Bfn.  Coefficient  Atom+Function         Bfn.  Coefficient  Atom+Function  
  ----- ------------  ---------------      ----- ------------  ---------------
    17      4.273028  2 H  s                 31     -4.273028  3 H  s          
     3     -1.612404  1 H  s                 45      1.612404  4 H  s          
    16     -1.218048  2 H  s                 30      1.218048  3 H  s          
     2      0.235613  1 H  s                 44     -0.235613  4 H  s          

 Vector   11  Occ=0.000000D+00  E= 7.089495D-01
              MO Center=  3.3D-16, -8.9D-17, -8.4D-13, r^2= 3.6D+00
   Bfn.  Coefficient  Atom+Function         Bfn.  Coefficient  Atom+Function  
  ----- ------------  ---------------      ----- ------------  ---------------
     7      0.518211  1 H  px                49     -0.518211  4 H  px         
    21      0.307757  2 H  px                35     -0.307757  3 H  px         
     8     -0.276801  1 H  py                50      0.276801  4 H  py         
    22     -0.164388  2 H  py                36      0.164388  3 H  py         

 Vector   12  Occ=0.000000D+00  E= 7.089495D-01
              MO Center= -4.7D-16, -9.2D-16, -8.1D-13, r^2= 3.6D+00
   Bfn.  Coefficient  Atom+Function         Bfn.  Coefficient  Atom+Function  
  ----- ------------  ---------------      ----- ------------  ---------------
     8      0.518211  1 H  py                50     -0.518211  4 H  py         
    22      0.307757  2 H  py                36     -0.307757  3 H  py         
     7      0.276801  1 H  px                49     -0.276801  4 H  px         
    21      0.164388  2 H  px                35     -0.164388  3 H  px         


 center of mass
 --------------
 x =   0.00000000 y =   0.00000000 z =   0.00000000

 moments of inertia (a.u.)
 ------------------
          27.828567812500           0.000000000000           0.000000000000
           0.000000000000          27.828567812500           0.000000000000
           0.000000000000           0.000000000000           0.000000000000

  Mulliken analysis of the total density
  --------------------------------------

    Atom       Charge   Shell Charges
 -----------   ------   -------------------------------------------------------
    1 H    1     0.97   0.16  0.46  0.34  0.00  0.01  0.00
    2 H    1     1.03   0.17  0.49  0.35  0.00  0.02  0.00
    3 H    1     1.03   0.17  0.49  0.35  0.00  0.02  0.00
    4 H    1     0.97   0.16  0.46  0.34  0.00  0.01  0.00

       Multipole analysis of the density wrt the origin
       ------------------------------------------------

     L   x y z        total         open         nuclear
     -   - - -        -----         ----         -------
     0   0 0 0     -0.000000      0.000000      4.000000

     1   1 0 0      0.000000      0.000000      0.000000
     1   0 1 0     -0.000000      0.000000      0.000000
     1   0 0 1      0.000000      0.000000      0.000000

     2   2 0 0     -4.022563      0.000000      0.000000
     2   1 1 0      0.000000      0.000000      0.000000
     2   1 0 1      0.000000      0.000000      0.000000
     2   0 2 0     -4.022563      0.000000      0.000000
     2   0 1 1      0.000000      0.000000      0.000000
     2   0 0 2     -2.101447      0.000000     27.612500


 Parallel integral file used       6 records with       0 large values

                   NWChem Extensible Many-Electron Theory Module
                   ---------------------------------------------

              ======================================================
                   This portion of the program was automatically
                  generated by a Tensor Contraction Engine (TCE).
                  The development of this portion of the program
                 and TCE was supported by US Department of Energy,
                Office of Science, Office of Basic Energy Science.
                      TCE is a product of Battelle and PNNL.
              Please cite: S.Hirata, J.Phys.Chem.A 107, 9887 (2003).
              ======================================================

                                        H4


            General Information
            -------------------
      Number of processors :     1
         Wavefunction type : Restricted Hartree-Fock
          No. of electrons :     4
           Alpha electrons :     2
            Beta electrons :     2
           No. of orbitals :   112
            Alpha orbitals :    56
             Beta orbitals :    56
        Alpha frozen cores :     0
         Beta frozen cores :     0
     Alpha frozen virtuals :     0
      Beta frozen virtuals :     0
         Spin multiplicity : singlet 
    Number of AO functions :    56
       Number of AO shells :    24
        Use of symmetry is : off
      Symmetry adaption is : off
         Schwarz screening : 0.10D-09

          Correlation Information
          -----------------------
          Calculation type : Coupled-cluster singles & doubles                           
   Perturbative correction : none                                                        
            Max iterations :      300
        Residual threshold : 0.10D-06
     T(0) DIIS level shift : 0.00D+00
     L(0) DIIS level shift : 0.00D+00
     T(1) DIIS level shift : 0.00D+00
     L(1) DIIS level shift : 0.00D+00
     T(R) DIIS level shift : 0.00D+00
     T(I) DIIS level shift : 0.00D+00
   CC-T/L Amplitude update :  5-th order DIIS
                I/O scheme : Global Array Library
        L-threshold :  0.10D-06
        EOM-threshold :  0.10D-06
 no EOMCCSD initial starts read in
 TCE RESTART OPTIONS
 READ_INT:   F
 WRITE_INT:  F
 READ_TA:    F
 WRITE_TA:   F
 READ_XA:    F
 WRITE_XA:   F
 READ_IN3:   F
 WRITE_IN3:  F
 SLICE:      F
 D4D5:       F
 quantumc:   F
 qrotation:  F
 pwtce:      F
 qducc:      T
 nacto:                         0
 nrotv:                         0
 nrot:                          0

            Memory Information
            ------------------
          Available GA space size is     805303232 doubles
          Available MA space size is     805304268 doubles

 Maximum block size        32 doubles

 tile_dim =     27

 Block   Spin    Irrep     Size     Offset   Alpha
 -------------------------------------------------
   1    alpha     a      2 doubles       0       1
   2    beta      a      2 doubles       2       1
   3    alpha     a     27 doubles       4       3
   4    alpha     a     27 doubles      31       4
   5    beta      a     27 doubles      58       3
   6    beta      a     27 doubles      85       4

 Global array virtual files algorithm will be used

 Parallel file system coherency ......... OK

 Integral file          = ./H4.aoints.0
 Record size in doubles =  65536        No. of integs per rec  =  43688
 Max. records in memory =     43        Max. records in file   = 229912
 No. of bits per label  =      8        No. of bits per value  =     64


 #quartets = 4.247D+04 #integrals = 2.818D+05 #direct =  0.0% #cached =100.0%


 Fock matrix recomputed
 1-e file size   =             3136
 1-e file name   = ./H4.f1
 Cpu & wall time / sec            0.0            0.0
 4-electron integrals stored in orbital form

 v2    file size   =          3442786
 4-index algorithm nr.  13 is used
 imaxsize =       30
 imaxsize ichop =        0
 Cpu & wall time / sec            1.1            1.1
 T1-number-of-tasks                    2

 t1 file size   =              108
 t1 file name   = ./H4.t1
 t1 file handle =       -998
 T2-number-of-boxes                    7

 t2 file size   =            20412
 t2 file name   = ./H4.t2
 t2 file handle =       -996
CCSD iterations
 ---------------------------------------------------------
 Iter          Residuum       Correlation     Cpu    Wall 
 ---------------------------------------------------------
NEW TASK SCHEDULING
CCSD_T1_NTS --- OK
CCSD_T2_NTS --- OK
    1   0.1144564013488  -0.0781061679189     0.1     0.1
    2   0.0488917677666  -0.0939234248820     0.1     0.1
    3   0.0250450716631  -0.1001586921135     0.1     0.1
    4   0.0140710279264  -0.1030312223421     0.1     0.1
    5   0.0084143989844  -0.1045050810525     0.1     0.1
 MICROCYCLE DIIS UPDATE:                    5                    5
    6   0.0021093068696  -0.1064408525210     0.1     0.1
    7   0.0012352667041  -0.1063761077281     0.1     0.1
    8   0.0007794280373  -0.1063791701805     0.1     0.1
    9   0.0005517970476  -0.1063801592833     0.1     0.1
   10   0.0003832704123  -0.1063863845855     0.1     0.1
 MICROCYCLE DIIS UPDATE:                   10                    5
   11   0.0000699499494  -0.1064046415363     0.1     0.1
   12   0.0000297665395  -0.1064110660700     0.1     0.1
   13   0.0000160144644  -0.1064142657843     0.1     0.1
   14   0.0000092180562  -0.1064158855035     0.1     0.1
   15   0.0000055575920  -0.1064167726025     0.1     0.1
 MICROCYCLE DIIS UPDATE:                   15                    5
   16   0.0000014683148  -0.1064179705767     0.1     0.1
   17   0.0000009062522  -0.1064179534220     0.1     0.1
   18   0.0000005562183  -0.1064179575417     0.1     0.1
   19   0.0000003975742  -0.1064179589448     0.1     0.1
   20   0.0000002750124  -0.1064179642205     0.1     0.1
 MICROCYCLE DIIS UPDATE:                   20                    5
   21   0.0000000483713  -0.1064179781184     0.1     0.1
 -----------------------------------------------------------------
 Iterations converged
 CCSD correlation energy / hartree =        -0.106417978118446
 CCSD total energy / hartree       =        -2.204984817545104

 Singles contributions
     6a   (alpha) ---     2a   (alpha)       -0.0276209875

 Doubles contributions
     3a   (alpha)     4a   (alpha) ---     1a   (alpha)     2a   (alpha)        0.0308756602
     3a   (alpha)     4a   (alpha) ---     2a   (alpha)     1a   (alpha)       -0.0308756602
     4a   (alpha)     3a   (alpha) ---     1a   (alpha)     2a   (alpha)       -0.0308756602
     4a   (alpha)     3a   (alpha) ---     2a   (alpha)     1a   (alpha)        0.0308756602
     3a   (alpha)     3a   (beta ) ---     1a   (alpha)     1a   (beta )       -0.0723008159
     3a   (alpha)     3a   (beta ) ---     2a   (alpha)     2a   (beta )       -0.1916675835
     3a   (alpha)     4a   (beta ) ---     1a   (alpha)     2a   (beta )        0.0616159010
     3a   (alpha)     4a   (beta ) ---     2a   (alpha)     1a   (beta )        0.0307402408
     3a   (alpha)     5a   (beta ) ---     2a   (alpha)     2a   (beta )       -0.0423885905
     3a   (alpha)     6a   (beta ) ---     1a   (alpha)     2a   (beta )        0.0517130339
     3a   (alpha)     6a   (beta ) ---     2a   (alpha)     1a   (beta )        0.0410239061
     3a   (alpha)     7a   (beta ) ---     1a   (alpha)     1a   (beta )        0.0375647146
     3a   (alpha)     7a   (beta ) ---     2a   (alpha)     2a   (beta )        0.0528528423
     3a   (alpha)    10a   (beta ) ---     1a   (alpha)     2a   (beta )       -0.0478044514
     3a   (alpha)    10a   (beta ) ---     2a   (alpha)     1a   (beta )       -0.0292914578
     4a   (alpha)     3a   (beta ) ---     1a   (alpha)     2a   (beta )        0.0307402408
     4a   (alpha)     3a   (beta ) ---     2a   (alpha)     1a   (beta )        0.0616159010
     4a   (alpha)     4a   (beta ) ---     1a   (alpha)     1a   (beta )       -0.0381198639
     4a   (alpha)     4a   (beta ) ---     2a   (alpha)     2a   (beta )       -0.0358610558
     4a   (alpha)    10a   (beta ) ---     1a   (alpha)     1a   (beta )        0.0306610723
     4a   (alpha)    10a   (beta ) ---     2a   (alpha)     2a   (beta )        0.0206202322
     5a   (alpha)     3a   (beta ) ---     2a   (alpha)     2a   (beta )       -0.0423885905
     5a   (alpha)     5a   (beta ) ---     2a   (alpha)     2a   (beta )       -0.0238855416
     6a   (alpha)     3a   (beta ) ---     1a   (alpha)     2a   (beta )        0.0410239061
     6a   (alpha)     3a   (beta ) ---     2a   (alpha)     1a   (beta )        0.0517130339
     6a   (alpha)     6a   (beta ) ---     2a   (alpha)     2a   (beta )       -0.0271600098
     7a   (alpha)     3a   (beta ) ---     1a   (alpha)     1a   (beta )        0.0375647146
     7a   (alpha)     3a   (beta ) ---     2a   (alpha)     2a   (beta )        0.0528528423
     7a   (alpha)     7a   (beta ) ---     1a   (alpha)     1a   (beta )       -0.0223000051
     8a   (alpha)     8a   (beta ) ---     1a   (alpha)     1a   (beta )       -0.0275577756
     9a   (alpha)     9a   (beta ) ---     1a   (alpha)     1a   (beta )       -0.0275577756
    10a   (alpha)     3a   (beta ) ---     1a   (alpha)     2a   (beta )       -0.0292914578
    10a   (alpha)     3a   (beta ) ---     2a   (alpha)     1a   (beta )       -0.0478044514
    10a   (alpha)     4a   (beta ) ---     1a   (alpha)     1a   (beta )        0.0306610723
    10a   (alpha)     4a   (beta ) ---     2a   (alpha)     2a   (beta )        0.0206202322
    10a   (alpha)    10a   (beta ) ---     1a   (alpha)     1a   (beta )       -0.0276286288
    11a   (alpha)    11a   (beta ) ---     2a   (alpha)     2a   (beta )       -0.0222901561
    12a   (alpha)    12a   (beta ) ---     2a   (alpha)     2a   (beta )       -0.0222901561
 Ground state specification:
 exp(T)|Ref>~(1+T)|Ref>
 ------- a(p)+/a(q) strings ----------

 singles norm

 doubles norm

 Reference string
  0.98212284544856754      :(1a)+ (2a)+ (1b)+ (2b)+ |0>

 Singles strings

 Doubles strings
 -0.18824111253392350      :(3a)+ (3b)+ (2b)  (2a)  (1a)+ (2a)+ (1b)+ (2b)+ |0>
 -------------------------------------
 enrep_tce =    1.8439716312056733     
  EHF(total)         =        -2.09856684
  Shift (HFtot-HFA)  =         0.00000000
 ALL OCCUPIED ORBITALS ARE ACTIVE IN DUCC --> NO SHIFT
 Number of active orbitals                    4
 Number of active alpha electrons                    2
 Number of active beta electrons                    2
  nos                     4
  nvs                   108
 noas                     2
 nobs                     2
 nvas                    54
 nvbs                    54
 nactv                     2
 DUCC MODEL =                     6
 NONHF =  T
 F-T1 correlation    =    2.5770195815757808E-009
 V-T1-T1 correlation =    7.9915566756184081E-005
 V-T2 correlation    =  -0.10649789626281314     
 Total correlation   =  -0.10641797811903737     
 F-T1(Ext) correlation         =   -5.3709724565342695E-009
 V-T1(Ext)-T1(Ext) correlation =    7.7869888833338740E-005
 V-T2(Ext) correlation         =   -7.5909983752700957E-002
 Total Ext correlation         =   -7.5832119234840081E-002
1-BODY TIME =   40.932 SECONDS.
  HHHH TIME =   41.751 SECONDS.
  PPPP TIME =    0.442 SECONDS.
  HHHP TIME =    2.424 SECONDS.
  PPPH TIME =    0.728 SECONDS.
  HPHP TIME =    2.204 SECONDS.
  HHPP TIME =    0.935 SECONDS.
 ONE-BODY UNITARY CHECK
 TWO-BODY UNITARY CHECK
                    1                    2                    2                    1  -3.7854996914887806E-012
                    1                    3                    2                    4   3.1657454435674026E-011
                    1                    3                    4                    2  -3.1657440557886218E-011
                    1                    4                    2                    3   3.9412861863041826E-011
                    1                    4                    4                    1  -4.3199110955072229E-011
                    2                    1                    1                    2   3.7854996914887806E-012
                    2                    3                    1                    4  -3.9412861863041826E-011
                    2                    3                    3                    2   4.3199110955072229E-011
                    2                    4                    1                    3  -3.1657454435674026E-011
                    2                    4                    3                    1   3.1657468313461834E-011
                    3                    1                    2                    4  -3.1657468313461834E-011
                    3                    1                    4                    2   3.1657454435674026E-011
                    3                    2                    2                    3  -4.3199110955072229E-011
                    3                    2                    4                    1   3.9414582708729995E-011
                    3                    4                    4                    3  -3.7854996914887806E-012
                    4                    1                    1                    4   4.3199110955072229E-011
                    4                    1                    3                    2  -3.9414582708729995E-011
                    4                    2                    1                    3   3.1657440557886218E-011
                    4                    2                    3                    1  -3.1657454435674026E-011
                    4                    3                    3                    4   3.7854996914887806E-012
 TWO-BODY ANTISYMMETRY CHECK
 TRANSFORMED ~FOCK~ MATRIX
    1    1        -0.6031625442
    1    3         0.0032092458
    2    2        -0.4523929099
    2    4        -0.0090981094
    3    1         0.0032092458
    3    3         0.0347747384
    4    2        -0.0090981094
    4    4         0.2164224794
 begin_one_electron_integrals
    1    1        -1.5840402565
    1    3         0.1329475600
    2    2        -1.3769492902
    2    4        -0.1417940290
    3    1         0.1329475600
    3    3        -1.1270841860
    4    2        -0.1417940290
    4    4        -0.7815634359
 end_one_electron_integrals
 begin_two_electron_integrals
    1    1    1    1        0.4049417002
    1    1    1    3       -0.0604631153
    1    2    1    2        0.1216444370
    1    2    1    4        0.0339298474
    1    3    1    1       -0.0604631153
    1    3    1    3        0.0798078120
    1    4    1    2        0.0339298474
    1    4    1    4        0.0432903502
    1    1    2    2        0.3499513381
    1    1    2    4        0.0654695654
    1    2    2    1        0.1239666643
    1    2    2    3        0.0619136198
    1    3    2    2       -0.0036807895
    1    3    2    4       -0.0422914848
    1    4    2    1        0.0335212831
    1    4    2    3       -0.0149937162
    1    1    3    1       -0.0604631153
    1    1    3    3        0.3337996094
    1    2    3    2        0.0646985474
    1    2    3    4       -0.0716235019
    1    3    3    1        0.0729684387
    1    3    3    3       -0.0137113221
    1    4    3    2       -0.0146997365
    1    4    3    4       -0.0100229113
    1    1    4    2        0.0654695654
    1    1    4    4        0.2728193809
    1    2    4    1        0.0335212831
    1    2    4    3       -0.0711199482
    1    3    4    2       -0.0400752518
    1    3    4    4       -0.0150272524
    1    4    4    1        0.0351271965
    1    4    4    3       -0.0105405162
    2    1    1    2        0.1239666643
    2    1    1    4        0.0335212831
    2    2    1    1        0.3499513382
    2    2    1    3       -0.0036807895
    2    3    1    2        0.0619136198
    2    3    1    4       -0.0149937162
    2    4    1    1        0.0654695654
    2    4    1    3       -0.0422914848
    2    1    2    1        0.1216444370
    2    1    2    3        0.0646985474
    2    2    2    2        0.3486203684
    2    2    2    4        0.0352780718
    2    3    2    1        0.0646985474
    2    3    2    3        0.0948991628
    2    4    2    2        0.0352780718
    2    4    2    4        0.0444515551
    2    1    3    2        0.0619136198
    2    1    3    4       -0.0711199482
    2    2    3    1       -0.0036807895
    2    2    3    3        0.3241566682
    2    3    3    2        0.0810851921
    2    3    3    4       -0.0434435069
    2    4    3    1       -0.0400752518
    2    4    3    3        0.0256458151
    2    1    4    1        0.0339298474
    2    1    4    3       -0.0716235019
    2    2    4    2        0.0352780718
    2    2    4    4        0.2636154391
    2    3    4    1       -0.0146997365
    2    3    4    3       -0.0404240118
    2    4    4    2        0.0397565282
    2    4    4    4        0.0169822339
    3    1    1    1       -0.0604631153
    3    1    1    3        0.0729684387
    3    2    1    2        0.0646985474
    3    2    1    4       -0.0146997365
    3    3    1    1        0.3337996094
    3    3    1    3       -0.0137113221
    3    4    1    2       -0.0716235019
    3    4    1    4       -0.0100229113
    3    1    2    2       -0.0036807895
    3    1    2    4       -0.0400752518
    3    2    2    1        0.0619136198
    3    2    2    3        0.0810851921
    3    3    2    2        0.3241566682
    3    3    2    4        0.0256458151
    3    4    2    1       -0.0711199482
    3    4    2    3       -0.0434435069
    3    1    3    1        0.0798078120
    3    1    3    3       -0.0137113221
    3    2    3    2        0.0948991628
    3    2    3    4       -0.0404240118
    3    3    3    1       -0.0137113221
    3    3    3    3        0.3038744641
    3    4    3    2       -0.0404240118
    3    4    3    4        0.0624555576
    3    1    4    2       -0.0422914848
    3    1    4    4       -0.0150272524
    3    2    4    1       -0.0149937162
    3    2    4    3       -0.0434435069
    3    3    4    2        0.0256458151
    3    3    4    4        0.2526524545
    3    4    4    1       -0.0105405162
    3    4    4    3        0.0626672900
    4    1    1    2        0.0335212831
    4    1    1    4        0.0351271965
    4    2    1    1        0.0654695654
    4    2    1    3       -0.0400752518
    4    3    1    2       -0.0711199482
    4    3    1    4       -0.0105405162
    4    4    1    1        0.2728193809
    4    4    1    3       -0.0150272524
    4    1    2    1        0.0339298474
    4    1    2    3       -0.0146997365
    4    2    2    2        0.0352780718
    4    2    2    4        0.0397565282
    4    3    2    1       -0.0716235019
    4    3    2    3       -0.0404240118
    4    4    2    2        0.2636154391
    4    4    2    4        0.0169822339
    4    1    3    2       -0.0149937162
    4    1    3    4       -0.0105405162
    4    2    3    1       -0.0422914848
    4    2    3    3        0.0256458151
    4    3    3    2       -0.0434435069
    4    3    3    4        0.0626672900
    4    4    3    1       -0.0150272524
    4    4    3    3        0.2526524545
    4    1    4    1        0.0432903502
    4    1    4    3       -0.0100229113
    4    2    4    2        0.0444515551
    4    2    4    4        0.0169822339
    4    3    4    1       -0.0100229113
    4    3    4    3        0.0624555576
    4    4    4    2        0.0169822339
    4    4    4    4        0.2380212332
 end_two_electron_integrals

 Parallel integral file used       7 records with       0 large values


 Task  times  cpu:      109.8s     wall:      110.9s


                                NWChem Input Module
                                -------------------


 Summary of allocated global arrays
-----------------------------------
  No active global arrays


MA_summarize_allocated_blocks: starting scan ...
MA_summarize_allocated_blocks: scan completed: 0 heap blocks, 0 stack blocks
MA usage statistics:

	allocation statistics:
					      heap	     stack
					      ----	     -----
	current number of blocks	         0	         0
	maximum number of blocks	        17	        42
	current total bytes		         0	         0
	maximum total bytes		  22559232	4101638264
	maximum total K-bytes		     22560	   4101639
	maximum total M-bytes		        23	      4102


                                     CITATION
                                     --------
                Please cite the following reference when publishing
                           results obtained with NWChem:

          E. Apra, E. J. Bylaska, W. A. de Jong, N. Govind, K. Kowalski,
       T. P. Straatsma, M. Valiev, H. J. J. van Dam, Y. Alexeev, J. Anchell,
       V. Anisimov, F. W. Aquino, R. Atta-Fynn, J. Autschbach, N. P. Bauman,
     J. C. Becca, D. E. Bernholdt, K. Bhaskaran-Nair, S. Bogatko, P. Borowski,
         J. Boschen, J. Brabec, A. Bruner, E. Cauet, Y. Chen, G. N. Chuev,
      C. J. Cramer, J. Daily, M. J. O. Deegan, T. H. Dunning Jr., M. Dupuis,
   K. G. Dyall, G. I. Fann, S. A. Fischer, A. Fonari, H. Fruchtl, L. Gagliardi,
      J. Garza, N. Gawande, S. Ghosh, K. Glaesemann, A. W. Gotz, J. Hammond,
       V. Helms, E. D. Hermes, K. Hirao, S. Hirata, M. Jacquelin, L. Jensen,
   B. G. Johnson, H. Jonsson, R. A. Kendall, M. Klemm, R. Kobayashi, V. Konkov,
      S. Krishnamoorthy, M. Krishnan, Z. Lin, R. D. Lins, R. J. Littlefield,
      A. J. Logsdail, K. Lopata, W. Ma, A. V. Marenich, J. Martin del Campo,
   D. Mejia-Rodriguez, J. E. Moore, J. M. Mullin, T. Nakajima, D. R. Nascimento,
    J. A. Nichols, P. J. Nichols, J. Nieplocha, A. Otero-de-la-Roza, B. Palmer,
    A. Panyala, T. Pirojsirikul, B. Peng, R. Peverati, J. Pittner, L. Pollack,
   R. M. Richard, P. Sadayappan, G. C. Schatz, W. A. Shelton, D. W. Silverstein,
   D. M. A. Smith, T. A. Soares, D. Song, M. Swart, H. L. Taylor, G. S. Thomas,
            V. Tipparaju, D. G. Truhlar, K. Tsemekhman, T. Van Voorhis,
      A. Vazquez-Mayagoitia, P. Verma, O. Villa, A. Vishnu, K. D. Vogiatzis,
        D. Wang, J. H. Weare, M. J. Williamson, T. L. Windus, K. Wolinski,
        A. T. Wong, Q. Wu, C. Yang, Q. Yu, M. Zacharias, Z. Zhang, Y. Zhao,
                                and R. J. Harrison
                        "NWChem: Past, present, and future
                         J. Chem. Phys. 152, 184102 (2020)
                               doi:10.1063/5.0004997

                                      AUTHORS
                                      -------
  E. Apra, E. J. Bylaska, N. Govind, K. Kowalski, M. Valiev, D. Mejia-Rodriguez,
       A. Kunitsa, N. P. Bauman, A. Panyala, W. A. de Jong, T. P. Straatsma,
        H. J. J. van Dam, D. Wang, T. L. Windus, J. Hammond, J. Autschbach,
    K. Bhaskaran-Nair, J. Brabec, K. Lopata, S. A. Fischer, S. Krishnamoorthy,
     M. Jacquelin, W. Ma, M. Klemm, O. Villa, Y. Chen, V. Anisimov, F. Aquino,
    S. Hirata, M. T. Hackler, Eric Hermes, L. Jensen, J. E. Moore, J. C. Becca,
      V. Konjkov, T. Risthaus, M. Malagoli, A. Marenich, A. Otero-de-la-Roza,
        J. Mullin, P. Nichols, R. Peverati, J. Pittner, Y. Zhao, P.-D. Fan,
        A. Fonari, M. J. Williamson, R. J. Harrison, J. R. Rehr, M. Dupuis,
     D. Silverstein, D. M. A. Smith, J. Nieplocha, V. Tipparaju, M. Krishnan,
     B. E. Van Kuiken, A. Vazquez-Mayagoitia, M. Swart, Q. Wu, T. Van Voorhis,
     A. A. Auer, M. Nooijen, L. D. Crosby, E. Brown, G. Cisneros, G. I. Fann,
   H. Fruchtl, J. Garza, K. Hirao, R. A. Kendall, J. A. Nichols, K. Tsemekhman,
    K. Wolinski, J. Anchell, D. E. Bernholdt, P. Borowski, T. Clark, D. Clerc,
   H. Dachsel, M. J. O. Deegan, K. Dyall, D. Elwood, E. Glendening, M. Gutowski,
   A. C. Hess, J. Jaffe, B. G. Johnson, J. Ju, R. Kobayashi, R. Kutteh, Z. Lin,
   R. Littlefield, X. Long, B. Meng, T. Nakajima, S. Niu, L. Pollack, M. Rosing,
   K. Glaesemann, G. Sandrone, M. Stave, H. Taylor, G. Thomas, J. H. van Lenthe,
                               A. T. Wong, Z. Zhang.

 Total times  cpu:      109.8s     wall:      110.9s
