 argument  1 = input.nw
  NWChem w/ OpenMP: maximum threads =    1



============================== echo of input deck ==============================

echo
start H4
title "H4"

memory total 12 gb

geometry units bohr
symmetry c1
H 0 0 0
H 0 0 2.56
H 0 0 5.12
H 0 0 7.68
end

basis spherical
  * library cc-pVTZ
end

scf
  vectors input H4.mos
  vectors output H4.mos
end

tce
  2eorb
  2emet 13
  ccsd
  maxiter 300
end

# set tce:print_integrals T
# set tce:qorb 4
# set tce:qela 2
# set tce:qelb 2

set tce:qducc T
set tce:nactv 2
set tce:nonhf T
set tce:ducc_model 6

set tce:printtol 0.02

task tce
================================================================================


                                         
                                         


             Northwest Computational Chemistry Package (NWChem) 7.0.1
             --------------------------------------------------------


                    Environmental Molecular Sciences Laboratory
                       Pacific Northwest National Laboratory
                                Richland, WA 99352

                              Copyright (c) 1994-2020
                       Pacific Northwest National Laboratory
                            Battelle Memorial Institute

             NWChem is an open-source computational chemistry package
                        distributed under the terms of the
                      Educational Community License (ECL) 2.0
             A copy of the license is included with this distribution
                              in the LICENSE.TXT file

                                  ACKNOWLEDGMENT
                                  --------------

            This software and its documentation were developed at the
            EMSL at Pacific Northwest National Laboratory, a multiprogram
            national laboratory, operated for the U.S. Department of Energy
            by Battelle under Contract Number DE-AC05-76RL01830. Support
            for this work was provided by the Department of Energy Office
            of Biological and Environmental Research, Office of Basic
            Energy Sciences, and the Office of Advanced Scientific Computing.


           Job information
           ---------------

    hostname        = WE46210
    program         = /home/baum612/code/nwchem/bin/LINUX64/nwchem
    date            = Fri Nov  1 11:57:11 2024

    compiled        = Wed_Sep_04_02:00:17_2024
    source          = /home/baum612/code/nwchem
    nwchem branch   = 7.0.0
    nwchem revision = nwchem_on_git-4191-g39d87d64de
    ga revision     = 5.8.1
    use scalapack   = F
    input           = input.nw
    prefix          = H4.
    data base       = ./H4.db
    status          = startup
    nproc           =        1
    time left       =     -1s



           Memory information
           ------------------

    heap     =  402653182 doubles =   3072.0 Mbytes
    stack    =  402653179 doubles =   3072.0 Mbytes
    global   =  805306368 doubles =   6144.0 Mbytes (distinct from heap & stack)
    total    = 1610612729 doubles =  12288.0 Mbytes
    verify   = yes
    hardfail = no 


           Directory information
           ---------------------

  0 permanent = .
  0 scratch   = .




                                NWChem Input Module
                                -------------------


                                        H4
                                        --
 Turning off AUTOSYM since
 SYMMETRY directive was detected!


          ------
          auto-z
          ------
     1 autoz failed with cvr_scaling = 1.2 changing to 1.3
     2 autoz failed with cvr_scaling = 1.3 changing to 1.4
     3 autoz failed with cvr_scaling = 1.4 changing to 1.5
     4 autoz failed with cvr_scaling = 1.5 changing to 1.6
     5 autoz failed with cvr_scaling = 1.6 changing to 1.7
  autoz: angle generation failed due to 4 colinear atoms                     1                    2                    3                    4

 AUTOZ failed to generate good internal coordinates.
 Cartesian coordinates will be used in optimizations.



                             Geometry "geometry" -> ""
                             -------------------------

 Output coordinates in a.u. (scale by  1.000000000 to convert to a.u.)

  No.       Tag          Charge          X              Y              Z
 ---- ---------------- ---------- -------------- -------------- --------------
    1 H                    1.0000     0.00000000     0.00000000    -3.84000000
    2 H                    1.0000     0.00000000     0.00000000    -1.28000000
    3 H                    1.0000     0.00000000     0.00000000     1.28000000
    4 H                    1.0000     0.00000000     0.00000000     3.84000000

      Atomic Mass 
      ----------- 

      H                  1.007825


 Effective nuclear repulsion energy (a.u.)       1.6927083333

            Nuclear Dipole moment (a.u.) 
            ----------------------------
        X                 Y               Z
 ---------------- ---------------- ----------------
     0.0000000000     0.0000000000     0.0000000000


            XYZ format geometry
            -------------------
     4
 geometry
 H                     0.00000000     0.00000000    -2.03204064
 H                     0.00000000     0.00000000    -0.67734688
 H                     0.00000000     0.00000000     0.67734688
 H                     0.00000000     0.00000000     2.03204064



 Summary of "ao basis" -> "" (spherical)
 ------------------------------------------------------------------------------
       Tag                 Description            Shells   Functions and Types
 ---------------- ------------------------------  ------  ---------------------
 *                          cc-pVTZ                   on all atoms 


                      Basis "ao basis" -> "ao basis" (spherical)
                      -----
  H (Hydrogen)
  ------------
            Exponent  Coefficients 
       -------------- ---------------------------------------------------------
  1 S  3.38700000E+01  0.006068
  1 S  5.09500000E+00  0.045308
  1 S  1.15900000E+00  0.202822

  2 S  3.25800000E-01  1.000000

  3 S  1.02700000E-01  1.000000

  4 P  1.40700000E+00  1.000000

  5 P  3.88000000E-01  1.000000

  6 D  1.05700000E+00  1.000000



 Summary of "ao basis" -> "ao basis" (spherical)
 ------------------------------------------------------------------------------
       Tag                 Description            Shells   Functions and Types
 ---------------- ------------------------------  ------  ---------------------
 H                          cc-pVTZ                  6       14   3s2p1d


                                 NWChem SCF Module
                                 -----------------


                                        H4



  ao basis        = "ao basis"
  functions       =    56
  atoms           =     4
  closed shells   =     2
  open shells     =     0
  charge          =   0.00
  wavefunction    = RHF 
  input vectors   = ./H4.mos
  output vectors  = ./H4.mos
  use symmetry    = F
  symmetry adapt  = F


 Summary of "ao basis" -> "ao basis" (spherical)
 ------------------------------------------------------------------------------
       Tag                 Description            Shells   Functions and Types
 ---------------- ------------------------------  ------  ---------------------
 H                          cc-pVTZ                  6       14   3s2p1d



 Forming initial guess at       0.0s


 Loading old vectors from job with title :

H4


 Starting SCF solution at       0.0s



 ----------------------------------------------
         Quadratically convergent ROHF

 Convergence threshold     :          1.000E-04
 Maximum no. of iterations :           30
 Final Fock-matrix accuracy:          1.000E-07
 ----------------------------------------------


 Integral file          = ./H4.aoints.0
 Record size in doubles =  65536        No. of integs per rec  =  43688
 Max. records in memory =     43        Max. records in file   = 229910
 No. of bits per label  =      8        No. of bits per value  =     64


 #quartets = 3.937D+04 #integrals = 2.244D+05 #direct =  0.0% #cached =100.0%


              iter       energy          gnorm     gmax       time
             ----- ------------------- --------- --------- --------
                 1       -2.0594857258  5.68D-03  3.87D-03      0.2
                 2       -2.0594884537  8.15D-06  4.72D-06      0.2


       Final RHF  results 
       ------------------ 

         Total SCF energy =     -2.059488453746
      One-electron energy =     -5.607503352726
      Two-electron energy =      1.855306565646
 Nuclear repulsion energy =      1.692708333333

        Time for solution =      0.1s


             Final eigenvalues
             -----------------

              1      
    1   -0.5402
    2   -0.4083
    3   -0.0033
    4    0.1840
    5    0.3504
    6    0.4236
    7    0.4573
    8    0.5734
    9    0.5985
   10    0.5985
   11    0.7032
   12    0.7032

                       ROHF Final Molecular Orbital Analysis
                       -------------------------------------

 Vector    1  Occ=2.000000D+00  E=-5.401788D-01
              MO Center= -6.3D-17,  1.3D-16, -2.2D-12, r^2= 2.3D+00
   Bfn.  Coefficient  Atom+Function         Bfn.  Coefficient  Atom+Function  
  ----- ------------  ---------------      ----- ------------  ---------------
    16      0.225398  2 H  s                 30      0.225398  3 H  s          
     2      0.159746  1 H  s                 44      0.159746  4 H  s          

 Vector    2  Occ=2.000000D+00  E=-4.082663D-01
              MO Center= -2.9D-16,  4.5D-16,  4.1D-12, r^2= 3.8D+00
   Bfn.  Coefficient  Atom+Function         Bfn.  Coefficient  Atom+Function  
  ----- ------------  ---------------      ----- ------------  ---------------
     2      0.225714  1 H  s                 44     -0.225714  4 H  s          
    17      0.223413  2 H  s                 31     -0.223413  3 H  s          
     3      0.203114  1 H  s                 45     -0.203114  4 H  s          
    16      0.170996  2 H  s                 30     -0.170996  3 H  s          

 Vector    3  Occ=0.000000D+00  E=-3.300253D-03
              MO Center=  4.1D-17, -4.9D-17, -3.8D-12, r^2= 4.9D+00
   Bfn.  Coefficient  Atom+Function         Bfn.  Coefficient  Atom+Function  
  ----- ------------  ---------------      ----- ------------  ---------------
     3      0.619882  1 H  s                 45      0.619882  4 H  s          
    17     -0.388258  2 H  s                 31     -0.388258  3 H  s          
     2      0.167589  1 H  s                 44      0.167589  4 H  s          

 Vector    4  Occ=0.000000D+00  E= 1.840117D-01
              MO Center= -1.6D-16, -1.8D-16,  6.5D-13, r^2= 6.9D+00
   Bfn.  Coefficient  Atom+Function         Bfn.  Coefficient  Atom+Function  
  ----- ------------  ---------------      ----- ------------  ---------------
    17      1.830881  2 H  s                 31     -1.830881  3 H  s          
     3     -1.296339  1 H  s                 45      1.296339  4 H  s          
    16      0.175429  2 H  s                 30     -0.175429  3 H  s          

 Vector    5  Occ=0.000000D+00  E= 3.504497D-01
              MO Center=  1.3D-15,  4.8D-16, -4.9D-12, r^2= 5.4D+00
   Bfn.  Coefficient  Atom+Function         Bfn.  Coefficient  Atom+Function  
  ----- ------------  ---------------      ----- ------------  ---------------
     2      0.699698  1 H  s                 44      0.699698  4 H  s          
     3     -0.688856  1 H  s                 45     -0.688856  4 H  s          
    16      0.606169  2 H  s                 30      0.606169  3 H  s          
    17     -0.493431  2 H  s                 31     -0.493431  3 H  s          

 Vector    6  Occ=0.000000D+00  E= 4.236053D-01
              MO Center=  1.7D-16,  4.4D-17, -4.7D-12, r^2= 6.5D+00
   Bfn.  Coefficient  Atom+Function         Bfn.  Coefficient  Atom+Function  
  ----- ------------  ---------------      ----- ------------  ---------------
     2      0.956008  1 H  s                 44     -0.956008  4 H  s          
     3     -0.943675  1 H  s                 45      0.943675  4 H  s          
    17     -0.299521  2 H  s                 31      0.299521  3 H  s          

 Vector    7  Occ=0.000000D+00  E= 4.573373D-01
              MO Center=  4.7D-16,  2.0D-16,  9.5D-12, r^2= 6.0D+00
   Bfn.  Coefficient  Atom+Function         Bfn.  Coefficient  Atom+Function  
  ----- ------------  ---------------      ----- ------------  ---------------
     3      1.256556  1 H  s                 45      1.256556  4 H  s          
    17     -1.196540  2 H  s                 31     -1.196540  3 H  s          
    16      0.759196  2 H  s                 30      0.759196  3 H  s          
     2     -0.622554  1 H  s                 44     -0.622554  4 H  s          
    23      0.154402  2 H  pz                37     -0.154402  3 H  pz         

 Vector    8  Occ=0.000000D+00  E= 5.734285D-01
              MO Center= -1.1D-16, -2.4D-18,  9.2D-13, r^2= 4.8D+00
   Bfn.  Coefficient  Atom+Function         Bfn.  Coefficient  Atom+Function  
  ----- ------------  ---------------      ----- ------------  ---------------
    17      3.678508  2 H  s                 31     -3.678508  3 H  s          
     3     -1.301757  1 H  s                 45      1.301757  4 H  s          
    16     -1.182237  2 H  s                 30      1.182237  3 H  s          
     2      0.155659  1 H  s                 44     -0.155659  4 H  s          

 Vector    9  Occ=0.000000D+00  E= 5.984691D-01
              MO Center= -1.4D-15, -1.4D-15, -3.0D-12, r^2= 2.3D+00
   Bfn.  Coefficient  Atom+Function         Bfn.  Coefficient  Atom+Function  
  ----- ------------  ---------------      ----- ------------  ---------------
    22      0.401754  2 H  py                36      0.401754  3 H  py         
    21      0.334377  2 H  px                35      0.334377  3 H  px         
     8      0.246918  1 H  py                50      0.246918  4 H  py         
     7      0.205508  1 H  px                49      0.205508  4 H  px         

 Vector   10  Occ=0.000000D+00  E= 5.984691D-01
              MO Center= -7.2D-16,  6.9D-16, -3.0D-12, r^2= 2.3D+00
   Bfn.  Coefficient  Atom+Function         Bfn.  Coefficient  Atom+Function  
  ----- ------------  ---------------      ----- ------------  ---------------
    21      0.401754  2 H  px                35      0.401754  3 H  px         
    22     -0.334377  2 H  py                36     -0.334377  3 H  py         
     7      0.246918  1 H  px                49      0.246918  4 H  px         
     8     -0.205508  1 H  py                50     -0.205508  4 H  py         

 Vector   11  Occ=0.000000D+00  E= 7.032049D-01
              MO Center=  2.0D-16, -8.6D-17, -6.7D-14, r^2= 4.0D+00
   Bfn.  Coefficient  Atom+Function         Bfn.  Coefficient  Atom+Function  
  ----- ------------  ---------------      ----- ------------  ---------------
     7      0.588132  1 H  px                49     -0.588132  4 H  px         
    21      0.359064  2 H  px                35     -0.359064  3 H  px         

 Vector   12  Occ=0.000000D+00  E= 7.032049D-01
              MO Center=  2.7D-16, -5.7D-16, -8.7D-14, r^2= 4.0D+00
   Bfn.  Coefficient  Atom+Function         Bfn.  Coefficient  Atom+Function  
  ----- ------------  ---------------      ----- ------------  ---------------
     8      0.588132  1 H  py                50     -0.588132  4 H  py         
    22      0.359064  2 H  py                36     -0.359064  3 H  py         


 center of mass
 --------------
 x =   0.00000000 y =   0.00000000 z =   0.00000000

 moments of inertia (a.u.)
 ------------------
          33.024409600000           0.000000000000           0.000000000000
           0.000000000000          33.024409600000           0.000000000000
           0.000000000000           0.000000000000           0.000000000000

  Mulliken analysis of the total density
  --------------------------------------

    Atom       Charge   Shell Charges
 -----------   ------   -------------------------------------------------------
    1 H    1     0.97   0.15  0.44  0.37  0.00  0.01  0.00
    2 H    1     1.03   0.16  0.47  0.39  0.00  0.02  0.00
    3 H    1     1.03   0.16  0.47  0.39  0.00  0.02  0.00
    4 H    1     0.97   0.15  0.44  0.37  0.00  0.01  0.00

       Multipole analysis of the density wrt the origin
       ------------------------------------------------

     L   x y z        total         open         nuclear
     -   - - -        -----         ----         -------
     0   0 0 0      0.000000      0.000000      4.000000

     1   1 0 0      0.000000      0.000000      0.000000
     1   0 1 0     -0.000000      0.000000      0.000000
     1   0 0 1     -0.000000      0.000000      0.000000

     2   2 0 0     -4.245148      0.000000      0.000000
     2   1 1 0      0.000000      0.000000      0.000000
     2   1 0 1      0.000000      0.000000      0.000000
     2   0 2 0     -4.245148      0.000000      0.000000
     2   0 1 1     -0.000000      0.000000      0.000000
     2   0 0 2     -1.839586      0.000000     32.768000


 Parallel integral file used       6 records with       0 large values

                   NWChem Extensible Many-Electron Theory Module
                   ---------------------------------------------

              ======================================================
                   This portion of the program was automatically
                  generated by a Tensor Contraction Engine (TCE).
                  The development of this portion of the program
                 and TCE was supported by US Department of Energy,
                Office of Science, Office of Basic Energy Science.
                      TCE is a product of Battelle and PNNL.
              Please cite: S.Hirata, J.Phys.Chem.A 107, 9887 (2003).
              ======================================================

                                        H4


            General Information
            -------------------
      Number of processors :     1
         Wavefunction type : Restricted Hartree-Fock
          No. of electrons :     4
           Alpha electrons :     2
            Beta electrons :     2
           No. of orbitals :   112
            Alpha orbitals :    56
             Beta orbitals :    56
        Alpha frozen cores :     0
         Beta frozen cores :     0
     Alpha frozen virtuals :     0
      Beta frozen virtuals :     0
         Spin multiplicity : singlet 
    Number of AO functions :    56
       Number of AO shells :    24
        Use of symmetry is : off
      Symmetry adaption is : off
         Schwarz screening : 0.10D-09

          Correlation Information
          -----------------------
          Calculation type : Coupled-cluster singles & doubles                           
   Perturbative correction : none                                                        
            Max iterations :      300
        Residual threshold : 0.10D-06
     T(0) DIIS level shift : 0.00D+00
     L(0) DIIS level shift : 0.00D+00
     T(1) DIIS level shift : 0.00D+00
     L(1) DIIS level shift : 0.00D+00
     T(R) DIIS level shift : 0.00D+00
     T(I) DIIS level shift : 0.00D+00
   CC-T/L Amplitude update :  5-th order DIIS
                I/O scheme : Global Array Library
        L-threshold :  0.10D-06
        EOM-threshold :  0.10D-06
 no EOMCCSD initial starts read in
 TCE RESTART OPTIONS
 READ_INT:   F
 WRITE_INT:  F
 READ_TA:    F
 WRITE_TA:   F
 READ_XA:    F
 WRITE_XA:   F
 READ_IN3:   F
 WRITE_IN3:  F
 SLICE:      F
 D4D5:       F
 quantumc:   F
 qrotation:  F
 pwtce:      F
 qducc:      T
 nacto:                         0
 nrotv:                         0
 nrot:                          0

            Memory Information
            ------------------
          Available GA space size is     805303232 doubles
          Available MA space size is     805304268 doubles

 Maximum block size        32 doubles

 tile_dim =     27

 Block   Spin    Irrep     Size     Offset   Alpha
 -------------------------------------------------
   1    alpha     a      2 doubles       0       1
   2    beta      a      2 doubles       2       1
   3    alpha     a     27 doubles       4       3
   4    alpha     a     27 doubles      31       4
   5    beta      a     27 doubles      58       3
   6    beta      a     27 doubles      85       4

 Global array virtual files algorithm will be used

 Parallel file system coherency ......... OK

 Integral file          = ./H4.aoints.0
 Record size in doubles =  65536        No. of integs per rec  =  43688
 Max. records in memory =     43        Max. records in file   = 229910
 No. of bits per label  =      8        No. of bits per value  =     64


 #quartets = 4.178D+04 #integrals = 2.625D+05 #direct =  0.0% #cached =100.0%


 Fock matrix recomputed
 1-e file size   =             3136
 1-e file name   = ./H4.f1
 Cpu & wall time / sec            0.1            0.1
 4-electron integrals stored in orbital form

 v2    file size   =          3442786
 4-index algorithm nr.  13 is used
 imaxsize =       30
 imaxsize ichop =        0
 Cpu & wall time / sec            1.4            1.5
 T1-number-of-tasks                    2

 t1 file size   =              108
 t1 file name   = ./H4.t1
 t1 file handle =       -998
 T2-number-of-boxes                    7

 t2 file size   =            20412
 t2 file name   = ./H4.t2
 t2 file handle =       -996
CCSD iterations
 ---------------------------------------------------------
 Iter          Residuum       Correlation     Cpu    Wall 
 ---------------------------------------------------------
NEW TASK SCHEDULING
CCSD_T1_NTS --- OK
CCSD_T2_NTS --- OK
    1   0.1195684028577  -0.0803401211086     0.1     0.1
    2   0.0538640385458  -0.0978614752360     0.1     0.1
    3   0.0289466325022  -0.1052968278215     0.1     0.1
    4   0.0168866175789  -0.1089392024571     0.1     0.1
    5   0.0104354990546  -0.1109068971667     0.1     0.1
 MICROCYCLE DIIS UPDATE:                    5                    5
    6   0.0029615974865  -0.1137139029073     0.1     0.1
    7   0.0018458612498  -0.1136248596136     0.1     0.1
    8   0.0012462587913  -0.1136314267615     0.1     0.1
    9   0.0009310614648  -0.1136351481475     0.1     0.1
   10   0.0006812719488  -0.1136476440385     0.1     0.1
 MICROCYCLE DIIS UPDATE:                   10                    5
   11   0.0001327170891  -0.1136888070476     0.1     0.1
   12   0.0000605769154  -0.1137025474248     0.1     0.1
   13   0.0000338327858  -0.1137097759100     0.1     0.1
   14   0.0000201132336  -0.1137135874545     0.1     0.1
   15   0.0000125246122  -0.1137157682601     0.1     0.1
 MICROCYCLE DIIS UPDATE:                   15                    5
   16   0.0000037904161  -0.1137189586134     0.1     0.1
   17   0.0000025123521  -0.1137188996327     0.1     0.1
   18   0.0000016526945  -0.1137189077159     0.1     0.1
   19   0.0000012458098  -0.1137189130076     0.1     0.1
   20   0.0000009062633  -0.1137189315876     0.1     0.1
 MICROCYCLE DIIS UPDATE:                   20                    5
   21   0.0000001679077  -0.1137189911650     0.1     0.1
   22   0.0000000756558  -0.1137190084999     0.1     0.1
 -----------------------------------------------------------------
 Iterations converged
 CCSD correlation energy / hartree =        -0.113719008499873
 CCSD total energy / hartree       =        -2.173207462245969

 Singles contributions
     6a   (alpha) ---     2a   (alpha)        0.0311724142

 Doubles contributions
     3a   (alpha)     4a   (alpha) ---     1a   (alpha)     2a   (alpha)        0.0368797770
     3a   (alpha)     4a   (alpha) ---     2a   (alpha)     1a   (alpha)       -0.0368797770
     4a   (alpha)     3a   (alpha) ---     1a   (alpha)     2a   (alpha)       -0.0368797770
     4a   (alpha)     3a   (alpha) ---     2a   (alpha)     1a   (alpha)        0.0368797770
     3a   (alpha)     3a   (beta ) ---     1a   (alpha)     1a   (beta )       -0.0822193784
     3a   (alpha)     3a   (beta ) ---     2a   (alpha)     2a   (beta )       -0.2260284650
     3a   (alpha)     4a   (beta ) ---     1a   (alpha)     2a   (beta )        0.0865227639
     3a   (alpha)     4a   (beta ) ---     2a   (alpha)     1a   (beta )        0.0496429869
     3a   (alpha)     5a   (beta ) ---     2a   (alpha)     2a   (beta )       -0.0411564654
     3a   (alpha)     6a   (beta ) ---     1a   (alpha)     2a   (beta )       -0.0581432823
     3a   (alpha)     6a   (beta ) ---     2a   (alpha)     1a   (beta )       -0.0467140687
     3a   (alpha)     7a   (beta ) ---     1a   (alpha)     1a   (beta )        0.0382779568
     3a   (alpha)     7a   (beta ) ---     2a   (alpha)     2a   (beta )        0.0548996645
     3a   (alpha)     8a   (beta ) ---     1a   (alpha)     2a   (beta )       -0.0453825833
     3a   (alpha)     8a   (beta ) ---     2a   (alpha)     1a   (beta )       -0.0284451338
     4a   (alpha)     3a   (beta ) ---     1a   (alpha)     2a   (beta )        0.0496429869
     4a   (alpha)     3a   (beta ) ---     2a   (alpha)     1a   (beta )        0.0865227639
     4a   (alpha)     4a   (beta ) ---     1a   (alpha)     1a   (beta )       -0.0577944071
     4a   (alpha)     4a   (beta ) ---     2a   (alpha)     2a   (beta )       -0.0464465144
     4a   (alpha)     6a   (beta ) ---     1a   (alpha)     1a   (beta )        0.0251508678
     4a   (alpha)     7a   (beta ) ---     2a   (alpha)     1a   (beta )       -0.0246800107
     4a   (alpha)     8a   (beta ) ---     1a   (alpha)     1a   (beta )        0.0343288817
     4a   (alpha)     8a   (beta ) ---     2a   (alpha)     2a   (beta )        0.0202075636
     5a   (alpha)     3a   (beta ) ---     2a   (alpha)     2a   (beta )       -0.0411564654
     5a   (alpha)     5a   (beta ) ---     2a   (alpha)     2a   (beta )       -0.0215890101
     6a   (alpha)     3a   (beta ) ---     1a   (alpha)     2a   (beta )       -0.0467140687
     6a   (alpha)     3a   (beta ) ---     2a   (alpha)     1a   (beta )       -0.0581432823
     6a   (alpha)     4a   (beta ) ---     1a   (alpha)     1a   (beta )        0.0251508678
     6a   (alpha)     6a   (beta ) ---     1a   (alpha)     1a   (beta )       -0.0207187690
     6a   (alpha)     6a   (beta ) ---     2a   (alpha)     2a   (beta )       -0.0279969451
     7a   (alpha)     3a   (beta ) ---     1a   (alpha)     1a   (beta )        0.0382779568
     7a   (alpha)     3a   (beta ) ---     2a   (alpha)     2a   (beta )        0.0548996645
     7a   (alpha)     4a   (beta ) ---     1a   (alpha)     2a   (beta )       -0.0246800107
     7a   (alpha)     7a   (beta ) ---     1a   (alpha)     1a   (beta )       -0.0209521934
     8a   (alpha)     3a   (beta ) ---     1a   (alpha)     2a   (beta )       -0.0284451338
     8a   (alpha)     3a   (beta ) ---     2a   (alpha)     1a   (beta )       -0.0453825833
     8a   (alpha)     4a   (beta ) ---     1a   (alpha)     1a   (beta )        0.0343288817
     8a   (alpha)     4a   (beta ) ---     2a   (alpha)     2a   (beta )        0.0202075636
     8a   (alpha)     8a   (beta ) ---     1a   (alpha)     1a   (beta )       -0.0236563801
     9a   (alpha)     9a   (beta ) ---     1a   (alpha)     1a   (beta )       -0.0261128088
    10a   (alpha)    10a   (beta ) ---     1a   (alpha)     1a   (beta )       -0.0261128088
    11a   (alpha)    11a   (beta ) ---     2a   (alpha)     2a   (beta )       -0.0208841737
    12a   (alpha)    12a   (beta ) ---     2a   (alpha)     2a   (beta )       -0.0208841737
 Ground state specification:
 exp(T)|Ref>~(1+T)|Ref>
 ------- a(p)+/a(q) strings ----------

 singles norm

 doubles norm

 Reference string
  0.97539445408941805      :(1a)+ (2a)+ (1b)+ (2b)+ |0>

 Singles strings

 Doubles strings
 -0.22046691119441442      :(3a)+ (3b)+ (2b)  (2a)  (1a)+ (2a)+ (1b)+ (2b)+ |0>
 -------------------------------------
 enrep_tce =    1.6927083333333333     
  EHF(total)         =        -2.05948845
  Shift (HFtot-HFA)  =         0.00000000
 ALL OCCUPIED ORBITALS ARE ACTIVE IN DUCC --> NO SHIFT
 Number of active orbitals                    4
 Number of active alpha electrons                    2
 Number of active beta electrons                    2
  nos                     4
  nvs                   108
 noas                     2
 nobs                     2
 nvas                    54
 nvbs                    54
 nactv                     2
 DUCC MODEL =                     6
 NONHF =  T
 F-T1 correlation    =    3.0858057374460953E-009
 V-T1-T1 correlation =    1.1763494939729890E-004
 V-T2 correlation    =  -0.11383664653600678     
 Total correlation   =  -0.11371900850080374     
 F-T1(Ext) correlation         =   -1.4684380741158859E-008
 V-T1(Ext)-T1(Ext) correlation =    1.1816649645013925E-004
 V-T2(Ext) correlation         =   -7.2025512888176338E-002
 Total Ext correlation         =   -7.1907361076106943E-002
1-BODY TIME =   45.322 SECONDS.
  HHHH TIME =   38.954 SECONDS.
  PPPP TIME =    0.340 SECONDS.
  HHHP TIME =    1.868 SECONDS.
  PPPH TIME =    0.511 SECONDS.
  HPHP TIME =    1.808 SECONDS.
  HHPP TIME =    0.710 SECONDS.
 ONE-BODY UNITARY CHECK
 TWO-BODY UNITARY CHECK
                    1                    2                    2                    1  -5.3706206148973479E-012
                    1                    3                    2                    4   5.3704513058860925E-011
                    1                    3                    4                    2  -5.3704485303285310E-011
                    1                    4                    2                    3   7.4746001055281397E-011
                    1                    4                    4                    1  -8.0116580036815321E-011
                    2                    1                    1                    2   5.3706206148973479E-012
                    2                    3                    1                    4  -7.4746001055281397E-011
                    2                    3                    3                    2   8.0116580036815321E-011
                    2                    4                    1                    3  -5.3704513058860925E-011
                    2                    4                    3                    1   5.3704540814436541E-011
                    3                    1                    2                    4  -5.3704540814436541E-011
                    3                    1                    4                    2   5.3704513058860925E-011
                    3                    2                    2                    3  -8.0116580036815321E-011
                    3                    2                    4                    1   7.4746250855461938E-011
                    3                    4                    4                    3  -5.3705928593217322E-012
                    4                    1                    1                    4   8.0116580036815321E-011
                    4                    1                    3                    2  -7.4746250855461938E-011
                    4                    2                    1                    3   5.3704485303285310E-011
                    4                    2                    3                    1  -5.3704513058860925E-011
                    4                    3                    3                    4   5.3705928593217322E-012
 TWO-BODY ANTISYMMETRY CHECK
 TRANSFORMED ~FOCK~ MATRIX
    1    1        -0.5696676006
    1    3         0.0029332486
    2    2        -0.4399400259
    2    4        -0.0077078467
    3    1         0.0029332486
    3    3         0.0120698677
    4    2        -0.0077078467
    4    4         0.1931501823
 begin_one_electron_integrals
    1    1        -1.4946884690
    1    3         0.1239728050
    2    2        -1.3165154436
    2    4        -0.1288883851
    3    1         0.1239728050
    3    3        -1.1131603371
    4    2        -0.1288883851
    4    4        -0.8426849483
 end_one_electron_integrals
 begin_two_electron_integrals
    1    1    1    1        0.3820010035
    1    1    1    3       -0.0566368495
    1    2    1    2        0.1206305138
    1    2    1    4        0.0310850433
    1    3    1    1       -0.0566368495
    1    3    1    3        0.0807788073
    1    4    1    2        0.0310850433
    1    4    1    4        0.0518496301
    1    1    2    2        0.3326954082
    1    1    2    4        0.0621876868
    1    2    2    1        0.1223709517
    1    2    2    3        0.0618231292
    1    3    2    2       -0.0012897889
    1    3    2    4       -0.0522174429
    1    4    2    1        0.0309457771
    1    4    2    3       -0.0238303344
    1    1    3    1       -0.0566368495
    1    1    3    3        0.3252995373
    1    2    3    2        0.0640084834
    1    2    3    4       -0.0834604714
    1    3    3    1        0.0759731426
    1    3    3    3       -0.0126120502
    1    4    3    2       -0.0231170190
    1    4    3    4       -0.0131516206
    1    1    4    2        0.0621876868
    1    1    4    4        0.2895012833
    1    2    4    1        0.0309457771
    1    2    4    3       -0.0831784696
    1    3    4    2       -0.0494819135
    1    3    4    4       -0.0233604070
    1    4    4    1        0.0437314931
    1    4    4    3       -0.0137659813
    2    1    1    2        0.1223709517
    2    1    1    4        0.0309457771
    2    2    1    1        0.3326954083
    2    2    1    3       -0.0012897889
    2    3    1    2        0.0618231292
    2    3    1    4       -0.0238303344
    2    4    1    1        0.0621876868
    2    4    1    3       -0.0522174429
    2    1    2    1        0.1206305137
    2    1    2    3        0.0640084834
    2    2    2    2        0.3335555530
    2    2    2    4        0.0277509420
    2    3    2    1        0.0640084834
    2    3    2    3        0.0953891011
    2    4    2    2        0.0277509420
    2    4    2    4        0.0515016116
    2    1    3    2        0.0618231292
    2    1    3    4       -0.0831784696
    2    2    3    1       -0.0012897889
    2    2    3    3        0.3168640759
    2    3    3    2        0.0831238789
    2    3    3    4       -0.0484590520
    2    4    3    1       -0.0494819135
    2    4    3    3        0.0210689181
    2    1    4    1        0.0310850433
    2    1    4    3       -0.0834604714
    2    2    4    2        0.0277509420
    2    2    4    4        0.2745654524
    2    3    4    1       -0.0231170190
    2    3    4    3       -0.0455964367
    2    4    4    2        0.0485668478
    2    4    4    4        0.0256337635
    3    1    1    1       -0.0566368495
    3    1    1    3        0.0759731426
    3    2    1    2        0.0640084834
    3    2    1    4       -0.0231170190
    3    3    1    1        0.3252995373
    3    3    1    3       -0.0126120502
    3    4    1    2       -0.0834604714
    3    4    1    4       -0.0131516206
    3    1    2    2       -0.0012897889
    3    1    2    4       -0.0494819135
    3    2    2    1        0.0618231292
    3    2    2    3        0.0831238789
    3    3    2    2        0.3168640759
    3    3    2    4        0.0210689181
    3    4    2    1       -0.0831784696
    3    4    2    3       -0.0484590520
    3    1    3    1        0.0807788073
    3    1    3    3       -0.0126120502
    3    2    3    2        0.0953891011
    3    2    3    4       -0.0455964367
    3    3    3    1       -0.0126120502
    3    3    3    3        0.3007673831
    3    4    3    2       -0.0455964367
    3    4    3    4        0.0709113382
    3    1    4    2       -0.0522174429
    3    1    4    4       -0.0233604070
    3    2    4    1       -0.0238303344
    3    2    4    3       -0.0484590520
    3    3    4    2        0.0210689181
    3    3    4    4        0.2623329313
    3    4    4    1       -0.0137659813
    3    4    4    3        0.0711861710
    4    1    1    2        0.0309457771
    4    1    1    4        0.0437314931
    4    2    1    1        0.0621876868
    4    2    1    3       -0.0494819135
    4    3    1    2       -0.0831784696
    4    3    1    4       -0.0137659813
    4    4    1    1        0.2895012833
    4    4    1    3       -0.0233604070
    4    1    2    1        0.0310850433
    4    1    2    3       -0.0231170190
    4    2    2    2        0.0277509420
    4    2    2    4        0.0485668478
    4    3    2    1       -0.0834604714
    4    3    2    3       -0.0455964367
    4    4    2    2        0.2745654524
    4    4    2    4        0.0256337635
    4    1    3    2       -0.0238303344
    4    1    3    4       -0.0137659813
    4    2    3    1       -0.0522174429
    4    2    3    3        0.0210689181
    4    3    3    2       -0.0484590520
    4    3    3    4        0.0711861710
    4    4    3    1       -0.0233604070
    4    4    3    3        0.2623329313
    4    1    4    1        0.0518496301
    4    1    4    3       -0.0131516206
    4    2    4    2        0.0515016116
    4    2    4    4        0.0256337635
    4    3    4    1       -0.0131516206
    4    3    4    3        0.0709113382
    4    4    4    2        0.0256337635
    4    4    4    4        0.2513571186
 end_two_electron_integrals

 Parallel integral file used       7 records with       0 large values


 Task  times  cpu:      109.3s     wall:      110.6s


                                NWChem Input Module
                                -------------------


 Summary of allocated global arrays
-----------------------------------
  No active global arrays


MA_summarize_allocated_blocks: starting scan ...
MA_summarize_allocated_blocks: scan completed: 0 heap blocks, 0 stack blocks
MA usage statistics:

	allocation statistics:
					      heap	     stack
					      ----	     -----
	current number of blocks	         0	         0
	maximum number of blocks	        17	        42
	current total bytes		         0	         0
	maximum total bytes		  22559232	4101638264
	maximum total K-bytes		     22560	   4101639
	maximum total M-bytes		        23	      4102


                                     CITATION
                                     --------
                Please cite the following reference when publishing
                           results obtained with NWChem:

          E. Apra, E. J. Bylaska, W. A. de Jong, N. Govind, K. Kowalski,
       T. P. Straatsma, M. Valiev, H. J. J. van Dam, Y. Alexeev, J. Anchell,
       V. Anisimov, F. W. Aquino, R. Atta-Fynn, J. Autschbach, N. P. Bauman,
     J. C. Becca, D. E. Bernholdt, K. Bhaskaran-Nair, S. Bogatko, P. Borowski,
         J. Boschen, J. Brabec, A. Bruner, E. Cauet, Y. Chen, G. N. Chuev,
      C. J. Cramer, J. Daily, M. J. O. Deegan, T. H. Dunning Jr., M. Dupuis,
   K. G. Dyall, G. I. Fann, S. A. Fischer, A. Fonari, H. Fruchtl, L. Gagliardi,
      J. Garza, N. Gawande, S. Ghosh, K. Glaesemann, A. W. Gotz, J. Hammond,
       V. Helms, E. D. Hermes, K. Hirao, S. Hirata, M. Jacquelin, L. Jensen,
   B. G. Johnson, H. Jonsson, R. A. Kendall, M. Klemm, R. Kobayashi, V. Konkov,
      S. Krishnamoorthy, M. Krishnan, Z. Lin, R. D. Lins, R. J. Littlefield,
      A. J. Logsdail, K. Lopata, W. Ma, A. V. Marenich, J. Martin del Campo,
   D. Mejia-Rodriguez, J. E. Moore, J. M. Mullin, T. Nakajima, D. R. Nascimento,
    J. A. Nichols, P. J. Nichols, J. Nieplocha, A. Otero-de-la-Roza, B. Palmer,
    A. Panyala, T. Pirojsirikul, B. Peng, R. Peverati, J. Pittner, L. Pollack,
   R. M. Richard, P. Sadayappan, G. C. Schatz, W. A. Shelton, D. W. Silverstein,
   D. M. A. Smith, T. A. Soares, D. Song, M. Swart, H. L. Taylor, G. S. Thomas,
            V. Tipparaju, D. G. Truhlar, K. Tsemekhman, T. Van Voorhis,
      A. Vazquez-Mayagoitia, P. Verma, O. Villa, A. Vishnu, K. D. Vogiatzis,
        D. Wang, J. H. Weare, M. J. Williamson, T. L. Windus, K. Wolinski,
        A. T. Wong, Q. Wu, C. Yang, Q. Yu, M. Zacharias, Z. Zhang, Y. Zhao,
                                and R. J. Harrison
                        "NWChem: Past, present, and future
                         J. Chem. Phys. 152, 184102 (2020)
                               doi:10.1063/5.0004997

                                      AUTHORS
                                      -------
  E. Apra, E. J. Bylaska, N. Govind, K. Kowalski, M. Valiev, D. Mejia-Rodriguez,
       A. Kunitsa, N. P. Bauman, A. Panyala, W. A. de Jong, T. P. Straatsma,
        H. J. J. van Dam, D. Wang, T. L. Windus, J. Hammond, J. Autschbach,
    K. Bhaskaran-Nair, J. Brabec, K. Lopata, S. A. Fischer, S. Krishnamoorthy,
     M. Jacquelin, W. Ma, M. Klemm, O. Villa, Y. Chen, V. Anisimov, F. Aquino,
    S. Hirata, M. T. Hackler, Eric Hermes, L. Jensen, J. E. Moore, J. C. Becca,
      V. Konjkov, T. Risthaus, M. Malagoli, A. Marenich, A. Otero-de-la-Roza,
        J. Mullin, P. Nichols, R. Peverati, J. Pittner, Y. Zhao, P.-D. Fan,
        A. Fonari, M. J. Williamson, R. J. Harrison, J. R. Rehr, M. Dupuis,
     D. Silverstein, D. M. A. Smith, J. Nieplocha, V. Tipparaju, M. Krishnan,
     B. E. Van Kuiken, A. Vazquez-Mayagoitia, M. Swart, Q. Wu, T. Van Voorhis,
     A. A. Auer, M. Nooijen, L. D. Crosby, E. Brown, G. Cisneros, G. I. Fann,
   H. Fruchtl, J. Garza, K. Hirao, R. A. Kendall, J. A. Nichols, K. Tsemekhman,
    K. Wolinski, J. Anchell, D. E. Bernholdt, P. Borowski, T. Clark, D. Clerc,
   H. Dachsel, M. J. O. Deegan, K. Dyall, D. Elwood, E. Glendening, M. Gutowski,
   A. C. Hess, J. Jaffe, B. G. Johnson, J. Ju, R. Kobayashi, R. Kutteh, Z. Lin,
   R. Littlefield, X. Long, B. Meng, T. Nakajima, S. Niu, L. Pollack, M. Rosing,
   K. Glaesemann, G. Sandrone, M. Stave, H. Taylor, G. Thomas, J. H. van Lenthe,
                               A. T. Wong, Z. Zhang.

 Total times  cpu:      109.3s     wall:      110.7s
