 argument  1 = input.nw
  NWChem w/ OpenMP: maximum threads =    1



============================== echo of input deck ==============================
 echo
 start H2
 title "H2"

 memory total 24 gb

 geometry units bohr
 symmetry c1
        H  0.00000000  0.00000000  0.00000000
        H  0.00000000  5.15  0.00000000
 end

 basis
   * library cc-pVQZ
 end

 mcscf
   active  2
   actelec 2
   multiplicity 1
   maxiter 40
   vectors input H2.mos
   vectors output H2.mos
 end

 task mcscf

 scf
   vectors input H2.mos
   vectors output H2.mos
   noscf
 end

 tce
   2eorb
   2emet 13
   ccsd
   maxiter 300
   lshift 0.2
 end

# set tce:print_integrals T
# set tce:qorb 4
# set tce:qela 1
# set tce:qelb 1

 set tce:qducc T
 set tce:nactv 1
 set tce:nonhf T
 set tce:ducc_model 3

 set tce:printtol 0.02

 task tce
================================================================================


                                         
                                         


             Northwest Computational Chemistry Package (NWChem) 7.0.1
             --------------------------------------------------------


                    Environmental Molecular Sciences Laboratory
                       Pacific Northwest National Laboratory
                                Richland, WA 99352

                              Copyright (c) 1994-2020
                       Pacific Northwest National Laboratory
                            Battelle Memorial Institute

             NWChem is an open-source computational chemistry package
                        distributed under the terms of the
                      Educational Community License (ECL) 2.0
             A copy of the license is included with this distribution
                              in the LICENSE.TXT file

                                  ACKNOWLEDGMENT
                                  --------------

            This software and its documentation were developed at the
            EMSL at Pacific Northwest National Laboratory, a multiprogram
            national laboratory, operated for the U.S. Department of Energy
            by Battelle under Contract Number DE-AC05-76RL01830. Support
            for this work was provided by the Department of Energy Office
            of Biological and Environmental Research, Office of Basic
            Energy Sciences, and the Office of Advanced Scientific Computing.


           Job information
           ---------------

    hostname        = WE46210
    program         = /home/baum612/code/nwchem/bin/LINUX64/nwchem
    date            = Wed Nov  8 15:57:03 2023

    compiled        = Mon_Nov_06_10:06:57_2023
    source          = /home/baum612/code/nwchem
    nwchem branch   = 7.0.0
    nwchem revision = nwchem_on_git-4191-g39d87d64de
    ga revision     = 5.8.1
    use scalapack   = F
    input           = input.nw
    prefix          = H2.
    data base       = ./H2.db
    status          = startup
    nproc           =        1
    time left       =     -1s



           Memory information
           ------------------

    heap     =  805306366 doubles =   6144.0 Mbytes
    stack    =  805306363 doubles =   6144.0 Mbytes
    global   = 1610612736 doubles =  12288.0 Mbytes (distinct from heap & stack)
    total    = 3221225465 doubles =  24576.0 Mbytes
    verify   = yes
    hardfail = no 


           Directory information
           ---------------------

  0 permanent = .
  0 scratch   = .




                                NWChem Input Module
                                -------------------


                                        H2
                                        --
 Turning off AUTOSYM since
 SYMMETRY directive was detected!


          ------
          auto-z
          ------
     1 autoz failed with cvr_scaling = 1.2 changing to 1.3
     2 autoz failed with cvr_scaling = 1.3 changing to 1.4
     3 autoz failed with cvr_scaling = 1.4 changing to 1.5
     4 autoz failed with cvr_scaling = 1.5 changing to 1.6
     5 autoz failed with cvr_scaling = 1.6 changing to 1.7

 AUTOZ failed to generate good internal coordinates.
 Cartesian coordinates will be used in optimizations.



                             Geometry "geometry" -> ""
                             -------------------------

 Output coordinates in a.u. (scale by  1.000000000 to convert to a.u.)

  No.       Tag          Charge          X              Y              Z
 ---- ---------------- ---------- -------------- -------------- --------------
    1 H                    1.0000     0.00000000    -2.57500000     0.00000000
    2 H                    1.0000     0.00000000     2.57500000     0.00000000

      Atomic Mass 
      ----------- 

      H                  1.007825


 Effective nuclear repulsion energy (a.u.)       0.1941747573

            Nuclear Dipole moment (a.u.) 
            ----------------------------
        X                 Y               Z
 ---------------- ---------------- ----------------
     0.0000000000     0.0000000000     0.0000000000


            XYZ format geometry
            -------------------
     2
 geometry
 H                     0.00000000    -1.36263142     0.00000000
 H                     0.00000000     1.36263142     0.00000000



 Summary of "ao basis" -> "" (cartesian)
 ------------------------------------------------------------------------------
       Tag                 Description            Shells   Functions and Types
 ---------------- ------------------------------  ------  ---------------------
 *                          cc-pVQZ                   on all atoms 


                      Basis "ao basis" -> "ao basis" (cartesian)
                      -----
  H (Hydrogen)
  ------------
            Exponent  Coefficients 
       -------------- ---------------------------------------------------------
  1 S  8.26400000E+01  0.002006
  1 S  1.24100000E+01  0.015343
  1 S  2.82400000E+00  0.075579

  2 S  7.97700000E-01  1.000000

  3 S  2.58100000E-01  1.000000

  4 S  8.98900000E-02  1.000000

  5 P  2.29200000E+00  1.000000

  6 P  8.38000000E-01  1.000000

  7 P  2.92000000E-01  1.000000

  8 D  2.06200000E+00  1.000000

  9 D  6.62000000E-01  1.000000

 10 F  1.39700000E+00  1.000000



 Summary of "ao basis" -> "ao basis" (cartesian)
 ------------------------------------------------------------------------------
       Tag                 Description            Shells   Functions and Types
 ---------------- ------------------------------  ------  ---------------------
 H                          cc-pVQZ                 10       35   4s3p2d1f



                            NWChem Direct MCSCF Module
                            --------------------------


                                        H2


     -----------------------------------
       Basis functions:             70
       Inactive shells:              0
       Active shells:                2
       Active electrons:             2
       Symmetry:                    a       
       Multiplicity:                 1
       Orbital rotations:          136
     -----------------------------------

     -----------------------------------
       E2 extrapolation:             F
       Conjugacy:                    T
       Micro CI relax:               T
       Canonical orbitals:           T
       Maximum iterations:          40
       Converge threshold:    1.00E-04
       Conjugacy resets:            20
       Initial levelshift:        0.10
     -----------------------------------

 Loading old vectors from job with title :

H2


   input molecular orbitals = ./H2.mos
  output molecular orbtials = ./H2.mos

       No. of determinants:             4


  Starting Orbital Energies
    -0.297672    -0.201810     0.273292     0.280483     0.432179     0.479410
     0.479410     0.545055     0.545055     0.714427     1.118785     1.207987
     1.825561     1.825561     1.869154     1.879105     1.886881     1.886881
     2.079750     2.079750     2.082422     2.088320     2.088320     2.090753
     2.090753     2.115611     2.115611     2.360064     3.087858     3.129920
     4.434675     4.434675     4.479860     4.479860     4.536425     4.552286
     6.068944     6.068944     6.068946     6.068946     6.069059     6.069059
     6.069094     6.069094     6.069471     6.069471     6.069905     6.069905
     6.074751     6.084738     8.113975     8.131026     8.131026     8.139415
     8.139415     8.140846     8.140846     8.152466     8.152466     8.247913
     9.658873     9.686760     9.711333     9.711333     9.730878     9.730878
     9.762845     9.780399    22.472451    22.578453

  Orbital Symmetry Irreps
a    a    a    a    a    a    a    a    a    a    a    a    a    a    a   
a    a    a    a    a    a    a    a    a    a    a    a    a    a    a   
a    a    a    a    a    a    a    a    a    a    a    a    a    a    a   
a    a    a    a    a    a    a    a    a    a    a    a    a    a    a   
a    a    a    a    a    a    a    a    a    a   

 Integral file          = ./H2.aoints.0
 Record size in doubles =  65536        No. of integs per rec  =  43688
 Max. records in memory =     99        Max. records in file   = 280274
 No. of bits per label  =      8        No. of bits per value  =     64


 #quartets = 1.969D+04 #integrals = 5.535D+05 #direct =  0.0% #cached =100.0%




          %%%%% MacroIteration   1 %%%%%


          Number of sigma calls:        2
                       o<<<<< (aa):             0.00
                       o<<<<< (bb):             0.00
                       o<<<<< (ab):             0.00
                       o<<<<< (total)           0.00
                       o<<<<< (aa) ff           0.00
                       o<<<<< (aa) gop          0.00
                       o<<<<< (aa) dot          0.00
                       o<<<<< (ab) str          0.00
                       o<<<<< (ab) gath         0.00
                       o<<<<< (ab) dotab        0.00
                       o<<<<< (ab) scat         0.00
                       o<<<<< (ab) sync         0.00
                       o<<<<< Density           0.00
                       o<<<<< Density one       0.00
                       o<<<<< Density two       0.00
                       o<<<<< Density ab        0.00
                       o<<<<< Spin adapt        0.00
                       o<<<<< Symm adapt        0.00

                       o<<<<< (ab) max sync:      0.00

           >>>| Valence CI:             -1.196304181521
           >>>| MCSCF energy:           -1.002129424240
           >>>| Gradient norm:          0.772836691D-03

                              ----- Line search ------

        step       energy         lsg     num-lsg   num-lsh   lsrat    time
      ------- ---------------- --------- --------- --------- ------- --------
       0.0000      -1.00212942 -2.39D-07  0.00D+00  0.00D+00 0.0D+00      0.6

          Number of sigma calls:        2
                       o<<<<< (aa):             0.00
                       o<<<<< (bb):             0.00
                       o<<<<< (ab):             0.00
                       o<<<<< (total)           0.00
                       o<<<<< (aa) ff           0.00
                       o<<<<< (aa) gop          0.00
                       o<<<<< (aa) dot          0.00
                       o<<<<< (ab) str          0.00
                       o<<<<< (ab) gath         0.00
                       o<<<<< (ab) dotab        0.00
                       o<<<<< (ab) scat         0.00
                       o<<<<< (ab) sync         0.00
                       o<<<<< Density           0.00
                       o<<<<< Density one       0.00
                       o<<<<< Density two       0.00
                       o<<<<< Density ab        0.00
                       o<<<<< Spin adapt        0.00
                       o<<<<< Symm adapt        0.00

                       o<<<<< (ab) max sync:      0.00
       1.0000      -1.00212956 -2.67D-08 -2.67D-08  2.12D-07 1.1D-01      0.7

          Number of sigma calls:        2
                       o<<<<< (aa):             0.00
                       o<<<<< (bb):             0.00
                       o<<<<< (ab):             0.00
                       o<<<<< (total)           0.00
                       o<<<<< (aa) ff           0.00
                       o<<<<< (aa) gop          0.00
                       o<<<<< (aa) dot          0.00
                       o<<<<< (ab) str          0.00
                       o<<<<< (ab) gath         0.00
                       o<<<<< (ab) dotab        0.00
                       o<<<<< (ab) scat         0.00
                       o<<<<< (ab) sync         0.00
                       o<<<<< Density           0.00
                       o<<<<< Density one       0.00
                       o<<<<< Density two       0.00
                       o<<<<< Density ab        0.00
                       o<<<<< Spin adapt        0.00
                       o<<<<< Symm adapt        0.00

                       o<<<<< (ab) max sync:      0.00
       1.1257      -1.00212956  7.24D-13  7.37D-13  2.12D-07 3.0D-06      0.9
     --- Orbitals canonicalized ---



          %%%%% MacroIteration   2 %%%%%


          Number of sigma calls:        2
                       o<<<<< (aa):             0.00
                       o<<<<< (bb):             0.00
                       o<<<<< (ab):             0.00
                       o<<<<< (total)           0.00
                       o<<<<< (aa) ff           0.00
                       o<<<<< (aa) gop          0.00
                       o<<<<< (aa) dot          0.00
                       o<<<<< (ab) str          0.00
                       o<<<<< (ab) gath         0.00
                       o<<<<< (ab) dotab        0.00
                       o<<<<< (ab) scat         0.00
                       o<<<<< (ab) sync         0.00
                       o<<<<< Density           0.00
                       o<<<<< Density one       0.00
                       o<<<<< Density two       0.00
                       o<<<<< Density ab        0.00
                       o<<<<< Spin adapt        0.00
                       o<<<<< Symm adapt        0.00

                       o<<<<< (ab) max sync:      0.00

           >>>| Valence CI:             -1.196304315976
           >>>| MCSCF energy:           -1.002129558694
           >>>| Gradient norm:          0.104794534D-03
     --- Conjugacy reset ---

                              ----- Line search ------

        step       energy         lsg     num-lsg   num-lsh   lsrat    time
      ------- ---------------- --------- --------- --------- ------- --------
       0.0000      -1.00212956 -1.49D-09  0.00D+00  0.00D+00 0.0D+00      1.0

          Number of sigma calls:        2
                       o<<<<< (aa):             0.00
                       o<<<<< (bb):             0.00
                       o<<<<< (ab):             0.00
                       o<<<<< (total)           0.00
                       o<<<<< (aa) ff           0.00
                       o<<<<< (aa) gop          0.00
                       o<<<<< (aa) dot          0.00
                       o<<<<< (ab) str          0.00
                       o<<<<< (ab) gath         0.00
                       o<<<<< (ab) dotab        0.00
                       o<<<<< (ab) scat         0.00
                       o<<<<< (ab) sync         0.00
                       o<<<<< Density           0.00
                       o<<<<< Density one       0.00
                       o<<<<< Density two       0.00
                       o<<<<< Density ab        0.00
                       o<<<<< Spin adapt        0.00
                       o<<<<< Symm adapt        0.00

                       o<<<<< (ab) max sync:      0.00
       1.0000      -1.00212956 -6.24D-11 -6.24D-11  1.42D-09 4.2D-02      1.0



          %%%%% MacroIteration   3 %%%%%


          Number of sigma calls:        1
                       o<<<<< (aa):             0.00
                       o<<<<< (bb):             0.00
                       o<<<<< (ab):             0.00
                       o<<<<< (total)           0.00
                       o<<<<< (aa) ff           0.00
                       o<<<<< (aa) gop          0.00
                       o<<<<< (aa) dot          0.00
                       o<<<<< (ab) str          0.00
                       o<<<<< (ab) gath         0.00
                       o<<<<< (ab) dotab        0.00
                       o<<<<< (ab) scat         0.00
                       o<<<<< (ab) sync         0.00
                       o<<<<< Density           0.00
                       o<<<<< Density one       0.00
                       o<<<<< Density two       0.00
                       o<<<<< Density ab        0.00
                       o<<<<< Spin adapt        0.00
                       o<<<<< Symm adapt        0.00

                       o<<<<< (ab) max sync:      0.00

           >>>| Valence CI:             -1.196304316751
           >>>| MCSCF energy:           -1.002129559469
           >>>| Gradient norm:          0.497490035D-05




     ==============================
            MCSCF Converged
     ==============================



          Canonical Eigenvalues

              1      
    1   -0.2959
    2   -0.2036
    3    0.2731
    4    0.2807
    5    0.4310
    6    0.4807
    7    0.4807
    8    0.5436
    9    0.5436
   10    0.7100
   11    1.1194
   12    1.2072
   13    1.8262
   14    1.8262
   15    1.8618
   16    1.8837
   17    1.8871
   18    1.8871
   19    2.0809
   20    2.0809
   21    2.0850
   22    2.0885
   23    2.0885
   24    2.0906
   25    2.0906
   26    2.1126
   27    2.1126
   28    2.3455
   29    3.0842
   30    3.1309
   31    4.4342
   32    4.4342
   33    4.4799
   34    4.4799
   35    4.5389
   36    4.5455
   37    6.0690
   38    6.0690
   39    6.0690
   40    6.0690
   41    6.0692
   42    6.0692
   43    6.0692
   44    6.0692
   45    6.0695
   46    6.0695
   47    6.0699
   48    6.0699
   49    6.0743
   50    6.0829
   51    8.1170
   52    8.1323
   53    8.1323
   54    8.1397
   55    8.1397
   56    8.1409
   57    8.1409
   58    8.1511
   59    8.1511
   60    8.2373
   61    9.6577
   62    9.6884
   63    9.7111
   64    9.7111
   65    9.7310
   66    9.7310
   67    9.7616
   68    9.7775
   69   22.4504
   70   22.5824


          Converged CI vector

   Index           Coefficient          Config. Occupation
         1          0.78129942          1  1
         4         -0.62415640          2  2

          Number of sigma calls:        1
                       o<<<<< (aa):             0.00
                       o<<<<< (bb):             0.00
                       o<<<<< (ab):             0.00
                       o<<<<< (total)           0.00
                       o<<<<< (aa) ff           0.00
                       o<<<<< (aa) gop          0.00
                       o<<<<< (aa) dot          0.00
                       o<<<<< (ab) str          0.00
                       o<<<<< (ab) gath         0.00
                       o<<<<< (ab) dotab        0.00
                       o<<<<< (ab) scat         0.00
                       o<<<<< (ab) sync         0.00
                       o<<<<< Density           0.00
                       o<<<<< Density one       0.00
                       o<<<<< Density two       0.00
                       o<<<<< Density ab        0.00
                       o<<<<< Spin adapt        0.00
                       o<<<<< Symm adapt        0.00

                       o<<<<< (ab) max sync:      0.00



          Natural orbital occupation numbers

              1      
    1    1.2209
    2    0.7791


          Number of sigma calls:        2
                       o<<<<< (aa):             0.00
                       o<<<<< (bb):             0.00
                       o<<<<< (ab):             0.00
                       o<<<<< (total)           0.00
                       o<<<<< (aa) ff           0.00
                       o<<<<< (aa) gop          0.00
                       o<<<<< (aa) dot          0.00
                       o<<<<< (ab) str          0.00
                       o<<<<< (ab) gath         0.00
                       o<<<<< (ab) dotab        0.00
                       o<<<<< (ab) scat         0.00
                       o<<<<< (ab) sync         0.00
                       o<<<<< Density           0.00
                       o<<<<< Density one       0.00
                       o<<<<< Density two       0.00
                       o<<<<< Density ab        0.00
                       o<<<<< Spin adapt        0.00
                       o<<<<< Symm adapt        0.00

                       o<<<<< (ab) max sync:      0.00


       Final MCSCF results 
       ------------------- 

       Total MCSCF energy =     -1.002129559469
            Gradient norm =      5.0D-06

    CPU time for solution =      1.1s
   Wall time for solution =      1.2s



                        Analysis of MCSCF natural orbitals
                        ----------------------------------

 Vector    1  Occ=1.220858D+00  E=-2.959117D-01  Symmetry=a
              MO Center=  1.0D-17, -4.1D-13,  2.1D-16, r^2= 2.6D+00
   Bfn.  Coefficient  Atom+Function         Bfn.  Coefficient  Atom+Function  
  ----- ------------  ---------------      ----- ------------  ---------------
     3      0.328094  1 H  s                 38      0.328094  2 H  s          
     4      0.208499  1 H  s                 39      0.208499  2 H  s          
     2      0.171852  1 H  s                 37      0.171852  2 H  s          

 Vector    2  Occ=7.791424D-01  E=-2.035993D-01  Symmetry=a
              MO Center=  2.2D-15, -2.6D-13,  3.5D-15, r^2= 2.8D+00
   Bfn.  Coefficient  Atom+Function         Bfn.  Coefficient  Atom+Function  
  ----- ------------  ---------------      ----- ------------  ---------------
     3      0.374789  1 H  s                 38     -0.374789  2 H  s          
     4      0.209564  1 H  s                 39     -0.209564  2 H  s          
     2      0.189229  1 H  s                 37     -0.189229  2 H  s          

 Vector    3  Occ=0.000000D+00  E= 2.731419D-01  Symmetry=a
              MO Center= -3.2D-16,  1.6D-11, -4.5D-16, r^2= 6.0D+00
   Bfn.  Coefficient  Atom+Function         Bfn.  Coefficient  Atom+Function  
  ----- ------------  ---------------      ----- ------------  ---------------
     3      1.977523  1 H  s                 38      1.977523  2 H  s          
     4     -1.337814  1 H  s                 39     -1.337814  2 H  s          
     2     -0.239853  1 H  s                 37     -0.239853  2 H  s          
    20     -0.227043  1 H  dxx               25     -0.227043  1 H  dzz        
    55     -0.227043  2 H  dxx               60     -0.227043  2 H  dzz        

 Vector    4  Occ=0.000000D+00  E= 2.807091D-01  Symmetry=a
              MO Center=  3.6D-15, -1.6D-11,  1.8D-15, r^2= 7.9D+00
   Bfn.  Coefficient  Atom+Function         Bfn.  Coefficient  Atom+Function  
  ----- ------------  ---------------      ----- ------------  ---------------
     3      1.967200  1 H  s                 38     -1.967200  2 H  s          
     4     -1.767861  1 H  s                 39      1.767861  2 H  s          
     2     -0.241754  1 H  s                 37      0.241754  2 H  s          
    23     -0.223430  1 H  dyy               58      0.223430  2 H  dyy        
    20     -0.206082  1 H  dxx               25     -0.206082  1 H  dzz        

 Vector    5  Occ=0.000000D+00  E= 4.310274D-01  Symmetry=a
              MO Center=  9.8D-17, -6.5D-14, -1.0D-17, r^2= 3.1D+00
   Bfn.  Coefficient  Atom+Function         Bfn.  Coefficient  Atom+Function  
  ----- ------------  ---------------      ----- ------------  ---------------
     9      1.635792  1 H  py                44     -1.635792  2 H  py         
    12     -0.955472  1 H  py                47      0.955472  2 H  py         
    27     -0.651740  1 H  fxxy              32     -0.654538  1 H  fyyy       
    34     -0.651740  1 H  fyzz              62      0.651740  2 H  fxxy       
    67      0.654538  2 H  fyyy              69      0.651740  2 H  fyzz       

 Vector    6  Occ=0.000000D+00  E= 4.806702D-01  Symmetry=a
              MO Center= -8.9D-17, -2.7D-14, -2.6D-16, r^2= 3.4D+00
   Bfn.  Coefficient  Atom+Function         Bfn.  Coefficient  Atom+Function  
  ----- ------------  ---------------      ----- ------------  ---------------
    10      1.936632  1 H  pz                45      1.936632  2 H  pz         
    13     -1.037086  1 H  pz                48     -1.037086  2 H  pz         
    28     -0.778435  1 H  fxxz              33     -0.780325  1 H  fyyz       
    35     -0.778435  1 H  fzzz              63     -0.778435  2 H  fxxz       
    68     -0.780325  2 H  fyyz              70     -0.778435  2 H  fzzz       

 Vector    7  Occ=0.000000D+00  E= 4.806702D-01  Symmetry=a
              MO Center= -6.6D-16, -3.1D-14,  1.6D-16, r^2= 3.4D+00
   Bfn.  Coefficient  Atom+Function         Bfn.  Coefficient  Atom+Function  
  ----- ------------  ---------------      ----- ------------  ---------------
     8      1.936632  1 H  px                43      1.936632  2 H  px         
    11     -1.037086  1 H  px                46     -1.037086  2 H  px         
    26     -0.778435  1 H  fxxx              29     -0.780325  1 H  fxyy       
    31     -0.778435  1 H  fxzz              61     -0.778435  2 H  fxxx       
    64     -0.780325  2 H  fxyy              66     -0.778435  2 H  fxzz       

 Vector    8  Occ=0.000000D+00  E= 5.436414D-01  Symmetry=a
              MO Center= -4.2D-15,  7.0D-14, -7.5D-15, r^2= 3.6D+00
   Bfn.  Coefficient  Atom+Function         Bfn.  Coefficient  Atom+Function  
  ----- ------------  ---------------      ----- ------------  ---------------
    10      1.666647  1 H  pz                45     -1.666647  2 H  pz         
    13     -0.950449  1 H  pz                48      0.950449  2 H  pz         
     8      0.906663  1 H  px                43     -0.906663  2 H  px         
    28     -0.669123  1 H  fxxz              33     -0.667309  1 H  fyyz       
    35     -0.669123  1 H  fzzz              63      0.669123  2 H  fxxz       

 Vector    9  Occ=0.000000D+00  E= 5.436414D-01  Symmetry=a
              MO Center= -3.0D-15,  4.6D-14,  1.5D-15, r^2= 3.6D+00
   Bfn.  Coefficient  Atom+Function         Bfn.  Coefficient  Atom+Function  
  ----- ------------  ---------------      ----- ------------  ---------------
     8      1.666647  1 H  px                43     -1.666647  2 H  px         
    11     -0.950449  1 H  px                46      0.950449  2 H  px         
    10     -0.906663  1 H  pz                45      0.906663  2 H  pz         
    26     -0.669123  1 H  fxxx              29     -0.667309  1 H  fxyy       
    31     -0.669123  1 H  fxzz              61      0.669123  2 H  fxxx       

 Vector   10  Occ=0.000000D+00  E= 7.100265D-01  Symmetry=a
              MO Center=  1.1D-15,  8.1D-13,  8.6D-16, r^2= 4.0D+00
   Bfn.  Coefficient  Atom+Function         Bfn.  Coefficient  Atom+Function  
  ----- ------------  ---------------      ----- ------------  ---------------
     9      1.996518  1 H  py                44      1.996518  2 H  py         
    12     -1.235139  1 H  py                47     -1.235139  2 H  py         
    27     -0.801566  1 H  fxxy              34     -0.801566  1 H  fyzz       
    62     -0.801566  2 H  fxxy              69     -0.801566  2 H  fyzz       
    32     -0.797407  1 H  fyyy              67     -0.797407  2 H  fyyy       

 Vector   11  Occ=0.000000D+00  E= 1.119418D+00  Symmetry=a
              MO Center=  4.2D-16,  5.7D-13, -6.8D-17, r^2= 4.1D+00
   Bfn.  Coefficient  Atom+Function         Bfn.  Coefficient  Atom+Function  
  ----- ------------  ---------------      ----- ------------  ---------------
     3      3.702123  1 H  s                 38      3.702123  2 H  s          
     2     -1.421455  1 H  s                 37     -1.421455  2 H  s          
     4     -0.993232  1 H  s                 39     -0.993232  2 H  s          
    20     -0.717887  1 H  dxx               25     -0.717887  1 H  dzz        
    55     -0.717887  2 H  dxx               60     -0.717887  2 H  dzz        

 Vector   12  Occ=0.000000D+00  E= 1.207201D+00  Symmetry=a
              MO Center=  6.7D-16, -8.4D-13,  6.1D-16, r^2= 4.1D+00
   Bfn.  Coefficient  Atom+Function         Bfn.  Coefficient  Atom+Function  
  ----- ------------  ---------------      ----- ------------  ---------------
     3      3.855942  1 H  s                 38     -3.855942  2 H  s          
     2     -1.482945  1 H  s                 37      1.482945  2 H  s          
     4     -1.228452  1 H  s                 39      1.228452  2 H  s          
    23     -0.758467  1 H  dyy               58      0.758467  2 H  dyy        
    20     -0.679942  1 H  dxx               25     -0.679942  1 H  dzz        


 Wrote Lagrangian and 1- and 2-particle density matrices to ./H2.mcpdm


     Multipole analysis of the density
     ---------------------------------

     L   x y z        total        nuclear
     -   - - -        -----        -------
     0   0 0 0     -0.000000      2.000000

     1   1 0 0     -0.000000      0.000000
     1   0 1 0      0.000000      0.000000
     1   0 0 1     -0.000000      0.000000

     2   2 0 0     -2.023616      0.000000
     2   1 1 0      0.000000      0.000000
     2   1 0 1     -0.000000      0.000000
     2   0 2 0     -1.835143     13.261250
     2   0 1 1     -0.000000      0.000000
     2   0 0 2     -2.023616      0.000000


  Mulliken analysis of the total density
  --------------------------------------

    Atom       Charge   Shell Charges
 -----------   ------   -------------------------------------------------------
    1 H    1     1.00   0.05  0.22  0.48  0.26  0.00 -0.00  0.00  0.00  0.00  0.00
    2 H    1     1.00   0.05  0.22  0.48  0.26  0.00 -0.00  0.00  0.00  0.00  0.00

    Mulliken analysis of the active space density
    ---------------------------------------------

    Atom       Charge   Shell Charges
 -----------   ------   -------------------------------------------------------
    1 H    1     1.00   0.05  0.22  0.48  0.26  0.00 -0.00  0.00  0.00  0.00  0.00
    2 H    1     1.00   0.05  0.22  0.48  0.26  0.00 -0.00  0.00  0.00  0.00  0.00

 Parallel integral file used      13 records with       0 large values


 Task  times  cpu:        1.1s     wall:        1.2s


                                NWChem Input Module
                                -------------------


                                 NWChem SCF Module
                                 -----------------


                                        H2



  ao basis        = "ao basis"
  functions       =    70
  atoms           =     2
  closed shells   =     1
  open shells     =     0
  charge          =   0.00
  wavefunction    = RHF 
  input vectors   = ./H2.mos
  output vectors  = ./H2.mos
  use symmetry    = F
  symmetry adapt  = F


 Summary of "ao basis" -> "ao basis" (cartesian)
 ------------------------------------------------------------------------------
       Tag                 Description            Shells   Functions and Types
 ---------------- ------------------------------  ------  ---------------------
 H                          cc-pVQZ                 10       35   4s3p2d1f



 Forming initial guess at       1.3s


 Loading old vectors from job with title :

H2


 Starting SCF solution at       1.3s



 ----------------------------------------------
         Quadratically convergent ROHF

 Convergence threshold     :          1.000E-04
 Maximum no. of iterations :           30
 Final Fock-matrix accuracy:          1.000E-07
 ----------------------------------------------


 Integral file          = ./H2.aoints.0
 Record size in doubles =  65536        No. of integs per rec  =  43688
 Max. records in memory =     99        Max. records in file   = 280317
 No. of bits per label  =      8        No. of bits per value  =     64


 #quartets = 1.860D+04 #integrals = 4.492D+05 #direct =  0.0% #cached =100.0%



       Final RHF  results 
       ------------------ 

         Total SCF energy =     -0.829027380502
      One-electron energy =     -1.423100304704
      Two-electron energy =      0.399898166921
 Nuclear repulsion energy =      0.194174757282

        Time for solution =      0.1s


             Final eigenvalues
             -----------------

              1      
    1   -0.2959
    2   -0.2036
    3    0.2731
    4    0.2807
    5    0.4310
    6    0.4807
    7    0.4807
    8    0.5436
    9    0.5436
   10    0.7100
   11    1.1194

                       ROHF Final Molecular Orbital Analysis
                       -------------------------------------

 Vector    1  Occ=2.000000D+00  E=-2.959117D-01
              MO Center=  1.0D-17, -4.1D-13,  2.1D-16, r^2= 2.6D+00
   Bfn.  Coefficient  Atom+Function         Bfn.  Coefficient  Atom+Function  
  ----- ------------  ---------------      ----- ------------  ---------------
     3      0.328094  1 H  s                 38      0.328094  2 H  s          
     4      0.208499  1 H  s                 39      0.208499  2 H  s          
     2      0.171852  1 H  s                 37      0.171852  2 H  s          

 Vector    2  Occ=0.000000D+00  E=-2.035993D-01
              MO Center=  2.2D-15, -2.6D-13,  3.5D-15, r^2= 2.8D+00
   Bfn.  Coefficient  Atom+Function         Bfn.  Coefficient  Atom+Function  
  ----- ------------  ---------------      ----- ------------  ---------------
     3      0.374789  1 H  s                 38     -0.374789  2 H  s          
     4      0.209564  1 H  s                 39     -0.209564  2 H  s          
     2      0.189229  1 H  s                 37     -0.189229  2 H  s          

 Vector    3  Occ=0.000000D+00  E= 2.731419D-01
              MO Center= -3.2D-16,  1.6D-11, -4.5D-16, r^2= 6.0D+00
   Bfn.  Coefficient  Atom+Function         Bfn.  Coefficient  Atom+Function  
  ----- ------------  ---------------      ----- ------------  ---------------
     3      1.977523  1 H  s                 38      1.977523  2 H  s          
     4     -1.337814  1 H  s                 39     -1.337814  2 H  s          
     2     -0.239853  1 H  s                 37     -0.239853  2 H  s          
    20     -0.227043  1 H  dxx               25     -0.227043  1 H  dzz        
    55     -0.227043  2 H  dxx               60     -0.227043  2 H  dzz        

 Vector    4  Occ=0.000000D+00  E= 2.807091D-01
              MO Center=  3.6D-15, -1.6D-11,  1.8D-15, r^2= 7.9D+00
   Bfn.  Coefficient  Atom+Function         Bfn.  Coefficient  Atom+Function  
  ----- ------------  ---------------      ----- ------------  ---------------
     3      1.967200  1 H  s                 38     -1.967200  2 H  s          
     4     -1.767861  1 H  s                 39      1.767861  2 H  s          
     2     -0.241754  1 H  s                 37      0.241754  2 H  s          
    23     -0.223430  1 H  dyy               58      0.223430  2 H  dyy        
    20     -0.206082  1 H  dxx               25     -0.206082  1 H  dzz        

 Vector    5  Occ=0.000000D+00  E= 4.310274D-01
              MO Center=  9.8D-17, -6.5D-14, -1.0D-17, r^2= 3.1D+00
   Bfn.  Coefficient  Atom+Function         Bfn.  Coefficient  Atom+Function  
  ----- ------------  ---------------      ----- ------------  ---------------
     9      1.635792  1 H  py                44     -1.635792  2 H  py         
    12     -0.955472  1 H  py                47      0.955472  2 H  py         
    27     -0.651740  1 H  fxxy              32     -0.654538  1 H  fyyy       
    34     -0.651740  1 H  fyzz              62      0.651740  2 H  fxxy       
    67      0.654538  2 H  fyyy              69      0.651740  2 H  fyzz       

 Vector    6  Occ=0.000000D+00  E= 4.806702D-01
              MO Center= -8.9D-17, -2.6D-14, -2.6D-16, r^2= 3.4D+00
   Bfn.  Coefficient  Atom+Function         Bfn.  Coefficient  Atom+Function  
  ----- ------------  ---------------      ----- ------------  ---------------
    10      1.936632  1 H  pz                45      1.936632  2 H  pz         
    13     -1.037086  1 H  pz                48     -1.037086  2 H  pz         
    28     -0.778435  1 H  fxxz              33     -0.780325  1 H  fyyz       
    35     -0.778435  1 H  fzzz              63     -0.778435  2 H  fxxz       
    68     -0.780325  2 H  fyyz              70     -0.778435  2 H  fzzz       

 Vector    7  Occ=0.000000D+00  E= 4.806702D-01
              MO Center= -6.6D-16, -3.1D-14,  1.6D-16, r^2= 3.4D+00
   Bfn.  Coefficient  Atom+Function         Bfn.  Coefficient  Atom+Function  
  ----- ------------  ---------------      ----- ------------  ---------------
     8      1.936632  1 H  px                43      1.936632  2 H  px         
    11     -1.037086  1 H  px                46     -1.037086  2 H  px         
    26     -0.778435  1 H  fxxx              29     -0.780325  1 H  fxyy       
    31     -0.778435  1 H  fxzz              61     -0.778435  2 H  fxxx       
    64     -0.780325  2 H  fxyy              66     -0.778435  2 H  fxzz       

 Vector    8  Occ=0.000000D+00  E= 5.436414D-01
              MO Center= -4.2D-15,  7.0D-14, -7.5D-15, r^2= 3.6D+00
   Bfn.  Coefficient  Atom+Function         Bfn.  Coefficient  Atom+Function  
  ----- ------------  ---------------      ----- ------------  ---------------
    10      1.666647  1 H  pz                45     -1.666647  2 H  pz         
    13     -0.950449  1 H  pz                48      0.950449  2 H  pz         
     8      0.906663  1 H  px                43     -0.906663  2 H  px         
    28     -0.669123  1 H  fxxz              33     -0.667309  1 H  fyyz       
    35     -0.669123  1 H  fzzz              63      0.669123  2 H  fxxz       

 Vector    9  Occ=0.000000D+00  E= 5.436414D-01
              MO Center= -3.0D-15,  4.5D-14,  1.5D-15, r^2= 3.6D+00
   Bfn.  Coefficient  Atom+Function         Bfn.  Coefficient  Atom+Function  
  ----- ------------  ---------------      ----- ------------  ---------------
     8      1.666647  1 H  px                43     -1.666647  2 H  px         
    11     -0.950449  1 H  px                46      0.950449  2 H  px         
    10     -0.906663  1 H  pz                45      0.906663  2 H  pz         
    26     -0.669123  1 H  fxxx              29     -0.667309  1 H  fxyy       
    31     -0.669123  1 H  fxzz              61      0.669123  2 H  fxxx       

 Vector   10  Occ=0.000000D+00  E= 7.100265D-01
              MO Center=  1.1D-15,  8.1D-13,  8.6D-16, r^2= 4.0D+00
   Bfn.  Coefficient  Atom+Function         Bfn.  Coefficient  Atom+Function  
  ----- ------------  ---------------      ----- ------------  ---------------
     9      1.996518  1 H  py                44      1.996518  2 H  py         
    12     -1.235139  1 H  py                47     -1.235139  2 H  py         
    27     -0.801566  1 H  fxxy              34     -0.801566  1 H  fyzz       
    62     -0.801566  2 H  fxxy              69     -0.801566  2 H  fyzz       
    32     -0.797407  1 H  fyyy              67     -0.797407  2 H  fyyy       

 Vector   11  Occ=0.000000D+00  E= 1.119418D+00
              MO Center=  4.2D-16,  5.7D-13, -6.8D-17, r^2= 4.1D+00
   Bfn.  Coefficient  Atom+Function         Bfn.  Coefficient  Atom+Function  
  ----- ------------  ---------------      ----- ------------  ---------------
     3      3.702123  1 H  s                 38      3.702123  2 H  s          
     2     -1.421455  1 H  s                 37     -1.421455  2 H  s          
     4     -0.993232  1 H  s                 39     -0.993232  2 H  s          
    20     -0.717887  1 H  dxx               25     -0.717887  1 H  dzz        
    55     -0.717887  2 H  dxx               60     -0.717887  2 H  dzz        


 center of mass
 --------------
 x =   0.00000000 y =   0.00000000 z =   0.00000000

 moments of inertia (a.u.)
 ------------------
          13.365019281250           0.000000000000           0.000000000000
           0.000000000000           0.000000000000           0.000000000000
           0.000000000000           0.000000000000          13.365019281250

  Mulliken analysis of the total density
  --------------------------------------

    Atom       Charge   Shell Charges
 -----------   ------   -------------------------------------------------------
    1 H    1     1.00   0.04  0.20  0.46  0.29  0.00 -0.00  0.00  0.00  0.00  0.00
    2 H    1     1.00   0.04  0.20  0.46  0.29  0.00 -0.00  0.00  0.00  0.00  0.00

       Multipole analysis of the density wrt the origin
       ------------------------------------------------

     L   x y z        total         open         nuclear
     -   - - -        -----         ----         -------
     0   0 0 0     -0.000000      0.000000      2.000000

     1   1 0 0     -0.000000      0.000000      0.000000
     1   0 1 0      0.000000      0.000000      0.000000
     1   0 0 1     -0.000000      0.000000      0.000000

     2   2 0 0     -2.142519      0.000000      0.000000
     2   1 1 0     -0.000000      0.000000      0.000000
     2   1 0 1      0.000000      0.000000      0.000000
     2   0 2 0     -1.231237      0.000000     13.261250
     2   0 1 1     -0.000000      0.000000      0.000000
     2   0 0 2     -2.142519      0.000000      0.000000


 Parallel integral file used      11 records with       0 large values

                   NWChem Extensible Many-Electron Theory Module
                   ---------------------------------------------

              ======================================================
                   This portion of the program was automatically
                  generated by a Tensor Contraction Engine (TCE).
                  The development of this portion of the program
                 and TCE was supported by US Department of Energy,
                Office of Science, Office of Basic Energy Science.
                      TCE is a product of Battelle and PNNL.
              Please cite: S.Hirata, J.Phys.Chem.A 107, 9887 (2003).
              ======================================================

                                        H2


            General Information
            -------------------
      Number of processors :     1
         Wavefunction type : Restricted Hartree-Fock
          No. of electrons :     2
           Alpha electrons :     1
            Beta electrons :     1
           No. of orbitals :   140
            Alpha orbitals :    70
             Beta orbitals :    70
        Alpha frozen cores :     0
         Beta frozen cores :     0
     Alpha frozen virtuals :     0
      Beta frozen virtuals :     0
         Spin multiplicity : singlet 
    Number of AO functions :    70
       Number of AO shells :    20
        Use of symmetry is : off
      Symmetry adaption is : off
         Schwarz screening : 0.10D-09

          Correlation Information
          -----------------------
          Calculation type : Coupled-cluster singles & doubles                           
   Perturbative correction : none                                                        
            Max iterations :      300
        Residual threshold : 0.10D-06
     T(0) DIIS level shift : 0.20D+00
     L(0) DIIS level shift : 0.00D+00
     T(1) DIIS level shift : 0.00D+00
     L(1) DIIS level shift : 0.00D+00
     T(R) DIIS level shift : 0.00D+00
     T(I) DIIS level shift : 0.00D+00
   CC-T/L Amplitude update :  5-th order DIIS
                I/O scheme : Global Array Library
        L-threshold :  0.10D-06
        EOM-threshold :  0.10D-06
 no EOMCCSD initial starts read in
 TCE RESTART OPTIONS
 READ_INT:   F
 WRITE_INT:  F
 READ_TA:    F
 WRITE_TA:   F
 READ_XA:    F
 WRITE_XA:   F
 READ_IN3:   F
 WRITE_IN3:  F
 SLICE:      F
 D4D5:       F
 quantumc:   F
 qrotation:  F
 pwtce:      F
 qducc:      T
 nacto:                         0
 nrotv:                         0
 nrot:                          0

            Memory Information
            ------------------
          Available GA space size is    1610607836 doubles
          Available MA space size is    1610610644 doubles

 Maximum block size        32 doubles

 tile_dim =     23

 Block   Spin    Irrep     Size     Offset   Alpha
 -------------------------------------------------
   1    alpha     a      1 doubles       0       1
   2    beta      a      1 doubles       1       1
   3    alpha     a     23 doubles       2       3
   4    alpha     a     23 doubles      25       4
   5    alpha     a     23 doubles      48       5
   6    beta      a     23 doubles      71       3
   7    beta      a     23 doubles      94       4
   8    beta      a     23 doubles     117       5

 Global array virtual files algorithm will be used

 Parallel file system coherency ......... OK

 Integral file          = ./H2.aoints.0
 Record size in doubles =  65536        No. of integs per rec  =  43688
 Max. records in memory =     99        Max. records in file   = 280317
 No. of bits per label  =      8        No. of bits per value  =     64


 #quartets = 1.975D+04 #integrals = 5.717D+05 #direct =  0.0% #cached =100.0%


 Fock matrix recomputed
 1-e file size   =             4900
 1-e file name   = ./H2.f1
 Cpu & wall time / sec            0.1            0.1
 4-electron integrals stored in orbital form

 v2    file size   =          6102085
 4-index algorithm nr.  13 is used
 imaxsize =       30
 imaxsize ichop =        0
 Cpu & wall time / sec            3.0            3.0
 T1-number-of-tasks                    3

 t1 file size   =               69
 t1 file name   = ./H2.t1
 t1 file handle =       -998
 T2-number-of-boxes                   15

 t2 file size   =             7935
 t2 file name   = ./H2.t2
 t2 file handle =       -996
CCSD iterations
 ---------------------------------------------------------
 Iter          Residuum       Correlation     Cpu    Wall 
 ---------------------------------------------------------
NEW TASK SCHEDULING
CCSD_T1_NTS --- OK
CCSD_T2_NTS --- OK
    1   0.4509887995915  -0.2677951214406     0.2     0.2
    2   0.1639656269101  -0.1559458300821     0.2     0.2
    3   0.0664780028621  -0.1862797101318     0.2     0.2
    4   0.0204005668769  -0.1734313993364     0.2     0.2
    5   0.0083747518109  -0.1759329328218     0.2     0.2
 MICROCYCLE DIIS UPDATE:                    5                    5
    6   0.0014051061095  -0.1740357528190     0.2     0.2
    7   0.0006417014899  -0.1737709245037     0.2     0.2
    8   0.0002780691489  -0.1737339130459     0.2     0.2
    9   0.0001513880746  -0.1736874541883     0.2     0.2
   10   0.0000792545359  -0.1736715820513     0.2     0.2
 MICROCYCLE DIIS UPDATE:                   10                    5
   11   0.0000079727247  -0.1736475366515     0.2     0.2
   12   0.0000024672476  -0.1736466577878     0.2     0.2
   13   0.0000010657690  -0.1736465810049     0.2     0.2
   14   0.0000004924838  -0.1736464519914     0.2     0.2
   15   0.0000002525459  -0.1736464086157     0.1     0.2
 MICROCYCLE DIIS UPDATE:                   15                    5
   16   0.0000000749659  -0.1736463522092     0.2     0.2
 -----------------------------------------------------------------
 Iterations converged
 CCSD correlation energy / hartree =        -0.173646352209177
 CCSD total energy / hartree       =        -1.002673732711111

 Singles contributions

 Doubles contributions
     2a   (alpha)     2a   (beta ) ---     1a   (alpha)     1a   (beta )       -0.7875198572
 Ground state specification:
 exp(T)|Ref>~(1+T)|Ref>
 ------- a(p)+/a(q) strings ----------

 singles norm

 doubles norm

 Reference string
  0.78562873183759951      :(1a)+ (1b)+ |0>

 Singles strings

 Doubles strings
 -0.61869822669153096      :(2a)+ (2b)+ (1b)  (1a)  (1a)+ (1b)+ |0>
 -------------------------------------
 enrep_tce =   0.19417475728155334     
  EHF(total)         =        -0.82902738
  Shift (HFtot-HFA)  =         0.00000000
 ALL OCCUPIED ORBITALS ARE ACTIVE IN DUCC --> NO SHIFT
 Number of active orbitals                    2
 Number of active alpha electrons                    1
 Number of active beta electrons                    1
  nos                     2
  nvs                   138
 noas                     1
 nobs                     1
 nvas                    69
 nvbs                    69
 nactv                     1
 DUCC MODEL =                     3
 NONHF =  T
 F-T1 correlation    =   -2.9550131598048948E-004
 V-T1-T1 correlation =    2.0205040633120325E-007
 V-T2 correlation    =  -0.17335105294363334     
 Total correlation   =  -0.17364635220920749     
 F-T1(Ext) correlation         =   -2.9550131598048948E-004
 V-T1(Ext)-T1(Ext) correlation =    2.0205040633120325E-007
 V-T2(Ext) correlation         =   -2.7081921987132614E-003
 Total Ext correlation         =   -3.0034914642874198E-003
1-BODY TIME =    0.026 SECONDS.
  HHHH TIME =    0.020 SECONDS.
  PPPP TIME =    0.000 SECONDS.
  HHHP TIME =    0.013 SECONDS.
  PPPH TIME =    0.081 SECONDS.
  HPHP TIME =    0.009 SECONDS.
  HHPP TIME =    0.007 SECONDS.
 ONE-BODY UNITARY CHECK
 TWO-BODY UNITARY CHECK
 TWO-BODY ANTISYMMETRY CHECK
 TRANSFORMED ~FOCK~ MATRIX
    1    1        -0.3165038434
    2    2        -0.0713613450
 begin_one_electron_integrals
    1    1        -0.7116258548
    2    2        -0.6737619629
 end_one_electron_integrals
 begin_two_electron_integrals
    1    1    1    1        0.3951220114
    1    2    1    2        0.2140336671
    1    1    2    2        0.4093572972
    1    2    2    1        0.2163139764
    2    1    1    2        0.2163139764
    2    2    1    1        0.4093572972
    2    1    2    1        0.2140336671
    2    2    2    2        0.4222739023
 end_two_electron_integrals

 Parallel integral file used      14 records with       0 large values


 Task  times  cpu:       42.4s     wall:       45.2s


                                NWChem Input Module
                                -------------------


 Summary of allocated global arrays
-----------------------------------
  No active global arrays


MA_summarize_allocated_blocks: starting scan ...
MA_summarize_allocated_blocks: scan completed: 0 heap blocks, 0 stack blocks
MA usage statistics:

	allocation statistics:
					      heap	     stack
					      ----	     -----
	current number of blocks	         0	         0
	maximum number of blocks	        18	        42
	current total bytes		         0	         0
	maximum total bytes		  51983016	9994007160
	maximum total K-bytes		     51984	   9994008
	maximum total M-bytes		        52	      9995


                                     CITATION
                                     --------
                Please cite the following reference when publishing
                           results obtained with NWChem:

          E. Apra, E. J. Bylaska, W. A. de Jong, N. Govind, K. Kowalski,
       T. P. Straatsma, M. Valiev, H. J. J. van Dam, Y. Alexeev, J. Anchell,
       V. Anisimov, F. W. Aquino, R. Atta-Fynn, J. Autschbach, N. P. Bauman,
     J. C. Becca, D. E. Bernholdt, K. Bhaskaran-Nair, S. Bogatko, P. Borowski,
         J. Boschen, J. Brabec, A. Bruner, E. Cauet, Y. Chen, G. N. Chuev,
      C. J. Cramer, J. Daily, M. J. O. Deegan, T. H. Dunning Jr., M. Dupuis,
   K. G. Dyall, G. I. Fann, S. A. Fischer, A. Fonari, H. Fruchtl, L. Gagliardi,
      J. Garza, N. Gawande, S. Ghosh, K. Glaesemann, A. W. Gotz, J. Hammond,
       V. Helms, E. D. Hermes, K. Hirao, S. Hirata, M. Jacquelin, L. Jensen,
   B. G. Johnson, H. Jonsson, R. A. Kendall, M. Klemm, R. Kobayashi, V. Konkov,
      S. Krishnamoorthy, M. Krishnan, Z. Lin, R. D. Lins, R. J. Littlefield,
      A. J. Logsdail, K. Lopata, W. Ma, A. V. Marenich, J. Martin del Campo,
   D. Mejia-Rodriguez, J. E. Moore, J. M. Mullin, T. Nakajima, D. R. Nascimento,
    J. A. Nichols, P. J. Nichols, J. Nieplocha, A. Otero-de-la-Roza, B. Palmer,
    A. Panyala, T. Pirojsirikul, B. Peng, R. Peverati, J. Pittner, L. Pollack,
   R. M. Richard, P. Sadayappan, G. C. Schatz, W. A. Shelton, D. W. Silverstein,
   D. M. A. Smith, T. A. Soares, D. Song, M. Swart, H. L. Taylor, G. S. Thomas,
            V. Tipparaju, D. G. Truhlar, K. Tsemekhman, T. Van Voorhis,
      A. Vazquez-Mayagoitia, P. Verma, O. Villa, A. Vishnu, K. D. Vogiatzis,
        D. Wang, J. H. Weare, M. J. Williamson, T. L. Windus, K. Wolinski,
        A. T. Wong, Q. Wu, C. Yang, Q. Yu, M. Zacharias, Z. Zhang, Y. Zhao,
                                and R. J. Harrison
                        "NWChem: Past, present, and future
                         J. Chem. Phys. 152, 184102 (2020)
                               doi:10.1063/5.0004997

                                      AUTHORS
                                      -------
  E. Apra, E. J. Bylaska, N. Govind, K. Kowalski, M. Valiev, D. Mejia-Rodriguez,
       A. Kunitsa, N. P. Bauman, A. Panyala, W. A. de Jong, T. P. Straatsma,
        H. J. J. van Dam, D. Wang, T. L. Windus, J. Hammond, J. Autschbach,
    K. Bhaskaran-Nair, J. Brabec, K. Lopata, S. A. Fischer, S. Krishnamoorthy,
     M. Jacquelin, W. Ma, M. Klemm, O. Villa, Y. Chen, V. Anisimov, F. Aquino,
    S. Hirata, M. T. Hackler, Eric Hermes, L. Jensen, J. E. Moore, J. C. Becca,
      V. Konjkov, T. Risthaus, M. Malagoli, A. Marenich, A. Otero-de-la-Roza,
        J. Mullin, P. Nichols, R. Peverati, J. Pittner, Y. Zhao, P.-D. Fan,
        A. Fonari, M. J. Williamson, R. J. Harrison, J. R. Rehr, M. Dupuis,
     D. Silverstein, D. M. A. Smith, J. Nieplocha, V. Tipparaju, M. Krishnan,
     B. E. Van Kuiken, A. Vazquez-Mayagoitia, M. Swart, Q. Wu, T. Van Voorhis,
     A. A. Auer, M. Nooijen, L. D. Crosby, E. Brown, G. Cisneros, G. I. Fann,
   H. Fruchtl, J. Garza, K. Hirao, R. A. Kendall, J. A. Nichols, K. Tsemekhman,
    K. Wolinski, J. Anchell, D. E. Bernholdt, P. Borowski, T. Clark, D. Clerc,
   H. Dachsel, M. J. O. Deegan, K. Dyall, D. Elwood, E. Glendening, M. Gutowski,
   A. C. Hess, J. Jaffe, B. G. Johnson, J. Ju, R. Kobayashi, R. Kutteh, Z. Lin,
   R. Littlefield, X. Long, B. Meng, T. Nakajima, S. Niu, L. Pollack, M. Rosing,
   K. Glaesemann, G. Sandrone, M. Stave, H. Taylor, G. Thomas, J. H. van Lenthe,
                               A. T. Wong, Z. Zhang.

 Total times  cpu:       43.5s     wall:       46.4s
