 argument  1 = input.nw
  NWChem w/ OpenMP: maximum threads =    1



============================== echo of input deck ==============================

echo
start H6
title "H6"

memory total 12 gb

geometry units bohr
symmetry c1
H 0 0 0
H 0 0 2.11
H 0 0 4.22
H 0 0 6.33
H 0 0 8.44
H 0 0 10.55
end

basis spherical
  * library cc-pVTZ
end

scf
thresh 1e-8
end

tce
  2eorb
  2emet 13
  ccsd
  thresh 1e-8
  maxiter 300
end

set tce:print_integrals T
set tce:qorb 6
set tce:qela 3
set tce:qelb 3

# set tce:qducc T
# set tce:nactv 3
# set tce:nonhf T
# set tce:ducc_model 6

set tce:printtol 0.02

task tce
================================================================================


                                         
                                         


             Northwest Computational Chemistry Package (NWChem) 7.0.1
             --------------------------------------------------------


                    Environmental Molecular Sciences Laboratory
                       Pacific Northwest National Laboratory
                                Richland, WA 99352

                              Copyright (c) 1994-2020
                       Pacific Northwest National Laboratory
                            Battelle Memorial Institute

             NWChem is an open-source computational chemistry package
                        distributed under the terms of the
                      Educational Community License (ECL) 2.0
             A copy of the license is included with this distribution
                              in the LICENSE.TXT file

                                  ACKNOWLEDGMENT
                                  --------------

            This software and its documentation were developed at the
            EMSL at Pacific Northwest National Laboratory, a multiprogram
            national laboratory, operated for the U.S. Department of Energy
            by Battelle under Contract Number DE-AC05-76RL01830. Support
            for this work was provided by the Department of Energy Office
            of Biological and Environmental Research, Office of Basic
            Energy Sciences, and the Office of Advanced Scientific Computing.


           Job information
           ---------------

    hostname        = WE46210
    program         = /home/baum612/code/nwchem/bin/LINUX64/nwchem
    date            = Sun Nov 10 08:30:13 2024

    compiled        = Wed_Sep_04_02:00:17_2024
    source          = /home/baum612/code/nwchem
    nwchem branch   = 7.0.0
    nwchem revision = nwchem_on_git-4191-g39d87d64de
    ga revision     = 5.8.1
    use scalapack   = F
    input           = input.nw
    prefix          = H6.
    data base       = ./H6.db
    status          = startup
    nproc           =        1
    time left       =     -1s



           Memory information
           ------------------

    heap     =  402653182 doubles =   3072.0 Mbytes
    stack    =  402653179 doubles =   3072.0 Mbytes
    global   =  805306368 doubles =   6144.0 Mbytes (distinct from heap & stack)
    total    = 1610612729 doubles =  12288.0 Mbytes
    verify   = yes
    hardfail = no 


           Directory information
           ---------------------

  0 permanent = .
  0 scratch   = .




                                NWChem Input Module
                                -------------------


                                        H6
                                        --
 Turning off AUTOSYM since
 SYMMETRY directive was detected!


          ------
          auto-z
          ------
     1 autoz failed with cvr_scaling = 1.2 changing to 1.3
     2 autoz failed with cvr_scaling = 1.3 changing to 1.4
  Looking for out-of-plane bends
  autoz: insufficient variables                     5                   12
     3 autoz failed with cvr_scaling = 1.4 changing to 1.5
  Looking for out-of-plane bends
  autoz: insufficient variables                     5                   12
     4 autoz failed with cvr_scaling = 1.5 changing to 1.6
  Looking for out-of-plane bends
  autoz: insufficient variables                     5                   12
     5 autoz failed with cvr_scaling = 1.6 changing to 1.7
  Looking for out-of-plane bends
  autoz: insufficient variables                     5                   12

 AUTOZ failed to generate good internal coordinates.
 Cartesian coordinates will be used in optimizations.



                             Geometry "geometry" -> ""
                             -------------------------

 Output coordinates in a.u. (scale by  1.000000000 to convert to a.u.)

  No.       Tag          Charge          X              Y              Z
 ---- ---------------- ---------- -------------- -------------- --------------
    1 H                    1.0000     0.00000000     0.00000000    -5.27500000
    2 H                    1.0000     0.00000000     0.00000000    -3.16500000
    3 H                    1.0000     0.00000000     0.00000000    -1.05500000
    4 H                    1.0000     0.00000000     0.00000000     1.05500000
    5 H                    1.0000     0.00000000     0.00000000     3.16500000
    6 H                    1.0000     0.00000000     0.00000000     5.27500000

      Atomic Mass 
      ----------- 

      H                  1.007825


 Effective nuclear repulsion energy (a.u.)       4.1232227488

            Nuclear Dipole moment (a.u.) 
            ----------------------------
        X                 Y               Z
 ---------------- ---------------- ----------------
     0.0000000000     0.0000000000     0.0000000000


            XYZ format geometry
            -------------------
     6
 geometry
 H                     0.00000000     0.00000000    -2.79140999
 H                     0.00000000     0.00000000    -1.67484599
 H                     0.00000000     0.00000000    -0.55828200
 H                     0.00000000     0.00000000     0.55828200
 H                     0.00000000     0.00000000     1.67484599
 H                     0.00000000     0.00000000     2.79140999



 Summary of "ao basis" -> "" (spherical)
 ------------------------------------------------------------------------------
       Tag                 Description            Shells   Functions and Types
 ---------------- ------------------------------  ------  ---------------------
 *                          cc-pVTZ                   on all atoms 


                      Basis "ao basis" -> "ao basis" (spherical)
                      -----
  H (Hydrogen)
  ------------
            Exponent  Coefficients 
       -------------- ---------------------------------------------------------
  1 S  3.38700000E+01  0.006068
  1 S  5.09500000E+00  0.045308
  1 S  1.15900000E+00  0.202822

  2 S  3.25800000E-01  1.000000

  3 S  1.02700000E-01  1.000000

  4 P  1.40700000E+00  1.000000

  5 P  3.88000000E-01  1.000000

  6 D  1.05700000E+00  1.000000



 Summary of "ao basis" -> "ao basis" (spherical)
 ------------------------------------------------------------------------------
       Tag                 Description            Shells   Functions and Types
 ---------------- ------------------------------  ------  ---------------------
 H                          cc-pVTZ                  6       14   3s2p1d


                                 NWChem SCF Module
                                 -----------------


                                        H6



  ao basis        = "ao basis"
  functions       =    84
  atoms           =     6
  closed shells   =     3
  open shells     =     0
  charge          =   0.00
  wavefunction    = RHF 
  input vectors   = atomic
  output vectors  = ./H6.movecs
  use symmetry    = F
  symmetry adapt  = F


 Summary of "ao basis" -> "ao basis" (spherical)
 ------------------------------------------------------------------------------
       Tag                 Description            Shells   Functions and Types
 ---------------- ------------------------------  ------  ---------------------
 H                          cc-pVTZ                  6       14   3s2p1d



 Forming initial guess at       0.1s


      Superposition of Atomic Density Guess
      -------------------------------------

 Sum of atomic energies:          -2.99885518

      Non-variational initial energy
      ------------------------------

 Total energy =      -2.590427
 1-e energy   =     -11.027464
 2-e energy   =       4.313814
 HOMO         =      -0.287487
 LUMO         =      -0.057959


 Starting SCF solution at       0.2s



 ----------------------------------------------
         Quadratically convergent ROHF

 Convergence threshold     :          1.000E-08
 Maximum no. of iterations :           30
 Final Fock-matrix accuracy:          1.000E-10
 ----------------------------------------------


 Integral file          = ./H6.aoints.0
 Record size in doubles =  65536        No. of integs per rec  =  43688
 Max. records in memory =    202        Max. records in file   = 229023
 No. of bits per label  =      8        No. of bits per value  =     64


 #quartets = 1.810D+05 #integrals = 1.019D+06 #direct =  0.0% #cached =100.0%


              iter       energy          gnorm     gmax       time
             ----- ------------------- --------- --------- --------
                 1       -3.1931535062  2.15D-01  1.17D-01      0.4
                 2       -3.2027091685  6.07D-02  3.36D-02      0.5
                 3       -3.2032590408  2.85D-03  1.21D-03      0.5
                 4       -3.2032603279  1.15D-06  6.15D-07      0.6
                 5       -3.2032603279  7.09D-10  2.87D-10      0.7


       Final RHF  results 
       ------------------ 

         Total SCF energy =     -3.203260327874
      One-electron energy =    -11.491410856004
      Two-electron energy =      4.164927779315
 Nuclear repulsion energy =      4.123222748815

        Time for solution =      0.5s


             Final eigenvalues
             -----------------

              1      
    1   -0.6474
    2   -0.5446
    3   -0.3888
    4    0.0181
    5    0.1851
    6    0.2984
    7    0.3318
    8    0.4178
    9    0.4577
   10    0.5650
   11    0.5650
   12    0.6062
   13    0.6276

                       ROHF Final Molecular Orbital Analysis
                       -------------------------------------

 Vector    1  Occ=2.000000D+00  E=-6.474042D-01
              MO Center=  2.7D-17, -2.6D-16, -7.8D-13, r^2= 2.5D+00
   Bfn.  Coefficient  Atom+Function         Bfn.  Coefficient  Atom+Function  
  ----- ------------  ---------------      ----- ------------  ---------------
    30      0.209079  3 H  s                 44      0.209079  4 H  s          
    16      0.154783  2 H  s                 58      0.154783  5 H  s          

 Vector    2  Occ=2.000000D+00  E=-5.445907D-01
              MO Center=  1.6D-16,  2.0D-16, -1.9D-12, r^2= 5.3D+00
   Bfn.  Coefficient  Atom+Function         Bfn.  Coefficient  Atom+Function  
  ----- ------------  ---------------      ----- ------------  ---------------
    16      0.210098  2 H  s                 58     -0.210098  5 H  s          
     2      0.176698  1 H  s                 17      0.176432  2 H  s          
    59     -0.176432  5 H  s                 72     -0.176698  6 H  s          

 Vector    3  Occ=2.000000D+00  E=-3.887828D-01
              MO Center= -1.8D-16, -1.8D-16,  4.8D-12, r^2= 5.2D+00
   Bfn.  Coefficient  Atom+Function         Bfn.  Coefficient  Atom+Function  
  ----- ------------  ---------------      ----- ------------  ---------------
    31     -0.217399  3 H  s                 45     -0.217399  4 H  s          
     2      0.200038  1 H  s                 30     -0.200139  3 H  s          
    44     -0.200139  4 H  s                 72      0.200038  6 H  s          
     3      0.175930  1 H  s                 73      0.175930  6 H  s          
    17      0.173292  2 H  s                 59      0.173292  5 H  s          

 Vector    4  Occ=0.000000D+00  E= 1.812450D-02
              MO Center=  3.4D-17,  4.4D-18, -3.5D-11, r^2= 7.1D+00
   Bfn.  Coefficient  Atom+Function         Bfn.  Coefficient  Atom+Function  
  ----- ------------  ---------------      ----- ------------  ---------------
     3      0.713211  1 H  s                 73     -0.713211  6 H  s          
    17     -0.572791  2 H  s                 59      0.572791  5 H  s          
    30     -0.201480  3 H  s                 44      0.201480  4 H  s          

 Vector    5  Occ=0.000000D+00  E= 1.850794D-01
              MO Center=  3.0D-16, -3.5D-16, -1.2D-10, r^2= 1.1D+01
   Bfn.  Coefficient  Atom+Function         Bfn.  Coefficient  Atom+Function  
  ----- ------------  ---------------      ----- ------------  ---------------
    17      1.641670  2 H  s                 59      1.641670  5 H  s          
     3     -1.437961  1 H  s                 73     -1.437961  6 H  s          
    31     -0.726036  3 H  s                 45     -0.726036  4 H  s          
    16      0.190889  2 H  s                 58      0.190889  5 H  s          

 Vector    6  Occ=0.000000D+00  E= 2.984407D-01
              MO Center= -3.2D-17, -1.2D-17,  2.6D-10, r^2= 1.3D+01
   Bfn.  Coefficient  Atom+Function         Bfn.  Coefficient  Atom+Function  
  ----- ------------  ---------------      ----- ------------  ---------------
    31      4.628700  3 H  s                 45     -4.628700  4 H  s          
    17     -3.359304  2 H  s                 59      3.359304  5 H  s          
     3      2.075350  1 H  s                 73     -2.075350  6 H  s          
     2     -0.532232  1 H  s                 72      0.532232  6 H  s          

 Vector    7  Occ=0.000000D+00  E= 3.317596D-01
              MO Center=  4.5D-16,  1.6D-16, -2.5D-10, r^2= 4.7D+00
   Bfn.  Coefficient  Atom+Function         Bfn.  Coefficient  Atom+Function  
  ----- ------------  ---------------      ----- ------------  ---------------
    17      0.710051  2 H  s                 59      0.710051  5 H  s          
    30     -0.704612  3 H  s                 44     -0.704612  4 H  s          
    31      0.457838  3 H  s                 45      0.457838  4 H  s          
    16     -0.440670  2 H  s                 58     -0.440670  5 H  s          
     2     -0.244478  1 H  s                 72     -0.244478  6 H  s          

 Vector    8  Occ=0.000000D+00  E= 4.177539D-01
              MO Center= -5.6D-16, -2.6D-16, -8.4D-11, r^2= 6.8D+00
   Bfn.  Coefficient  Atom+Function         Bfn.  Coefficient  Atom+Function  
  ----- ------------  ---------------      ----- ------------  ---------------
    17      3.593747  2 H  s                 59     -3.593747  5 H  s          
    31     -2.951289  3 H  s                 45      2.951289  4 H  s          
     3     -1.048011  1 H  s                 73      1.048011  6 H  s          
    16     -0.946313  2 H  s                 58      0.946313  5 H  s          
    37     -0.418974  3 H  pz                51     -0.418974  4 H  pz         

 Vector    9  Occ=0.000000D+00  E= 4.576808D-01
              MO Center=  6.7D-16,  1.2D-16, -8.2D-11, r^2= 9.0D+00
   Bfn.  Coefficient  Atom+Function         Bfn.  Coefficient  Atom+Function  
  ----- ------------  ---------------      ----- ------------  ---------------
     3     -1.029972  1 H  s                 73     -1.029972  6 H  s          
     2      0.938040  1 H  s                 72      0.938040  6 H  s          
    31      0.583367  3 H  s                 45      0.583367  4 H  s          
    30     -0.376538  3 H  s                 44     -0.376538  4 H  s          
    16     -0.195522  2 H  s                 58     -0.195522  5 H  s          

 Vector   10  Occ=0.000000D+00  E= 5.649672D-01
              MO Center= -7.9D-16, -6.7D-16,  5.2D-12, r^2= 2.8D+00
   Bfn.  Coefficient  Atom+Function         Bfn.  Coefficient  Atom+Function  
  ----- ------------  ---------------      ----- ------------  ---------------
    35      0.312926  3 H  px                49      0.312926  4 H  px         
    36      0.266807  3 H  py                50      0.266807  4 H  py         
    21      0.245583  2 H  px                63      0.245583  5 H  px         
    22      0.209389  2 H  py                64      0.209389  5 H  py         

 Vector   11  Occ=0.000000D+00  E= 5.649672D-01
              MO Center= -1.2D-16,  2.5D-16,  5.1D-12, r^2= 2.8D+00
   Bfn.  Coefficient  Atom+Function         Bfn.  Coefficient  Atom+Function  
  ----- ------------  ---------------      ----- ------------  ---------------
    36      0.312926  3 H  py                50      0.312926  4 H  py         
    35     -0.266807  3 H  px                49     -0.266807  4 H  px         
    22      0.245583  2 H  py                64      0.245583  5 H  py         
    21     -0.209389  2 H  px                63     -0.209389  5 H  px         

 Vector   12  Occ=0.000000D+00  E= 6.062278D-01
              MO Center=  1.8D-16, -4.5D-16, -1.7D-11, r^2= 6.8D+00
   Bfn.  Coefficient  Atom+Function         Bfn.  Coefficient  Atom+Function  
  ----- ------------  ---------------      ----- ------------  ---------------
    17      3.727069  2 H  s                 59      3.727069  5 H  s          
    31     -2.209332  3 H  s                 45     -2.209332  4 H  s          
     3     -1.489148  1 H  s                 73     -1.489148  6 H  s          
    16     -1.070300  2 H  s                 58     -1.070300  5 H  s          
    30      0.753112  3 H  s                 44      0.753112  4 H  s          

 Vector   13  Occ=0.000000D+00  E= 6.275591D-01
              MO Center= -2.7D-16, -2.8D-20,  5.6D-11, r^2= 6.7D+00
   Bfn.  Coefficient  Atom+Function         Bfn.  Coefficient  Atom+Function  
  ----- ------------  ---------------      ----- ------------  ---------------
    31      2.906110  3 H  s                 45     -2.906110  4 H  s          
    16     -0.708324  2 H  s                 58      0.708324  5 H  s          
     2      0.701745  1 H  s                 72     -0.701745  6 H  s          
     3     -0.657012  1 H  s                 73      0.657012  6 H  s          
    17     -0.592154  2 H  s                 59      0.592154  5 H  s          


 center of mass
 --------------
 x =   0.00000000 y =   0.00000000 z =  -0.00000000

 moments of inertia (a.u.)
 ------------------
          78.521409443750           0.000000000000           0.000000000000
           0.000000000000          78.521409443750           0.000000000000
           0.000000000000           0.000000000000           0.000000000000

  Mulliken analysis of the total density
  --------------------------------------

    Atom       Charge   Shell Charges
 -----------   ------   -------------------------------------------------------
    1 H    1     0.96   0.17  0.48  0.30  0.00  0.01  0.00
    2 H    1     1.07   0.19  0.51  0.35  0.00  0.02  0.00
    3 H    1     0.97   0.19  0.51  0.24  0.00  0.03  0.00
    4 H    1     0.97   0.19  0.51  0.24  0.00  0.03  0.00
    5 H    1     1.07   0.19  0.51  0.35  0.00  0.02  0.00
    6 H    1     0.96   0.17  0.48  0.30  0.00  0.01  0.00

       Multipole analysis of the density wrt the origin
       ------------------------------------------------

     L   x y z        total         open         nuclear
     -   - - -        -----         ----         -------
     0   0 0 0     -0.000000      0.000000      6.000000

     1   1 0 0     -0.000000      0.000000      0.000000
     1   0 1 0      0.000000      0.000000      0.000000
     1   0 0 1     -0.000000      0.000000      0.000000

     2   2 0 0     -5.512300      0.000000      0.000000
     2   1 1 0      0.000000      0.000000      0.000000
     2   1 0 1     -0.000000      0.000000      0.000000
     2   0 2 0     -5.512300      0.000000      0.000000
     2   0 1 1      0.000000      0.000000      0.000000
     2   0 0 2     -4.015505      0.000000     77.911750


 Parallel integral file used      24 records with       0 large values

 ------------------------------------
     Number of active orbitals      6
     Number of active alpha electrons      3
     Number of active beta electrons       3
 ------------------------------------
                   NWChem Extensible Many-Electron Theory Module
                   ---------------------------------------------

              ======================================================
                   This portion of the program was automatically
                  generated by a Tensor Contraction Engine (TCE).
                  The development of this portion of the program
                 and TCE was supported by US Department of Energy,
                Office of Science, Office of Basic Energy Science.
                      TCE is a product of Battelle and PNNL.
              Please cite: S.Hirata, J.Phys.Chem.A 107, 9887 (2003).
              ======================================================

                                        H6


            General Information
            -------------------
      Number of processors :     1
         Wavefunction type : Restricted Hartree-Fock
          No. of electrons :     6
           Alpha electrons :     3
            Beta electrons :     3
           No. of orbitals :   168
            Alpha orbitals :    84
             Beta orbitals :    84
        Alpha frozen cores :     0
         Beta frozen cores :     0
     Alpha frozen virtuals :    78
      Beta frozen virtuals :    78
         Spin multiplicity : singlet 
    Number of AO functions :    84
       Number of AO shells :    36
        Use of symmetry is : off
      Symmetry adaption is : off
         Schwarz screening : 0.10D-09

          Correlation Information
          -----------------------
          Calculation type : Coupled-cluster singles & doubles                           
   Perturbative correction : none                                                        
            Max iterations :      300
        Residual threshold : 0.10D-07
     T(0) DIIS level shift : 0.00D+00
     L(0) DIIS level shift : 0.00D+00
     T(1) DIIS level shift : 0.00D+00
     L(1) DIIS level shift : 0.00D+00
     T(R) DIIS level shift : 0.00D+00
     T(I) DIIS level shift : 0.00D+00
   CC-T/L Amplitude update :  5-th order DIIS
                I/O scheme : Global Array Library
        L-threshold :  0.10D-07
        EOM-threshold :  0.10D-07
 no EOMCCSD initial starts read in
 TCE RESTART OPTIONS
 READ_INT:   F
 WRITE_INT:  F
 READ_TA:    F
 WRITE_TA:   F
 READ_XA:    F
 WRITE_XA:   F
 READ_IN3:   F
 WRITE_IN3:  F
 SLICE:      F
 D4D5:       F
 quantumc:   T
 qrotation:  F
 pwtce:      F
 qducc:      F
 nacto:                         0
 nrotv:                         0
 nrot:                          0

            Memory Information
            ------------------
          Available GA space size is     805299312 doubles
          Available MA space size is     805303700 doubles

 Maximum block size supplied by input
 Maximum block size         1 doubles

 tile_dim =      1

 Block   Spin    Irrep     Size     Offset   Alpha
 -------------------------------------------------
   1    alpha     a      1 doubles       0       1
   2    alpha     a      1 doubles       1       2
   3    alpha     a      1 doubles       2       3
   4    beta      a      1 doubles       3       1
   5    beta      a      1 doubles       4       2
   6    beta      a      1 doubles       5       3
   7    alpha     a      1 doubles       6       7
   8    alpha     a      1 doubles       7       8
   9    alpha     a      1 doubles       8       9
  10    beta      a      1 doubles       9       7
  11    beta      a      1 doubles      10       8
  12    beta      a      1 doubles      11       9

 Global array virtual files algorithm will be used

 Parallel file system coherency ......... OK

 Integral file          = ./H6.aoints.0
 Record size in doubles =  65536        No. of integs per rec  =  43688
 Max. records in memory =    202        Max. records in file   = 229023
 No. of bits per label  =      8        No. of bits per value  =     64


 #quartets = 1.810D+05 #integrals = 1.022D+06 #direct =  0.0% #cached =100.0%


 Fock matrix recomputed
 1-e file size   =               36
 1-e file name   = ./H6.f1
 Cpu & wall time / sec            0.3            0.3
 4-electron integrals stored in orbital form

 v2    file size   =              231
 4-index algorithm nr.  13 is used
 imaxsize =       30
 imaxsize ichop =        0
 begin_one_electron_integrals
    1    1        -2.1016601565
    3    1         0.1320468646
    5    1        -0.0678529267
    2    2        -1.8827776448
    4    2         0.1978175845
    6    2         0.0594127817
    1    3         0.1320468646
    3    3        -1.7612676267
    5    3        -0.1911271917
    2    4         0.1978175845
    4    4        -1.5071937392
    6    4         0.2802682072
    1    5        -0.0678529267
    3    5        -0.1911271917
    5    5        -1.1362349086
    2    6         0.0594127817
    4    6         0.2802682072
    6    6        -0.9341183357
 end_one_electron_integrals
 begin_two_electron_integrals
    1    1    1    1        0.3921416189
    2    1    2    1        0.1208533144
    3    1    1    1       -0.0720472175
    3    1    3    1        0.0920620418
    3    1    2    2        0.0264717191
    4    1    2    1       -0.0444858465
    4    1    4    1        0.0579406160
    4    1    3    2        0.0067603965
    5    1    1    1        0.0072106906
    5    1    3    1        0.0273494146
    5    1    5    1        0.0267039278
    5    1    2    2        0.0339229108
    5    1    4    2       -0.0126022052
    5    1    3    3       -0.0007449163
    5    1    4    4        0.0062864514
    6    1    2    1       -0.0008646927
    6    1    4    1       -0.0232713460
    6    1    6    1        0.0190841392
    6    1    3    2       -0.0241313387
    6    1    5    2       -0.0017842869
    6    1    4    3        0.0020222500
    6    1    5    4        0.0053315828
    2    2    1    1        0.3120531633
    2    2    2    2        0.3377918909
    3    2    2    1        0.0915137434
    3    2    3    2        0.1087477432
    4    2    1    1       -0.0698902528
    4    2    3    1        0.0454667025
    4    2    2    2       -0.0175696938
    4    2    4    2        0.0595378341
    4    2    3    3       -0.0119821939
    5    2    2    1        0.0397918750
    5    2    4    1       -0.0291492310
    5    2    3    2        0.0169959634
    5    2    5    2        0.0362045611
    5    2    4    3       -0.0062282090
    6    2    1    1       -0.0040399439
    6    2    3    1       -0.0342289800
    6    2    5    1       -0.0113440000
    6    2    2    2       -0.0410858101
    6    2    4    2       -0.0171699644
    6    2    6    2        0.0239298250
    6    2    3    3       -0.0251717797
    6    2    5    3        0.0022026955
    6    2    4    4       -0.0121441521
    6    2    5    5       -0.0125663188
    3    3    1    1        0.3254616936
    3    3    3    1       -0.0214293418
    3    3    2    2        0.3029449113
    3    3    3    3        0.3164813957
    4    3    2    1        0.0622215764
    4    3    4    1       -0.0075965505
    4    3    3    2        0.0609888437
    4    3    4    3        0.0638257987
    5    3    1    1        0.0692250107
    5    3    3    1       -0.0340781220
    5    3    5    1        0.0057893781
    5    3    2    2        0.0312539242
    5    3    4    2       -0.0378881539
    5    3    3    3        0.0345147001
    5    3    5    3        0.0366912544
    5    3    4    4        0.0197128643
    6    3    2    1       -0.0505117567
    6    3    4    1        0.0179587948
    6    3    6    1        0.0015649315
    6    3    3    2       -0.0392317831
    6    3    5    2       -0.0156161286
    6    3    4    3       -0.0299232416
    6    3    6    3        0.0305555841
    6    3    5    4        0.0165434762
    4    4    1    1        0.2962423490
    4    4    3    1       -0.0150541973
    4    4    2    2        0.2787512225
    4    4    4    2       -0.0183325519
    4    4    3    3        0.2783176717
    4    4    4    4        0.2694817827
    5    4    2    1       -0.0658904559
    5    4    4    1        0.0043029164
    5    4    3    2       -0.0682252301
    5    4    5    2       -0.0052075735
    5    4    4    3       -0.0492117313
    5    4    5    4        0.0662632723
    6    4    1    1       -0.0750889606
    6    4    3    1        0.0263211535
    6    4    5    1       -0.0001964172
    6    4    2    2       -0.0462149924
    6    4    4    2        0.0219411349
    6    4    6    2        0.0028095902
    6    4    3    3       -0.0540124267
    6    4    5    3       -0.0240523253
    6    4    4    4       -0.0415026399
    6    4    6    4        0.0352468974
    6    4    5    5       -0.0106834434
    5    5    1    1        0.2354169531
    5    5    3    1        0.0068120222
    5    5    5    1        0.0088874527
    5    5    2    2        0.2419079327
    5    5    4    2       -0.0038910135
    5    5    3    3        0.2331321595
    5    5    5    3        0.0071165131
    5    5    4    4        0.2278888109
    5    5    5    5        0.2184179605
    6    5    2    1       -0.0418847652
    6    5    4    1        0.0020083492
    6    5    6    1        0.0000364158
    6    5    3    2       -0.0439608288
    6    5    5    2        0.0019323847
    6    5    4    3       -0.0366974762
    6    5    6    3        0.0066017523
    6    5    5    4        0.0499978237
    6    5    6    5        0.0523588335
    6    6    1    1        0.2152052279
    6    6    3    1        0.0031210432
    6    6    5    1        0.0008798719
    6    6    2    2        0.2186653724
    6    6    4    2        0.0038677892
    6    6    6    2       -0.0102599132
    6    6    3    3        0.2191936943
    6    6    5    3        0.0020957158
    6    6    4    4        0.2127623626
    6    6    6    4       -0.0099608647
    6    6    5    5        0.2020635144
    6    6    6    5       -0.0000000004
    6    6    6    6        0.1975894302
 end_two_electron_integrals
 enrep_tce =    4.1232227488151656     
  EHF(A)             =        -3.20326033
  EHF(total)         =        -3.20326033
  Shift (HFtot-HFA)  =         0.00000000
 Cpu & wall time / sec            2.6            2.7
 T1-number-of-tasks                    9

 t1 file size   =                9
 t1 file name   = ./H6.t1
 t1 file handle =       -998
 T2-number-of-boxes                  117

 t2 file size   =              117
 t2 file name   = ./H6.t2
 t2 file handle =       -996
CCSD iterations
 ---------------------------------------------------------
 Iter          Residuum       Correlation     Cpu    Wall 
 ---------------------------------------------------------
NEW TASK SCHEDULING
CCSD_T1_NTS --- OK
CCSD_T2_NTS --- OK
    1   0.0474087715614  -0.0253996459595     0.5     0.6
    2   0.0199981112366  -0.0319366993917     0.3     0.6
    3   0.0110383527031  -0.0340503025730     0.3     0.6
    4   0.0067323359727  -0.0349441970455     0.6     0.6
    5   0.0042511739083  -0.0353897113596     0.2     0.6
 MICROCYCLE DIIS UPDATE:                    5                    5
    6   0.0004892927923  -0.0360215060020     0.4     0.6
    7   0.0002562017023  -0.0360204472850     0.5     0.6
    8   0.0001453656287  -0.0360255532336     0.3     0.6
    9   0.0000899584064  -0.0360276871149     0.3     0.6
   10   0.0000558306584  -0.0360294522252     0.4     0.6
 MICROCYCLE DIIS UPDATE:                   10                    5
   11   0.0000103202847  -0.0360321758538     0.3     0.6
   12   0.0000047860350  -0.0360331457570     0.4     0.6
   13   0.0000029351256  -0.0360334935299     0.3     0.6
   14   0.0000018261597  -0.0360336730075     0.6     0.8
   15   0.0000011538335  -0.0360337734107     0.6     0.9
 MICROCYCLE DIIS UPDATE:                   15                    5
   16   0.0000001538887  -0.0360339269708     0.7     0.9
   17   0.0000000795607  -0.0360339321800     0.5     0.7
   18   0.0000000438029  -0.0360339350829     0.3     0.6
   19   0.0000000271022  -0.0360339361547     0.4     0.6
   20   0.0000000167789  -0.0360339369046     0.4     0.6
 MICROCYCLE DIIS UPDATE:                   20                    5
   21   0.0000000029189  -0.0360339378696     0.5     0.6
 -----------------------------------------------------------------
 Iterations converged
 CCSD correlation energy / hartree =        -0.036033937869621
 CCSD total energy / hartree       =        -3.239294265743681

 Singles contributions
     5a   (alpha) ---     3a   (alpha)       -0.0288080756

 Doubles contributions
     4a   (alpha)     5a   (alpha) ---     2a   (alpha)     3a   (alpha)        0.0385648902
     4a   (alpha)     4a   (beta ) ---     1a   (alpha)     1a   (beta )       -0.0388541320
     4a   (alpha)     4a   (beta ) ---     2a   (alpha)     2a   (beta )       -0.0598301700
     4a   (alpha)     4a   (beta ) ---     3a   (alpha)     3a   (beta )       -0.1595839221
     4a   (alpha)     5a   (beta ) ---     1a   (alpha)     2a   (beta )        0.0248366818
     4a   (alpha)     5a   (beta ) ---     2a   (alpha)     3a   (beta )        0.0566061574
     4a   (alpha)     6a   (beta ) ---     1a   (alpha)     3a   (beta )       -0.0229821059
     4a   (alpha)     6a   (beta ) ---     3a   (alpha)     3a   (beta )        0.0421647855
     5a   (alpha)     4a   (beta ) ---     2a   (alpha)     1a   (beta )        0.0248366818
     5a   (alpha)     4a   (beta ) ---     3a   (alpha)     2a   (beta )        0.0566061574
     5a   (alpha)     5a   (beta ) ---     2a   (alpha)     2a   (beta )       -0.0350280557
     5a   (alpha)     5a   (beta ) ---     3a   (alpha)     3a   (beta )       -0.0358344397
     6a   (alpha)     4a   (beta ) ---     3a   (alpha)     1a   (beta )       -0.0229821059
     6a   (alpha)     4a   (beta ) ---     3a   (alpha)     3a   (beta )        0.0421647855
     6a   (alpha)     6a   (beta ) ---     3a   (alpha)     3a   (beta )       -0.0244394644
 Ground state specification:
 exp(T)|Ref>~(1+T)|Ref>
 ------- a(p)+/a(q) strings ----------

 singles norm

 doubles norm

 Reference string
  0.98750465030755952      :(1a)+ (2a)+ (3a)+ (1b)+ (2b)+ (3b)+ |0>

 Singles strings

 Doubles strings
 -0.15758986522281393      :(4a)+ (4b)+ (3b)  (3a)  (1a)+ (2a)+ (3a)+ (1b)+ (2b)+ (3b)+ |0>
 -------------------------------------

 Parallel integral file used      24 records with       0 large values


 Task  times  cpu:       12.5s     wall:       17.0s


                                NWChem Input Module
                                -------------------


 Summary of allocated global arrays
-----------------------------------
  No active global arrays


MA_summarize_allocated_blocks: starting scan ...
MA_summarize_allocated_blocks: scan completed: 0 heap blocks, 0 stack blocks
MA usage statistics:

	allocation statistics:
					      heap	     stack
					      ----	     -----
	current number of blocks	         0	         0
	maximum number of blocks	        17	        42
	current total bytes		         0	         0
	maximum total bytes		 105925112	  32972408
	maximum total K-bytes		    105926	     32973
	maximum total M-bytes		       106	        33


                                     CITATION
                                     --------
                Please cite the following reference when publishing
                           results obtained with NWChem:

          E. Apra, E. J. Bylaska, W. A. de Jong, N. Govind, K. Kowalski,
       T. P. Straatsma, M. Valiev, H. J. J. van Dam, Y. Alexeev, J. Anchell,
       V. Anisimov, F. W. Aquino, R. Atta-Fynn, J. Autschbach, N. P. Bauman,
     J. C. Becca, D. E. Bernholdt, K. Bhaskaran-Nair, S. Bogatko, P. Borowski,
         J. Boschen, J. Brabec, A. Bruner, E. Cauet, Y. Chen, G. N. Chuev,
      C. J. Cramer, J. Daily, M. J. O. Deegan, T. H. Dunning Jr., M. Dupuis,
   K. G. Dyall, G. I. Fann, S. A. Fischer, A. Fonari, H. Fruchtl, L. Gagliardi,
      J. Garza, N. Gawande, S. Ghosh, K. Glaesemann, A. W. Gotz, J. Hammond,
       V. Helms, E. D. Hermes, K. Hirao, S. Hirata, M. Jacquelin, L. Jensen,
   B. G. Johnson, H. Jonsson, R. A. Kendall, M. Klemm, R. Kobayashi, V. Konkov,
      S. Krishnamoorthy, M. Krishnan, Z. Lin, R. D. Lins, R. J. Littlefield,
      A. J. Logsdail, K. Lopata, W. Ma, A. V. Marenich, J. Martin del Campo,
   D. Mejia-Rodriguez, J. E. Moore, J. M. Mullin, T. Nakajima, D. R. Nascimento,
    J. A. Nichols, P. J. Nichols, J. Nieplocha, A. Otero-de-la-Roza, B. Palmer,
    A. Panyala, T. Pirojsirikul, B. Peng, R. Peverati, J. Pittner, L. Pollack,
   R. M. Richard, P. Sadayappan, G. C. Schatz, W. A. Shelton, D. W. Silverstein,
   D. M. A. Smith, T. A. Soares, D. Song, M. Swart, H. L. Taylor, G. S. Thomas,
            V. Tipparaju, D. G. Truhlar, K. Tsemekhman, T. Van Voorhis,
      A. Vazquez-Mayagoitia, P. Verma, O. Villa, A. Vishnu, K. D. Vogiatzis,
        D. Wang, J. H. Weare, M. J. Williamson, T. L. Windus, K. Wolinski,
        A. T. Wong, Q. Wu, C. Yang, Q. Yu, M. Zacharias, Z. Zhang, Y. Zhao,
                                and R. J. Harrison
                        "NWChem: Past, present, and future
                         J. Chem. Phys. 152, 184102 (2020)
                               doi:10.1063/5.0004997

                                      AUTHORS
                                      -------
  E. Apra, E. J. Bylaska, N. Govind, K. Kowalski, M. Valiev, D. Mejia-Rodriguez,
       A. Kunitsa, N. P. Bauman, A. Panyala, W. A. de Jong, T. P. Straatsma,
        H. J. J. van Dam, D. Wang, T. L. Windus, J. Hammond, J. Autschbach,
    K. Bhaskaran-Nair, J. Brabec, K. Lopata, S. A. Fischer, S. Krishnamoorthy,
     M. Jacquelin, W. Ma, M. Klemm, O. Villa, Y. Chen, V. Anisimov, F. Aquino,
    S. Hirata, M. T. Hackler, Eric Hermes, L. Jensen, J. E. Moore, J. C. Becca,
      V. Konjkov, T. Risthaus, M. Malagoli, A. Marenich, A. Otero-de-la-Roza,
        J. Mullin, P. Nichols, R. Peverati, J. Pittner, Y. Zhao, P.-D. Fan,
        A. Fonari, M. J. Williamson, R. J. Harrison, J. R. Rehr, M. Dupuis,
     D. Silverstein, D. M. A. Smith, J. Nieplocha, V. Tipparaju, M. Krishnan,
     B. E. Van Kuiken, A. Vazquez-Mayagoitia, M. Swart, Q. Wu, T. Van Voorhis,
     A. A. Auer, M. Nooijen, L. D. Crosby, E. Brown, G. Cisneros, G. I. Fann,
   H. Fruchtl, J. Garza, K. Hirao, R. A. Kendall, J. A. Nichols, K. Tsemekhman,
    K. Wolinski, J. Anchell, D. E. Bernholdt, P. Borowski, T. Clark, D. Clerc,
   H. Dachsel, M. J. O. Deegan, K. Dyall, D. Elwood, E. Glendening, M. Gutowski,
   A. C. Hess, J. Jaffe, B. G. Johnson, J. Ju, R. Kobayashi, R. Kutteh, Z. Lin,
   R. Littlefield, X. Long, B. Meng, T. Nakajima, S. Niu, L. Pollack, M. Rosing,
   K. Glaesemann, G. Sandrone, M. Stave, H. Taylor, G. Thomas, J. H. van Lenthe,
                               A. T. Wong, Z. Zhang.

 Total times  cpu:       12.5s     wall:       17.0s
