 argument  1 = input.nw
  NWChem w/ OpenMP: maximum threads =    1



============================== echo of input deck ==============================

echo
start H6
title "H6"

memory total 12 gb

geometry units bohr
symmetry c1
H 0 0 0
H 0 0 2.12
H 0 0 4.24
H 0 0 6.36
H 0 0 8.48
H 0 0 10.60
end

basis spherical
  * library cc-pVTZ
end

scf
thresh 1e-8
end

tce
  2eorb
  2emet 13
  ccsd
  thresh 1e-8
  maxiter 300
end

set tce:print_integrals T
set tce:qorb 6
set tce:qela 3
set tce:qelb 3

# set tce:qducc T
# set tce:nactv 3
# set tce:nonhf T
# set tce:ducc_model 6

set tce:printtol 0.02

task tce
================================================================================


                                         
                                         


             Northwest Computational Chemistry Package (NWChem) 7.0.1
             --------------------------------------------------------


                    Environmental Molecular Sciences Laboratory
                       Pacific Northwest National Laboratory
                                Richland, WA 99352

                              Copyright (c) 1994-2020
                       Pacific Northwest National Laboratory
                            Battelle Memorial Institute

             NWChem is an open-source computational chemistry package
                        distributed under the terms of the
                      Educational Community License (ECL) 2.0
             A copy of the license is included with this distribution
                              in the LICENSE.TXT file

                                  ACKNOWLEDGMENT
                                  --------------

            This software and its documentation were developed at the
            EMSL at Pacific Northwest National Laboratory, a multiprogram
            national laboratory, operated for the U.S. Department of Energy
            by Battelle under Contract Number DE-AC05-76RL01830. Support
            for this work was provided by the Department of Energy Office
            of Biological and Environmental Research, Office of Basic
            Energy Sciences, and the Office of Advanced Scientific Computing.


           Job information
           ---------------

    hostname        = WE46210
    program         = /home/baum612/code/nwchem/bin/LINUX64/nwchem
    date            = Sun Nov 10 06:17:28 2024

    compiled        = Wed_Sep_04_02:00:17_2024
    source          = /home/baum612/code/nwchem
    nwchem branch   = 7.0.0
    nwchem revision = nwchem_on_git-4191-g39d87d64de
    ga revision     = 5.8.1
    use scalapack   = F
    input           = input.nw
    prefix          = H6.
    data base       = ./H6.db
    status          = startup
    nproc           =        1
    time left       =     -1s



           Memory information
           ------------------

    heap     =  402653182 doubles =   3072.0 Mbytes
    stack    =  402653179 doubles =   3072.0 Mbytes
    global   =  805306368 doubles =   6144.0 Mbytes (distinct from heap & stack)
    total    = 1610612729 doubles =  12288.0 Mbytes
    verify   = yes
    hardfail = no 


           Directory information
           ---------------------

  0 permanent = .
  0 scratch   = .




                                NWChem Input Module
                                -------------------


                                        H6
                                        --
 Turning off AUTOSYM since
 SYMMETRY directive was detected!


          ------
          auto-z
          ------
     1 autoz failed with cvr_scaling = 1.2 changing to 1.3
     2 autoz failed with cvr_scaling = 1.3 changing to 1.4
     3 autoz failed with cvr_scaling = 1.4 changing to 1.5
  Looking for out-of-plane bends
  autoz: insufficient variables                     5                   12
     4 autoz failed with cvr_scaling = 1.5 changing to 1.6
  Looking for out-of-plane bends
  autoz: insufficient variables                     5                   12
     5 autoz failed with cvr_scaling = 1.6 changing to 1.7
  Looking for out-of-plane bends
  autoz: insufficient variables                     5                   12

 AUTOZ failed to generate good internal coordinates.
 Cartesian coordinates will be used in optimizations.



                             Geometry "geometry" -> ""
                             -------------------------

 Output coordinates in a.u. (scale by  1.000000000 to convert to a.u.)

  No.       Tag          Charge          X              Y              Z
 ---- ---------------- ---------- -------------- -------------- --------------
    1 H                    1.0000     0.00000000     0.00000000    -5.30000000
    2 H                    1.0000     0.00000000     0.00000000    -3.18000000
    3 H                    1.0000     0.00000000     0.00000000    -1.06000000
    4 H                    1.0000     0.00000000     0.00000000     1.06000000
    5 H                    1.0000     0.00000000     0.00000000     3.18000000
    6 H                    1.0000     0.00000000     0.00000000     5.30000000

      Atomic Mass 
      ----------- 

      H                  1.007825


 Effective nuclear repulsion energy (a.u.)       4.1037735849

            Nuclear Dipole moment (a.u.) 
            ----------------------------
        X                 Y               Z
 ---------------- ---------------- ----------------
     0.0000000000     0.0000000000     0.0000000000


            XYZ format geometry
            -------------------
     6
 geometry
 H                     0.00000000     0.00000000    -2.80463942
 H                     0.00000000     0.00000000    -1.68278365
 H                     0.00000000     0.00000000    -0.56092788
 H                     0.00000000     0.00000000     0.56092788
 H                     0.00000000     0.00000000     1.68278365
 H                     0.00000000     0.00000000     2.80463942



 Summary of "ao basis" -> "" (spherical)
 ------------------------------------------------------------------------------
       Tag                 Description            Shells   Functions and Types
 ---------------- ------------------------------  ------  ---------------------
 *                          cc-pVTZ                   on all atoms 


                      Basis "ao basis" -> "ao basis" (spherical)
                      -----
  H (Hydrogen)
  ------------
            Exponent  Coefficients 
       -------------- ---------------------------------------------------------
  1 S  3.38700000E+01  0.006068
  1 S  5.09500000E+00  0.045308
  1 S  1.15900000E+00  0.202822

  2 S  3.25800000E-01  1.000000

  3 S  1.02700000E-01  1.000000

  4 P  1.40700000E+00  1.000000

  5 P  3.88000000E-01  1.000000

  6 D  1.05700000E+00  1.000000



 Summary of "ao basis" -> "ao basis" (spherical)
 ------------------------------------------------------------------------------
       Tag                 Description            Shells   Functions and Types
 ---------------- ------------------------------  ------  ---------------------
 H                          cc-pVTZ                  6       14   3s2p1d


                                 NWChem SCF Module
                                 -----------------


                                        H6



  ao basis        = "ao basis"
  functions       =    84
  atoms           =     6
  closed shells   =     3
  open shells     =     0
  charge          =   0.00
  wavefunction    = RHF 
  input vectors   = atomic
  output vectors  = ./H6.movecs
  use symmetry    = F
  symmetry adapt  = F


 Summary of "ao basis" -> "ao basis" (spherical)
 ------------------------------------------------------------------------------
       Tag                 Description            Shells   Functions and Types
 ---------------- ------------------------------  ------  ---------------------
 H                          cc-pVTZ                  6       14   3s2p1d



 Forming initial guess at       0.0s


      Superposition of Atomic Density Guess
      -------------------------------------

 Sum of atomic energies:          -2.99885518

      Non-variational initial energy
      ------------------------------

 Total energy =      -2.584704
 1-e energy   =     -10.993265
 2-e energy   =       4.304787
 HOMO         =      -0.287270
 LUMO         =      -0.059364


 Starting SCF solution at       0.1s



 ----------------------------------------------
         Quadratically convergent ROHF

 Convergence threshold     :          1.000E-08
 Maximum no. of iterations :           30
 Final Fock-matrix accuracy:          1.000E-10
 ----------------------------------------------


 Integral file          = ./H6.aoints.0
 Record size in doubles =  65536        No. of integs per rec  =  43688
 Max. records in memory =    202        Max. records in file   = 229023
 No. of bits per label  =      8        No. of bits per value  =     64


 #quartets = 1.810D+05 #integrals = 1.014D+06 #direct =  0.0% #cached =100.0%


              iter       energy          gnorm     gmax       time
             ----- ------------------- --------- --------- --------
                 1       -3.1909906377  2.14D-01  1.17D-01      0.3
                 2       -3.2005458487  6.07D-02  3.35D-02      0.3
                 3       -3.2010965286  2.87D-03  1.23D-03      0.4
                 4       -3.2010978571  1.18D-06  6.28D-07      0.4
                 5       -3.2010978571  7.28D-10  2.94D-10      0.5


       Final RHF  results 
       ------------------ 

         Total SCF energy =     -3.201097857126
      One-electron energy =    -11.455471084763
      Two-electron energy =      4.150599642732
 Nuclear repulsion energy =      4.103773584906

        Time for solution =      0.3s


             Final eigenvalues
             -----------------

              1      
    1   -0.6452
    2   -0.5432
    3   -0.3887
    4    0.0166
    5    0.1836
    6    0.2979
    7    0.3321
    8    0.4177
    9    0.4560
   10    0.5653
   11    0.5653
   12    0.6054
   13    0.6229

                       ROHF Final Molecular Orbital Analysis
                       -------------------------------------

 Vector    1  Occ=2.000000D+00  E=-6.452243D-01
              MO Center=  9.6D-17, -6.3D-17, -8.2D-12, r^2= 2.6D+00
   Bfn.  Coefficient  Atom+Function         Bfn.  Coefficient  Atom+Function  
  ----- ------------  ---------------      ----- ------------  ---------------
    30      0.209098  3 H  s                 44      0.209098  4 H  s          
    16      0.154900  2 H  s                 58      0.154900  5 H  s          

 Vector    2  Occ=2.000000D+00  E=-5.432472D-01
              MO Center= -9.7D-17, -1.2D-16, -6.0D-13, r^2= 5.3D+00
   Bfn.  Coefficient  Atom+Function         Bfn.  Coefficient  Atom+Function  
  ----- ------------  ---------------      ----- ------------  ---------------
    16      0.210040  2 H  s                 58     -0.210040  5 H  s          
     2      0.176767  1 H  s                 17      0.176612  2 H  s          
    59     -0.176612  5 H  s                 72     -0.176767  6 H  s          

 Vector    3  Occ=2.000000D+00  E=-3.886644D-01
              MO Center= -3.2D-16,  7.0D-17,  1.4D-11, r^2= 5.3D+00
   Bfn.  Coefficient  Atom+Function         Bfn.  Coefficient  Atom+Function  
  ----- ------------  ---------------      ----- ------------  ---------------
    31     -0.217153  3 H  s                 45     -0.217153  4 H  s          
     2      0.199756  1 H  s                 30     -0.199835  3 H  s          
    44     -0.199835  4 H  s                 72      0.199756  6 H  s          
     3      0.176098  1 H  s                 73      0.176098  6 H  s          
    17      0.172871  2 H  s                 59      0.172871  5 H  s          

 Vector    4  Occ=0.000000D+00  E= 1.659918D-02
              MO Center=  1.4D-16, -1.0D-16, -4.7D-11, r^2= 7.1D+00
   Bfn.  Coefficient  Atom+Function         Bfn.  Coefficient  Atom+Function  
  ----- ------------  ---------------      ----- ------------  ---------------
     3      0.704704  1 H  s                 73     -0.704704  6 H  s          
    17     -0.560432  2 H  s                 59      0.560432  5 H  s          
    30     -0.200695  3 H  s                 44      0.200695  4 H  s          

 Vector    5  Occ=0.000000D+00  E= 1.835592D-01
              MO Center=  1.8D-16,  4.8D-16,  9.9D-11, r^2= 1.1D+01
   Bfn.  Coefficient  Atom+Function         Bfn.  Coefficient  Atom+Function  
  ----- ------------  ---------------      ----- ------------  ---------------
    17      1.619233  2 H  s                 59      1.619233  5 H  s          
     3     -1.420339  1 H  s                 73     -1.420339  6 H  s          
    31     -0.714489  3 H  s                 45     -0.714489  4 H  s          
    16      0.191610  2 H  s                 58      0.191610  5 H  s          

 Vector    6  Occ=0.000000D+00  E= 2.978747D-01
              MO Center=  8.5D-17, -1.6D-17,  1.1D-10, r^2= 1.3D+01
   Bfn.  Coefficient  Atom+Function         Bfn.  Coefficient  Atom+Function  
  ----- ------------  ---------------      ----- ------------  ---------------
    31      4.548864  3 H  s                 45     -4.548864  4 H  s          
    17     -3.311070  2 H  s                 59      3.311070  5 H  s          
     3      2.058412  1 H  s                 73     -2.058412  6 H  s          
     2     -0.529130  1 H  s                 72      0.529130  6 H  s          

 Vector    7  Occ=0.000000D+00  E= 3.320545D-01
              MO Center=  5.1D-16, -4.2D-16, -1.7D-10, r^2= 4.7D+00
   Bfn.  Coefficient  Atom+Function         Bfn.  Coefficient  Atom+Function  
  ----- ------------  ---------------      ----- ------------  ---------------
    17      0.698721  2 H  s                 30     -0.700652  3 H  s          
    44     -0.700652  4 H  s                 59      0.698721  5 H  s          
    31      0.461515  3 H  s                 45      0.461515  4 H  s          
    16     -0.441447  2 H  s                 58     -0.441447  5 H  s          
     2     -0.253065  1 H  s                 72     -0.253065  6 H  s          

 Vector    8  Occ=0.000000D+00  E= 4.176795D-01
              MO Center=  6.1D-16,  1.2D-16,  2.4D-11, r^2= 6.8D+00
   Bfn.  Coefficient  Atom+Function         Bfn.  Coefficient  Atom+Function  
  ----- ------------  ---------------      ----- ------------  ---------------
    17      3.517320  2 H  s                 59     -3.517320  5 H  s          
    31     -2.856418  3 H  s                 45      2.856418  4 H  s          
     3     -1.015523  1 H  s                 73      1.015523  6 H  s          
    16     -0.927240  2 H  s                 58      0.927240  5 H  s          
     2     -0.400599  1 H  s                 72      0.400599  6 H  s          

 Vector    9  Occ=0.000000D+00  E= 4.560310D-01
              MO Center=  1.4D-16,  1.2D-16, -8.2D-11, r^2= 9.1D+00
   Bfn.  Coefficient  Atom+Function         Bfn.  Coefficient  Atom+Function  
  ----- ------------  ---------------      ----- ------------  ---------------
     3      1.039558  1 H  s                 73      1.039558  6 H  s          
     2     -0.932905  1 H  s                 72     -0.932905  6 H  s          
    31     -0.572493  3 H  s                 45     -0.572493  4 H  s          
    30      0.373762  3 H  s                 44      0.373762  4 H  s          
    16      0.197975  2 H  s                 58      0.197975  5 H  s          

 Vector   10  Occ=0.000000D+00  E= 5.653084D-01
              MO Center= -6.2D-16,  8.2D-16, -5.9D-12, r^2= 2.8D+00
   Bfn.  Coefficient  Atom+Function         Bfn.  Coefficient  Atom+Function  
  ----- ------------  ---------------      ----- ------------  ---------------
    35      0.291155  3 H  px                36     -0.291549  3 H  py         
    49      0.291155  4 H  px                50     -0.291549  4 H  py         
    21      0.228567  2 H  px                22     -0.228877  2 H  py         
    63      0.228567  5 H  px                64     -0.228877  5 H  py         

 Vector   11  Occ=0.000000D+00  E= 5.653084D-01
              MO Center= -2.3D-16, -3.0D-16, -5.9D-12, r^2= 2.8D+00
   Bfn.  Coefficient  Atom+Function         Bfn.  Coefficient  Atom+Function  
  ----- ------------  ---------------      ----- ------------  ---------------
    35      0.291549  3 H  px                36      0.291155  3 H  py         
    49      0.291549  4 H  px                50      0.291155  4 H  py         
    21      0.228877  2 H  px                22      0.228567  2 H  py         
    63      0.228877  5 H  px                64      0.228567  5 H  py         

 Vector   12  Occ=0.000000D+00  E= 6.054189D-01
              MO Center=  6.4D-17,  2.2D-16, -1.5D-10, r^2= 6.9D+00
   Bfn.  Coefficient  Atom+Function         Bfn.  Coefficient  Atom+Function  
  ----- ------------  ---------------      ----- ------------  ---------------
    17      3.683506  2 H  s                 59      3.683506  5 H  s          
    31     -2.182956  3 H  s                 45     -2.182956  4 H  s          
     3     -1.470694  1 H  s                 73     -1.470694  6 H  s          
    16     -1.061910  2 H  s                 58     -1.061910  5 H  s          
    30      0.742957  3 H  s                 44      0.742957  4 H  s          

 Vector   13  Occ=0.000000D+00  E= 6.228718D-01
              MO Center=  4.5D-16,  2.4D-17,  3.6D-10, r^2= 6.7D+00
   Bfn.  Coefficient  Atom+Function         Bfn.  Coefficient  Atom+Function  
  ----- ------------  ---------------      ----- ------------  ---------------
    31      2.730811  3 H  s                 45     -2.730811  4 H  s          
    16     -0.709389  2 H  s                 58      0.709389  5 H  s          
     2      0.702765  1 H  s                 72     -0.702765  6 H  s          
     3     -0.685323  1 H  s                 73      0.685323  6 H  s          
    17     -0.487223  2 H  s                 59      0.487223  5 H  s          


 center of mass
 --------------
 x =   0.00000000 y =   0.00000000 z =   0.00000000

 moments of inertia (a.u.)
 ------------------
          79.267451900000           0.000000000000           0.000000000000
           0.000000000000          79.267451900000           0.000000000000
           0.000000000000           0.000000000000           0.000000000000

  Mulliken analysis of the total density
  --------------------------------------

    Atom       Charge   Shell Charges
 -----------   ------   -------------------------------------------------------
    1 H    1     0.96   0.17  0.47  0.30  0.00  0.01  0.00
    2 H    1     1.07   0.19  0.50  0.35  0.00  0.02  0.00
    3 H    1     0.97   0.19  0.51  0.24  0.00  0.03  0.00
    4 H    1     0.97   0.19  0.51  0.24  0.00  0.03  0.00
    5 H    1     1.07   0.19  0.50  0.35  0.00  0.02  0.00
    6 H    1     0.96   0.17  0.47  0.30  0.00  0.01  0.00

       Multipole analysis of the density wrt the origin
       ------------------------------------------------

     L   x y z        total         open         nuclear
     -   - - -        -----         ----         -------
     0   0 0 0     -0.000000      0.000000      6.000000

     1   1 0 0      0.000000      0.000000      0.000000
     1   0 1 0      0.000000      0.000000      0.000000
     1   0 0 1     -0.000000      0.000000      0.000000

     2   2 0 0     -5.530608      0.000000      0.000000
     2   1 1 0      0.000000      0.000000      0.000000
     2   1 0 1      0.000000      0.000000      0.000000
     2   0 2 0     -5.530608      0.000000      0.000000
     2   0 1 1     -0.000000      0.000000      0.000000
     2   0 0 2     -3.983227      0.000000     78.652000


 Parallel integral file used      24 records with       0 large values

 ------------------------------------
     Number of active orbitals      6
     Number of active alpha electrons      3
     Number of active beta electrons       3
 ------------------------------------
                   NWChem Extensible Many-Electron Theory Module
                   ---------------------------------------------

              ======================================================
                   This portion of the program was automatically
                  generated by a Tensor Contraction Engine (TCE).
                  The development of this portion of the program
                 and TCE was supported by US Department of Energy,
                Office of Science, Office of Basic Energy Science.
                      TCE is a product of Battelle and PNNL.
              Please cite: S.Hirata, J.Phys.Chem.A 107, 9887 (2003).
              ======================================================

                                        H6


            General Information
            -------------------
      Number of processors :     1
         Wavefunction type : Restricted Hartree-Fock
          No. of electrons :     6
           Alpha electrons :     3
            Beta electrons :     3
           No. of orbitals :   168
            Alpha orbitals :    84
             Beta orbitals :    84
        Alpha frozen cores :     0
         Beta frozen cores :     0
     Alpha frozen virtuals :    78
      Beta frozen virtuals :    78
         Spin multiplicity : singlet 
    Number of AO functions :    84
       Number of AO shells :    36
        Use of symmetry is : off
      Symmetry adaption is : off
         Schwarz screening : 0.10D-09

          Correlation Information
          -----------------------
          Calculation type : Coupled-cluster singles & doubles                           
   Perturbative correction : none                                                        
            Max iterations :      300
        Residual threshold : 0.10D-07
     T(0) DIIS level shift : 0.00D+00
     L(0) DIIS level shift : 0.00D+00
     T(1) DIIS level shift : 0.00D+00
     L(1) DIIS level shift : 0.00D+00
     T(R) DIIS level shift : 0.00D+00
     T(I) DIIS level shift : 0.00D+00
   CC-T/L Amplitude update :  5-th order DIIS
                I/O scheme : Global Array Library
        L-threshold :  0.10D-07
        EOM-threshold :  0.10D-07
 no EOMCCSD initial starts read in
 TCE RESTART OPTIONS
 READ_INT:   F
 WRITE_INT:  F
 READ_TA:    F
 WRITE_TA:   F
 READ_XA:    F
 WRITE_XA:   F
 READ_IN3:   F
 WRITE_IN3:  F
 SLICE:      F
 D4D5:       F
 quantumc:   T
 qrotation:  F
 pwtce:      F
 qducc:      F
 nacto:                         0
 nrotv:                         0
 nrot:                          0

            Memory Information
            ------------------
          Available GA space size is     805299312 doubles
          Available MA space size is     805303700 doubles

 Maximum block size supplied by input
 Maximum block size         1 doubles

 tile_dim =      1

 Block   Spin    Irrep     Size     Offset   Alpha
 -------------------------------------------------
   1    alpha     a      1 doubles       0       1
   2    alpha     a      1 doubles       1       2
   3    alpha     a      1 doubles       2       3
   4    beta      a      1 doubles       3       1
   5    beta      a      1 doubles       4       2
   6    beta      a      1 doubles       5       3
   7    alpha     a      1 doubles       6       7
   8    alpha     a      1 doubles       7       8
   9    alpha     a      1 doubles       8       9
  10    beta      a      1 doubles       9       7
  11    beta      a      1 doubles      10       8
  12    beta      a      1 doubles      11       9

 Global array virtual files algorithm will be used

 Parallel file system coherency ......... OK

 Integral file          = ./H6.aoints.0
 Record size in doubles =  65536        No. of integs per rec  =  43688
 Max. records in memory =    202        Max. records in file   = 229023
 No. of bits per label  =      8        No. of bits per value  =     64


 #quartets = 1.810D+05 #integrals = 1.017D+06 #direct =  0.0% #cached =100.0%


 Fock matrix recomputed
 1-e file size   =               36
 1-e file name   = ./H6.f1
 Cpu & wall time / sec            0.1            0.1
 4-electron integrals stored in orbital form

 v2    file size   =              231
 4-index algorithm nr.  13 is used
 imaxsize =       30
 imaxsize ichop =        0
 begin_one_electron_integrals
    1    1        -2.0942843048
    3    1         0.1315186489
    5    1        -0.0676588559
    2    2        -1.8767107940
    4    2         0.1968404250
    6    2         0.0598474105
    1    3         0.1315186489
    3    3        -1.7567404436
    5    3        -0.1901504277
    2    4         0.1968404250
    4    4        -1.5059836293
    6    4         0.2783555024
    1    5        -0.0676588559
    3    5        -0.1901504277
    5    5        -1.1392833680
    2    6         0.0598474105
    4    6         0.2783555024
    6    6        -0.9334481778
 end_one_electron_integrals
 begin_two_electron_integrals
    1    1    1    1        0.3907431764
    2    1    2    1        0.1205704938
    3    1    1    1       -0.0718284221
    3    1    3    1        0.0919834724
    3    1    2    2        0.0265631424
    4    1    2    1       -0.0443614617
    4    1    4    1        0.0580516328
    4    1    3    2        0.0068412473
    5    1    1    1        0.0071746382
    5    1    3    1        0.0273406748
    5    1    5    1        0.0269633462
    5    1    2    2        0.0338376142
    5    1    4    2       -0.0127869515
    5    1    3    3       -0.0009705576
    5    1    4    4        0.0061897501
    6    1    2    1       -0.0009533752
    6    1    4    1       -0.0232612518
    6    1    6    1        0.0191906146
    6    1    3    2       -0.0241366531
    6    1    5    2       -0.0018641690
    6    1    4    3        0.0022087484
    6    1    5    4        0.0054281234
    2    2    1    1        0.3109274305
    2    2    2    2        0.3367584954
    3    2    2    1        0.0913730830
    3    2    3    2        0.1085674429
    4    2    1    1       -0.0696263929
    4    2    3    1        0.0454763102
    4    2    2    2       -0.0173052002
    4    2    4    2        0.0595823805
    4    2    3    3       -0.0118636897
    5    2    2    1        0.0396419850
    5    2    4    1       -0.0293690630
    5    2    3    2        0.0166761860
    5    2    5    2        0.0365416824
    5    2    4    3       -0.0065030355
    6    2    1    1       -0.0042357097
    6    2    3    1       -0.0341403378
    6    2    5    1       -0.0114623664
    6    2    2    2       -0.0411478722
    6    2    4    2       -0.0168947308
    6    2    6    2        0.0238632279
    6    2    3    3       -0.0250196161
    6    2    5    3        0.0021848614
    6    2    4    4       -0.0120956312
    6    2    5    5       -0.0127016169
    3    3    1    1        0.3245079560
    3    3    3    1       -0.0214434285
    3    3    2    2        0.3019941119
    3    3    3    3        0.3156227951
    4    3    2    1        0.0621921936
    4    3    4    1       -0.0076256599
    4    3    3    2        0.0609165214
    4    3    4    3        0.0638736592
    5    3    1    1        0.0691363444
    5    3    3    1       -0.0343920897
    5    3    5    1        0.0058515511
    5    3    2    2        0.0308277592
    5    3    4    2       -0.0381878120
    5    3    3    3        0.0342390814
    5    3    5    3        0.0370284941
    5    3    4    4        0.0196385381
    6    3    2    1       -0.0503884913
    6    3    4    1        0.0182279159
    6    3    6    1        0.0014084838
    6    3    3    2       -0.0388577384
    6    3    5    2       -0.0156652090
    6    3    4    3       -0.0297372241
    6    3    6    3        0.0304849011
    6    3    5    4        0.0165554291
    4    4    1    1        0.2958489745
    4    4    3    1       -0.0151550648
    4    4    2    2        0.2782565959
    4    4    4    2       -0.0183330850
    4    4    3    3        0.2779396691
    4    4    4    4        0.2693585683
    5    4    2    1       -0.0662088301
    5    4    4    1        0.0043090790
    5    4    3    2       -0.0685467746
    5    4    5    2       -0.0052163347
    5    4    4    3       -0.0493401863
    5    4    5    4        0.0664936916
    6    4    1    1       -0.0748468263
    6    4    3    1        0.0266691881
    6    4    5    1       -0.0000498998
    6    4    2    2       -0.0456124178
    6    4    4    2        0.0220757272
    6    4    6    2        0.0026579229
    6    4    3    3       -0.0536651106
    6    4    5    3       -0.0241171978
    6    4    4    4       -0.0414086217
    6    4    6    4        0.0352112938
    6    4    5    5       -0.0108598952
    5    5    1    1        0.2359096159
    5    5    3    1        0.0067550829
    5    5    5    1        0.0089946387
    5    5    2    2        0.2423210131
    5    5    4    2       -0.0040781196
    5    5    3    3        0.2334574122
    5    5    5    3        0.0072961011
    5    5    4    4        0.2281778307
    5    5    5    5        0.2187522771
    6    5    2    1       -0.0420663672
    6    5    4    1        0.0021955390
    6    5    6    1       -0.0000196523
    6    5    3    2       -0.0439736247
    6    5    5    2        0.0018187846
    6    5    4    3       -0.0366330440
    6    5    6    3        0.0066048031
    6    5    5    4        0.0498646436
    6    5    6    5        0.0520941006
    6    6    1    1        0.2151676448
    6    6    3    1        0.0028556053
    6    6    5    1        0.0007882201
    6    6    2    2        0.2183358288
    6    6    4    2        0.0036711127
    6    6    6    2       -0.0100693553
    6    6    3    3        0.2189273141
    6    6    5    3        0.0021393837
    6    6    4    4        0.2125870654
    6    6    6    4       -0.0099119137
    6    6    5    5        0.2020286662
    6    6    6    5       -0.0000000004
    6    6    6    6        0.1974010688
 end_two_electron_integrals
 enrep_tce =    4.1037735849056602     
  EHF(A)             =        -3.20109786
  EHF(total)         =        -3.20109786
  Shift (HFtot-HFA)  =         0.00000000
 Cpu & wall time / sec            2.9            3.0
 T1-number-of-tasks                    9

 t1 file size   =                9
 t1 file name   = ./H6.t1
 t1 file handle =       -998
 T2-number-of-boxes                  117

 t2 file size   =              117
 t2 file name   = ./H6.t2
 t2 file handle =       -996
CCSD iterations
 ---------------------------------------------------------
 Iter          Residuum       Correlation     Cpu    Wall 
 ---------------------------------------------------------
NEW TASK SCHEDULING
CCSD_T1_NTS --- OK
CCSD_T2_NTS --- OK
    1   0.0478727263644  -0.0256381177106     0.4     0.6
    2   0.0202464049250  -0.0322768165857     0.4     0.6
    3   0.0111816089558  -0.0344346570262     0.5     0.6
    4   0.0068301425286  -0.0353487591057     0.4     0.7
    5   0.0043227174995  -0.0358046908284     0.4     0.7
 MICROCYCLE DIIS UPDATE:                    5                    5
    6   0.0005013445814  -0.0364535596601     0.3     0.6
    7   0.0002636631674  -0.0364525902692     0.4     0.6
    8   0.0001503074968  -0.0364578986410     0.5     0.7
    9   0.0000934454612  -0.0364601189132     0.8     0.9
   10   0.0000582439405  -0.0364619602332     0.6     0.9
 MICROCYCLE DIIS UPDATE:                   10                    5
   11   0.0000108159564  -0.0364648245634     0.5     0.9
   12   0.0000050324634  -0.0364658516894     0.5     0.8
   13   0.0000030927704  -0.0364662202192     0.5     0.6
   14   0.0000019290743  -0.0364664105948     0.5     0.6
   15   0.0000012220792  -0.0364665172506     0.5     1.0
 MICROCYCLE DIIS UPDATE:                   15                    5
   16   0.0000001651953  -0.0364666812028     0.3     0.5
   17   0.0000000863771  -0.0364666868071     0.4     0.6
   18   0.0000000478711  -0.0364666899653     0.2     0.5
   19   0.0000000297547  -0.0364666911410     0.3     0.5
   20   0.0000000184954  -0.0364666919659     0.4     0.5
 MICROCYCLE DIIS UPDATE:                   20                    5
   21   0.0000000032159  -0.0364666930394     0.3     0.6
 -----------------------------------------------------------------
 Iterations converged
 CCSD correlation energy / hartree =        -0.036466693039371
 CCSD total energy / hartree       =        -3.237564550164938

 Singles contributions
     5a   (alpha) ---     3a   (alpha)       -0.0289737424

 Doubles contributions
     4a   (alpha)     5a   (alpha) ---     2a   (alpha)     3a   (alpha)        0.0387980589
     4a   (alpha)     4a   (beta ) ---     1a   (alpha)     1a   (beta )       -0.0391283504
     4a   (alpha)     4a   (beta ) ---     2a   (alpha)     2a   (beta )       -0.0602491146
     4a   (alpha)     4a   (beta ) ---     3a   (alpha)     3a   (beta )       -0.1610766872
     4a   (alpha)     5a   (beta ) ---     1a   (alpha)     2a   (beta )        0.0251739573
     4a   (alpha)     5a   (beta ) ---     2a   (alpha)     3a   (beta )        0.0574843291
     4a   (alpha)     6a   (beta ) ---     1a   (alpha)     3a   (beta )       -0.0234701624
     4a   (alpha)     6a   (beta ) ---     3a   (alpha)     3a   (beta )        0.0419754015
     5a   (alpha)     4a   (beta ) ---     2a   (alpha)     1a   (beta )        0.0251739573
     5a   (alpha)     4a   (beta ) ---     3a   (alpha)     2a   (beta )        0.0574843291
     5a   (alpha)     5a   (beta ) ---     2a   (alpha)     2a   (beta )       -0.0356956971
     5a   (alpha)     5a   (beta ) ---     3a   (alpha)     3a   (beta )       -0.0362826022
     6a   (alpha)     4a   (beta ) ---     3a   (alpha)     1a   (beta )       -0.0234701624
     6a   (alpha)     4a   (beta ) ---     3a   (alpha)     3a   (beta )        0.0419754015
     6a   (alpha)     6a   (beta ) ---     3a   (alpha)     3a   (beta )       -0.0242920008
 Ground state specification:
 exp(T)|Ref>~(1+T)|Ref>
 ------- a(p)+/a(q) strings ----------

 singles norm

 doubles norm

 Reference string
  0.98727425558599402      :(1a)+ (2a)+ (3a)+ (1b)+ (2b)+ (3b)+ |0>

 Singles strings

 Doubles strings
 -0.15902686646325326      :(4a)+ (4b)+ (3b)  (3a)  (1a)+ (2a)+ (3a)+ (1b)+ (2b)+ (3b)+ |0>
 -------------------------------------

 Parallel integral file used      24 records with       0 large values


 Task  times  cpu:       12.6s     wall:       17.6s


                                NWChem Input Module
                                -------------------


 Summary of allocated global arrays
-----------------------------------
  No active global arrays


MA_summarize_allocated_blocks: starting scan ...
MA_summarize_allocated_blocks: scan completed: 0 heap blocks, 0 stack blocks
MA usage statistics:

	allocation statistics:
					      heap	     stack
					      ----	     -----
	current number of blocks	         0	         0
	maximum number of blocks	        17	        42
	current total bytes		         0	         0
	maximum total bytes		 105925112	  32972408
	maximum total K-bytes		    105926	     32973
	maximum total M-bytes		       106	        33


                                     CITATION
                                     --------
                Please cite the following reference when publishing
                           results obtained with NWChem:

          E. Apra, E. J. Bylaska, W. A. de Jong, N. Govind, K. Kowalski,
       T. P. Straatsma, M. Valiev, H. J. J. van Dam, Y. Alexeev, J. Anchell,
       V. Anisimov, F. W. Aquino, R. Atta-Fynn, J. Autschbach, N. P. Bauman,
     J. C. Becca, D. E. Bernholdt, K. Bhaskaran-Nair, S. Bogatko, P. Borowski,
         J. Boschen, J. Brabec, A. Bruner, E. Cauet, Y. Chen, G. N. Chuev,
      C. J. Cramer, J. Daily, M. J. O. Deegan, T. H. Dunning Jr., M. Dupuis,
   K. G. Dyall, G. I. Fann, S. A. Fischer, A. Fonari, H. Fruchtl, L. Gagliardi,
      J. Garza, N. Gawande, S. Ghosh, K. Glaesemann, A. W. Gotz, J. Hammond,
       V. Helms, E. D. Hermes, K. Hirao, S. Hirata, M. Jacquelin, L. Jensen,
   B. G. Johnson, H. Jonsson, R. A. Kendall, M. Klemm, R. Kobayashi, V. Konkov,
      S. Krishnamoorthy, M. Krishnan, Z. Lin, R. D. Lins, R. J. Littlefield,
      A. J. Logsdail, K. Lopata, W. Ma, A. V. Marenich, J. Martin del Campo,
   D. Mejia-Rodriguez, J. E. Moore, J. M. Mullin, T. Nakajima, D. R. Nascimento,
    J. A. Nichols, P. J. Nichols, J. Nieplocha, A. Otero-de-la-Roza, B. Palmer,
    A. Panyala, T. Pirojsirikul, B. Peng, R. Peverati, J. Pittner, L. Pollack,
   R. M. Richard, P. Sadayappan, G. C. Schatz, W. A. Shelton, D. W. Silverstein,
   D. M. A. Smith, T. A. Soares, D. Song, M. Swart, H. L. Taylor, G. S. Thomas,
            V. Tipparaju, D. G. Truhlar, K. Tsemekhman, T. Van Voorhis,
      A. Vazquez-Mayagoitia, P. Verma, O. Villa, A. Vishnu, K. D. Vogiatzis,
        D. Wang, J. H. Weare, M. J. Williamson, T. L. Windus, K. Wolinski,
        A. T. Wong, Q. Wu, C. Yang, Q. Yu, M. Zacharias, Z. Zhang, Y. Zhao,
                                and R. J. Harrison
                        "NWChem: Past, present, and future
                         J. Chem. Phys. 152, 184102 (2020)
                               doi:10.1063/5.0004997

                                      AUTHORS
                                      -------
  E. Apra, E. J. Bylaska, N. Govind, K. Kowalski, M. Valiev, D. Mejia-Rodriguez,
       A. Kunitsa, N. P. Bauman, A. Panyala, W. A. de Jong, T. P. Straatsma,
        H. J. J. van Dam, D. Wang, T. L. Windus, J. Hammond, J. Autschbach,
    K. Bhaskaran-Nair, J. Brabec, K. Lopata, S. A. Fischer, S. Krishnamoorthy,
     M. Jacquelin, W. Ma, M. Klemm, O. Villa, Y. Chen, V. Anisimov, F. Aquino,
    S. Hirata, M. T. Hackler, Eric Hermes, L. Jensen, J. E. Moore, J. C. Becca,
      V. Konjkov, T. Risthaus, M. Malagoli, A. Marenich, A. Otero-de-la-Roza,
        J. Mullin, P. Nichols, R. Peverati, J. Pittner, Y. Zhao, P.-D. Fan,
        A. Fonari, M. J. Williamson, R. J. Harrison, J. R. Rehr, M. Dupuis,
     D. Silverstein, D. M. A. Smith, J. Nieplocha, V. Tipparaju, M. Krishnan,
     B. E. Van Kuiken, A. Vazquez-Mayagoitia, M. Swart, Q. Wu, T. Van Voorhis,
     A. A. Auer, M. Nooijen, L. D. Crosby, E. Brown, G. Cisneros, G. I. Fann,
   H. Fruchtl, J. Garza, K. Hirao, R. A. Kendall, J. A. Nichols, K. Tsemekhman,
    K. Wolinski, J. Anchell, D. E. Bernholdt, P. Borowski, T. Clark, D. Clerc,
   H. Dachsel, M. J. O. Deegan, K. Dyall, D. Elwood, E. Glendening, M. Gutowski,
   A. C. Hess, J. Jaffe, B. G. Johnson, J. Ju, R. Kobayashi, R. Kutteh, Z. Lin,
   R. Littlefield, X. Long, B. Meng, T. Nakajima, S. Niu, L. Pollack, M. Rosing,
   K. Glaesemann, G. Sandrone, M. Stave, H. Taylor, G. Thomas, J. H. van Lenthe,
                               A. T. Wong, Z. Zhang.

 Total times  cpu:       12.6s     wall:       17.6s
