 argument  1 = input.nw
  NWChem w/ OpenMP: maximum threads =    1



============================== echo of input deck ==============================

echo
start H6
title "H6"

memory total 12 gb

geometry units bohr
symmetry c1
H 0 0 0
H 0 0 2.41
H 0 0 4.82
H 0 0 7.23
H 0 0 9.64
H 0 0 12.05
end

basis spherical
  * library cc-pVTZ
end

scf
thresh 1e-8
end

tce
  2eorb
  2emet 13
  ccsd
  thresh 1e-8
  maxiter 300
end

set tce:print_integrals T
set tce:qorb 6
set tce:qela 3
set tce:qelb 3

# set tce:qducc T
# set tce:nactv 3
# set tce:nonhf T
# set tce:ducc_model 6

set tce:printtol 0.02

task tce
================================================================================


                                         
                                         


             Northwest Computational Chemistry Package (NWChem) 7.0.1
             --------------------------------------------------------


                    Environmental Molecular Sciences Laboratory
                       Pacific Northwest National Laboratory
                                Richland, WA 99352

                              Copyright (c) 1994-2020
                       Pacific Northwest National Laboratory
                            Battelle Memorial Institute

             NWChem is an open-source computational chemistry package
                        distributed under the terms of the
                      Educational Community License (ECL) 2.0
             A copy of the license is included with this distribution
                              in the LICENSE.TXT file

                                  ACKNOWLEDGMENT
                                  --------------

            This software and its documentation were developed at the
            EMSL at Pacific Northwest National Laboratory, a multiprogram
            national laboratory, operated for the U.S. Department of Energy
            by Battelle under Contract Number DE-AC05-76RL01830. Support
            for this work was provided by the Department of Energy Office
            of Biological and Environmental Research, Office of Basic
            Energy Sciences, and the Office of Advanced Scientific Computing.


           Job information
           ---------------

    hostname        = WE46210
    program         = /home/baum612/code/nwchem/bin/LINUX64/nwchem
    date            = Sat Nov  9 06:13:33 2024

    compiled        = Wed_Sep_04_02:00:17_2024
    source          = /home/baum612/code/nwchem
    nwchem branch   = 7.0.0
    nwchem revision = nwchem_on_git-4191-g39d87d64de
    ga revision     = 5.8.1
    use scalapack   = F
    input           = input.nw
    prefix          = H6.
    data base       = ./H6.db
    status          = startup
    nproc           =        1
    time left       =     -1s



           Memory information
           ------------------

    heap     =  402653182 doubles =   3072.0 Mbytes
    stack    =  402653179 doubles =   3072.0 Mbytes
    global   =  805306368 doubles =   6144.0 Mbytes (distinct from heap & stack)
    total    = 1610612729 doubles =  12288.0 Mbytes
    verify   = yes
    hardfail = no 


           Directory information
           ---------------------

  0 permanent = .
  0 scratch   = .




                                NWChem Input Module
                                -------------------


                                        H6
                                        --
 Turning off AUTOSYM since
 SYMMETRY directive was detected!


          ------
          auto-z
          ------
     1 autoz failed with cvr_scaling = 1.2 changing to 1.3
     2 autoz failed with cvr_scaling = 1.3 changing to 1.4
     3 autoz failed with cvr_scaling = 1.4 changing to 1.5
     4 autoz failed with cvr_scaling = 1.5 changing to 1.6
  Looking for out-of-plane bends
  autoz: insufficient variables                     5                   12
     5 autoz failed with cvr_scaling = 1.6 changing to 1.7
  Looking for out-of-plane bends
  autoz: insufficient variables                     5                   12

 AUTOZ failed to generate good internal coordinates.
 Cartesian coordinates will be used in optimizations.



                             Geometry "geometry" -> ""
                             -------------------------

 Output coordinates in a.u. (scale by  1.000000000 to convert to a.u.)

  No.       Tag          Charge          X              Y              Z
 ---- ---------------- ---------- -------------- -------------- --------------
    1 H                    1.0000     0.00000000     0.00000000    -6.02500000
    2 H                    1.0000     0.00000000     0.00000000    -3.61500000
    3 H                    1.0000     0.00000000     0.00000000    -1.20500000
    4 H                    1.0000     0.00000000     0.00000000     1.20500000
    5 H                    1.0000     0.00000000     0.00000000     3.61500000
    6 H                    1.0000     0.00000000     0.00000000     6.02500000

      Atomic Mass 
      ----------- 

      H                  1.007825


 Effective nuclear repulsion energy (a.u.)       3.6099585062

            Nuclear Dipole moment (a.u.) 
            ----------------------------
        X                 Y               Z
 ---------------- ---------------- ----------------
     0.0000000000     0.0000000000    -0.0000000000


            XYZ format geometry
            -------------------
     6
 geometry
 H                     0.00000000     0.00000000    -3.18829293
 H                     0.00000000     0.00000000    -1.91297576
 H                     0.00000000     0.00000000    -0.63765859
 H                     0.00000000     0.00000000     0.63765859
 H                     0.00000000     0.00000000     1.91297576
 H                     0.00000000     0.00000000     3.18829293



 Summary of "ao basis" -> "" (spherical)
 ------------------------------------------------------------------------------
       Tag                 Description            Shells   Functions and Types
 ---------------- ------------------------------  ------  ---------------------
 *                          cc-pVTZ                   on all atoms 


                      Basis "ao basis" -> "ao basis" (spherical)
                      -----
  H (Hydrogen)
  ------------
            Exponent  Coefficients 
       -------------- ---------------------------------------------------------
  1 S  3.38700000E+01  0.006068
  1 S  5.09500000E+00  0.045308
  1 S  1.15900000E+00  0.202822

  2 S  3.25800000E-01  1.000000

  3 S  1.02700000E-01  1.000000

  4 P  1.40700000E+00  1.000000

  5 P  3.88000000E-01  1.000000

  6 D  1.05700000E+00  1.000000



 Summary of "ao basis" -> "ao basis" (spherical)
 ------------------------------------------------------------------------------
       Tag                 Description            Shells   Functions and Types
 ---------------- ------------------------------  ------  ---------------------
 H                          cc-pVTZ                  6       14   3s2p1d


                                 NWChem SCF Module
                                 -----------------


                                        H6



  ao basis        = "ao basis"
  functions       =    84
  atoms           =     6
  closed shells   =     3
  open shells     =     0
  charge          =   0.00
  wavefunction    = RHF 
  input vectors   = atomic
  output vectors  = ./H6.movecs
  use symmetry    = F
  symmetry adapt  = F


 Summary of "ao basis" -> "ao basis" (spherical)
 ------------------------------------------------------------------------------
       Tag                 Description            Shells   Functions and Types
 ---------------- ------------------------------  ------  ---------------------
 H                          cc-pVTZ                  6       14   3s2p1d



 Forming initial guess at       0.0s


      Superposition of Atomic Density Guess
      -------------------------------------

 Sum of atomic energies:          -2.99885518

      Non-variational initial energy
      ------------------------------

 Total energy =      -2.438421
 1-e energy   =     -10.104810
 2-e energy   =       4.056430
 HOMO         =      -0.279142
 LUMO         =      -0.093792


 Starting SCF solution at       0.1s



 ----------------------------------------------
         Quadratically convergent ROHF

 Convergence threshold     :          1.000E-08
 Maximum no. of iterations :           30
 Final Fock-matrix accuracy:          1.000E-10
 ----------------------------------------------


 Integral file          = ./H6.aoints.0
 Record size in doubles =  65536        No. of integs per rec  =  43688
 Max. records in memory =    202        Max. records in file   = 229027
 No. of bits per label  =      8        No. of bits per value  =     64


 #quartets = 1.611D+05 #integrals = 8.849D+05 #direct =  0.0% #cached =100.0%


              iter       energy          gnorm     gmax       time
             ----- ------------------- --------- --------- --------
                 1       -3.1193953500  1.92D-01  1.12D-01      0.2
                 2       -3.1291031888  6.19D-02  2.88D-02      0.3
                 3       -3.1296626511  3.32D-03  1.79D-03      0.4
                 4       -3.1296653837  2.42D-06  1.64D-06      0.4
                 5       -3.1296653837  1.23D-10  5.91D-11      0.5


       Final RHF  results 
       ------------------ 

         Total SCF energy =     -3.129665383686
      One-electron energy =    -10.516850985765
      Two-electron energy =      3.777227095854
 Nuclear repulsion energy =      3.609958506224

        Time for solution =      0.4s


             Final eigenvalues
             -----------------

              1      
    1   -0.5897
    2   -0.5079
    3   -0.3836
    4   -0.0219
    5    0.1357
    6    0.2755
    7    0.3404
    8    0.4047
    9    0.4245
   10    0.5166
   11    0.5746
   12    0.5746
   13    0.5806

                       ROHF Final Molecular Orbital Analysis
                       -------------------------------------

 Vector    1  Occ=2.000000D+00  E=-5.896977D-01
              MO Center= -5.8D-17,  1.5D-16,  1.2D-11, r^2= 3.2D+00
   Bfn.  Coefficient  Atom+Function         Bfn.  Coefficient  Atom+Function  
  ----- ------------  ---------------      ----- ------------  ---------------
    30      0.208056  3 H  s                 44      0.208056  4 H  s          
    16      0.156081  2 H  s                 58      0.156081  5 H  s          

 Vector    2  Occ=2.000000D+00  E=-5.079390D-01
              MO Center=  2.5D-16,  5.9D-17, -7.6D-12, r^2= 6.7D+00
   Bfn.  Coefficient  Atom+Function         Bfn.  Coefficient  Atom+Function  
  ----- ------------  ---------------      ----- ------------  ---------------
    16      0.205935  2 H  s                 58     -0.205935  5 H  s          
    17      0.183239  2 H  s                 59     -0.183239  5 H  s          
     2      0.177509  1 H  s                 72     -0.177509  6 H  s          

 Vector    3  Occ=2.000000D+00  E=-3.835617D-01
              MO Center=  3.2D-16, -4.6D-16, -4.6D-12, r^2= 6.4D+00
   Bfn.  Coefficient  Atom+Function         Bfn.  Coefficient  Atom+Function  
  ----- ------------  ---------------      ----- ------------  ---------------
    31      0.214485  3 H  s                 45      0.214485  4 H  s          
     2     -0.191280  1 H  s                 30      0.190695  3 H  s          
    44      0.190695  4 H  s                 72     -0.191280  6 H  s          
     3     -0.181942  1 H  s                 73     -0.181942  6 H  s          
    17     -0.165232  2 H  s                 59     -0.165232  5 H  s          

 Vector    4  Occ=0.000000D+00  E=-2.189699D-02
              MO Center= -1.9D-18,  2.0D-17, -5.3D-12, r^2= 7.7D+00
   Bfn.  Coefficient  Atom+Function         Bfn.  Coefficient  Atom+Function  
  ----- ------------  ---------------      ----- ------------  ---------------
     3      0.532835  1 H  s                 73     -0.532835  6 H  s          
    17     -0.337872  2 H  s                 59      0.337872  5 H  s          
    31     -0.254364  3 H  s                 45      0.254364  4 H  s          
    30     -0.184990  3 H  s                 44      0.184990  4 H  s          
     2      0.152848  1 H  s                 72     -0.152848  6 H  s          

 Vector    5  Occ=0.000000D+00  E= 1.356584D-01
              MO Center= -2.5D-16, -1.1D-16,  1.7D-11, r^2= 1.1D+01
   Bfn.  Coefficient  Atom+Function         Bfn.  Coefficient  Atom+Function  
  ----- ------------  ---------------      ----- ------------  ---------------
    17      1.117327  2 H  s                 59      1.117327  5 H  s          
     3     -1.003989  1 H  s                 73     -1.003989  6 H  s          
    31     -0.467664  3 H  s                 45     -0.467664  4 H  s          
    16      0.199310  2 H  s                 58      0.199310  5 H  s          

 Vector    6  Occ=0.000000D+00  E= 2.755404D-01
              MO Center= -4.2D-17,  3.8D-17,  2.5D-12, r^2= 1.3D+01
   Bfn.  Coefficient  Atom+Function         Bfn.  Coefficient  Atom+Function  
  ----- ------------  ---------------      ----- ------------  ---------------
    31      2.861654  3 H  s                 45     -2.861654  4 H  s          
    17     -2.229243  2 H  s                 59      2.229243  5 H  s          
     3      1.570678  1 H  s                 73     -1.570678  6 H  s          
     2     -0.403356  1 H  s                 72      0.403356  6 H  s          

 Vector    7  Occ=0.000000D+00  E= 3.404102D-01
              MO Center= -2.2D-16, -1.7D-15, -4.1D-11, r^2= 6.0D+00
   Bfn.  Coefficient  Atom+Function         Bfn.  Coefficient  Atom+Function  
  ----- ------------  ---------------      ----- ------------  ---------------
    30      0.648433  3 H  s                 44      0.648433  4 H  s          
    31     -0.530709  3 H  s                 45     -0.530709  4 H  s          
    17     -0.477728  2 H  s                 59     -0.477728  5 H  s          
    16      0.460725  2 H  s                 58      0.460725  5 H  s          
     2      0.418324  1 H  s                 72      0.418324  6 H  s          

 Vector    8  Occ=0.000000D+00  E= 4.047163D-01
              MO Center= -5.9D-16,  7.2D-16, -1.1D-10, r^2= 7.4D+00
   Bfn.  Coefficient  Atom+Function         Bfn.  Coefficient  Atom+Function  
  ----- ------------  ---------------      ----- ------------  ---------------
    17      1.771832  2 H  s                 59     -1.771832  5 H  s          
    31     -0.907439  3 H  s                 45      0.907439  4 H  s          
    16     -0.603359  2 H  s                 58      0.603359  5 H  s          
     2     -0.527502  1 H  s                 72      0.527502  6 H  s          
    30     -0.415200  3 H  s                 44      0.415200  4 H  s          

 Vector    9  Occ=0.000000D+00  E= 4.244535D-01
              MO Center= -4.2D-16, -1.4D-16, -1.2D-11, r^2= 1.1D+01
   Bfn.  Coefficient  Atom+Function         Bfn.  Coefficient  Atom+Function  
  ----- ------------  ---------------      ----- ------------  ---------------
     3      1.148574  1 H  s                 73      1.148574  6 H  s          
     2     -0.843883  1 H  s                 72     -0.843883  6 H  s          
    31     -0.455859  3 H  s                 45     -0.455859  4 H  s          
    30      0.398439  3 H  s                 44      0.398439  4 H  s          
    17     -0.371951  2 H  s                 59     -0.371951  5 H  s          

 Vector   10  Occ=0.000000D+00  E= 5.165708D-01
              MO Center= -2.3D-16,  2.3D-16,  1.0D-10, r^2= 9.2D+00
   Bfn.  Coefficient  Atom+Function         Bfn.  Coefficient  Atom+Function  
  ----- ------------  ---------------      ----- ------------  ---------------
    17     -1.195804  2 H  s                 59      1.195804  5 H  s          
     3      1.156022  1 H  s                 73     -1.156022  6 H  s          
    16      0.791913  2 H  s                 58     -0.791913  5 H  s          
     2     -0.682394  1 H  s                 72      0.682394  6 H  s          
    31     -0.245895  3 H  s                 45      0.245895  4 H  s          

 Vector   11  Occ=0.000000D+00  E= 5.745970D-01
              MO Center= -1.7D-15,  9.0D-16,  2.7D-11, r^2= 3.3D+00
   Bfn.  Coefficient  Atom+Function         Bfn.  Coefficient  Atom+Function  
  ----- ------------  ---------------      ----- ------------  ---------------
    35      0.396474  3 H  px                49      0.396474  4 H  px         
    21      0.312690  2 H  px                63      0.312690  5 H  px         
    36     -0.179818  3 H  py                50     -0.179818  4 H  py         
     7      0.172623  1 H  px                77      0.172623  6 H  px         

 Vector   12  Occ=0.000000D+00  E= 5.745970D-01
              MO Center=  9.6D-16,  2.3D-15,  2.7D-11, r^2= 3.3D+00
   Bfn.  Coefficient  Atom+Function         Bfn.  Coefficient  Atom+Function  
  ----- ------------  ---------------      ----- ------------  ---------------
    36      0.396474  3 H  py                50      0.396474  4 H  py         
    22      0.312690  2 H  py                64      0.312690  5 H  py         
    35      0.179818  3 H  px                49      0.179818  4 H  px         
     8      0.172623  1 H  py                78      0.172623  6 H  py         

 Vector   13  Occ=0.000000D+00  E= 5.805877D-01
              MO Center=  1.2D-15, -7.0D-16,  1.4D-10, r^2= 7.3D+00
   Bfn.  Coefficient  Atom+Function         Bfn.  Coefficient  Atom+Function  
  ----- ------------  ---------------      ----- ------------  ---------------
    17      2.760446  2 H  s                 59      2.760446  5 H  s          
    31     -1.621679  3 H  s                 45     -1.621679  4 H  s          
     3     -1.086439  1 H  s                 73     -1.086439  6 H  s          
    16     -0.944016  2 H  s                 58     -0.944016  5 H  s          
    30      0.605384  3 H  s                 44      0.605384  4 H  s          


 center of mass
 --------------
 x =   0.00000000 y =   0.00000000 z =  -0.00000000

 moments of inertia (a.u.)
 ------------------
         102.437096693750           0.000000000000           0.000000000000
           0.000000000000         102.437096693750           0.000000000000
           0.000000000000           0.000000000000           0.000000000000

  Mulliken analysis of the total density
  --------------------------------------

    Atom       Charge   Shell Charges
 -----------   ------   -------------------------------------------------------
    1 H    1     0.96   0.15  0.45  0.34  0.00  0.01  0.00
    2 H    1     1.05   0.16  0.48  0.38  0.00  0.02  0.00
    3 H    1     0.98   0.16  0.49  0.31  0.00  0.02  0.00
    4 H    1     0.98   0.16  0.49  0.31  0.00  0.02  0.00
    5 H    1     1.05   0.16  0.48  0.38  0.00  0.02  0.00
    6 H    1     0.96   0.15  0.45  0.34  0.00  0.01  0.00

       Multipole analysis of the density wrt the origin
       ------------------------------------------------

     L   x y z        total         open         nuclear
     -   - - -        -----         ----         -------
     0   0 0 0     -0.000000      0.000000      6.000000

     1   1 0 0     -0.000000      0.000000      0.000000
     1   0 1 0      0.000000      0.000000      0.000000
     1   0 0 1      0.000000      0.000000     -0.000000

     2   2 0 0     -6.039954      0.000000      0.000000
     2   1 1 0     -0.000000      0.000000      0.000000
     2   1 0 1     -0.000000      0.000000      0.000000
     2   0 2 0     -6.039954      0.000000      0.000000
     2   0 1 1      0.000000      0.000000      0.000000
     2   0 0 2     -3.061346      0.000000    101.641750


 Parallel integral file used      21 records with       0 large values

 ------------------------------------
     Number of active orbitals      6
     Number of active alpha electrons      3
     Number of active beta electrons       3
 ------------------------------------
                   NWChem Extensible Many-Electron Theory Module
                   ---------------------------------------------

              ======================================================
                   This portion of the program was automatically
                  generated by a Tensor Contraction Engine (TCE).
                  The development of this portion of the program
                 and TCE was supported by US Department of Energy,
                Office of Science, Office of Basic Energy Science.
                      TCE is a product of Battelle and PNNL.
              Please cite: S.Hirata, J.Phys.Chem.A 107, 9887 (2003).
              ======================================================

                                        H6


            General Information
            -------------------
      Number of processors :     1
         Wavefunction type : Restricted Hartree-Fock
          No. of electrons :     6
           Alpha electrons :     3
            Beta electrons :     3
           No. of orbitals :   168
            Alpha orbitals :    84
             Beta orbitals :    84
        Alpha frozen cores :     0
         Beta frozen cores :     0
     Alpha frozen virtuals :    78
      Beta frozen virtuals :    78
         Spin multiplicity : singlet 
    Number of AO functions :    84
       Number of AO shells :    36
        Use of symmetry is : off
      Symmetry adaption is : off
         Schwarz screening : 0.10D-09

          Correlation Information
          -----------------------
          Calculation type : Coupled-cluster singles & doubles                           
   Perturbative correction : none                                                        
            Max iterations :      300
        Residual threshold : 0.10D-07
     T(0) DIIS level shift : 0.00D+00
     L(0) DIIS level shift : 0.00D+00
     T(1) DIIS level shift : 0.00D+00
     L(1) DIIS level shift : 0.00D+00
     T(R) DIIS level shift : 0.00D+00
     T(I) DIIS level shift : 0.00D+00
   CC-T/L Amplitude update :  5-th order DIIS
                I/O scheme : Global Array Library
        L-threshold :  0.10D-07
        EOM-threshold :  0.10D-07
 no EOMCCSD initial starts read in
 TCE RESTART OPTIONS
 READ_INT:   F
 WRITE_INT:  F
 READ_TA:    F
 WRITE_TA:   F
 READ_XA:    F
 WRITE_XA:   F
 READ_IN3:   F
 WRITE_IN3:  F
 SLICE:      F
 D4D5:       F
 quantumc:   T
 qrotation:  F
 pwtce:      F
 qducc:      F
 nacto:                         0
 nrotv:                         0
 nrot:                          0

            Memory Information
            ------------------
          Available GA space size is     805299312 doubles
          Available MA space size is     805303700 doubles

 Maximum block size supplied by input
 Maximum block size         1 doubles

 tile_dim =      1

 Block   Spin    Irrep     Size     Offset   Alpha
 -------------------------------------------------
   1    alpha     a      1 doubles       0       1
   2    alpha     a      1 doubles       1       2
   3    alpha     a      1 doubles       2       3
   4    beta      a      1 doubles       3       1
   5    beta      a      1 doubles       4       2
   6    beta      a      1 doubles       5       3
   7    alpha     a      1 doubles       6       7
   8    alpha     a      1 doubles       7       8
   9    alpha     a      1 doubles       8       9
  10    beta      a      1 doubles       9       7
  11    beta      a      1 doubles      10       8
  12    beta      a      1 doubles      11       9

 Global array virtual files algorithm will be used

 Parallel file system coherency ......... OK

 Integral file          = ./H6.aoints.0
 Record size in doubles =  65536        No. of integs per rec  =  43688
 Max. records in memory =    202        Max. records in file   = 229027
 No. of bits per label  =      8        No. of bits per value  =     64


 #quartets = 1.611D+05 #integrals = 8.879D+05 #direct =  0.0% #cached =100.0%


 Fock matrix recomputed
 1-e file size   =               36
 1-e file name   = ./H6.f1
 Cpu & wall time / sec            0.2            0.2
 4-electron integrals stored in orbital form

 v2    file size   =              231
 4-index algorithm nr.  13 is used
 imaxsize =       30
 imaxsize ichop =        0
 begin_one_electron_integrals
    1    1        -1.9040083951
    3    1        -0.1179081528
    5    1        -0.0630070533
    2    2        -1.7186327703
    4    2         0.1718579502
    6    2         0.0641540647
    1    3        -0.1179081528
    3    3        -1.6357843274
    5    3         0.1617650055
    2    4         0.1718579502
    4    4        -1.4585124537
    6    4         0.2300517121
    1    5        -0.0630070533
    3    5         0.1617650055
    5    5        -1.2007123286
    2    6         0.0641540647
    4    6         0.2300517121
    6    6        -0.9798655403
 end_one_electron_integrals
 begin_two_electron_integrals
    1    1    1    1        0.3546875052
    2    1    2    1        0.1130516906
    3    1    1    1        0.0662083173
    3    1    3    1        0.0898246542
    3    1    2    2       -0.0288994890
    4    1    2    1       -0.0409733537
    4    1    4    1        0.0602059651
    4    1    3    2       -0.0084875642
    5    1    1    1        0.0069201409
    5    1    3    1       -0.0259700037
    5    1    5    1        0.0327570132
    5    1    2    2        0.0311655241
    5    1    4    2       -0.0176368907
    5    1    3    3       -0.0058147552
    5    1    4    4        0.0036903778
    6    1    2    1       -0.0017805594
    6    1    4    1       -0.0241291239
    6    1    6    1        0.0263829366
    6    1    3    2        0.0238699060
    6    1    5    2       -0.0061263137
    6    1    4    3       -0.0102611558
    6    1    5    4        0.0075313357
    2    2    1    1        0.2817556159
    2    2    2    2        0.3099879972
    3    2    2    1       -0.0876182462
    3    2    3    2        0.1036895429
    4    2    1    1       -0.0626173830
    4    2    3    1       -0.0449519484
    4    2    2    2       -0.0110539974
    4    2    4    2        0.0597221990
    4    2    3    3       -0.0093007603
    5    2    2    1        0.0350529470
    5    2    4    1       -0.0343845090
    5    2    3    2       -0.0086970665
    5    2    5    2        0.0454172188
    5    2    4    3        0.0134837881
    6    2    1    1       -0.0077484617
    6    2    3    1        0.0320740304
    6    2    5    1       -0.0171205367
    6    2    2    2       -0.0412456818
    6    2    4    2       -0.0071705974
    6    2    6    2        0.0241463328
    6    2    3    3       -0.0182304554
    6    2    5    3        0.0013020778
    6    2    4    4       -0.0083909830
    6    2    5    5       -0.0165430459
    3    3    1    1        0.2994941552
    3    3    3    1        0.0218805673
    3    3    2    2        0.2769678777
    3    3    3    3        0.2928127736
    4    3    2    1       -0.0603013730
    4    3    4    1        0.0084499024
    4    3    3    2        0.0579410199
    4    3    4    3        0.0639900282
    5    3    1    1       -0.0647837651
    5    3    3    1       -0.0404383215
    5    3    5    1       -0.0087486311
    5    3    2    2       -0.0199739400
    5    3    4    2        0.0445900739
    5    3    3    3       -0.0269166655
    5    3    5    3        0.0448783591
    5    3    4    4       -0.0168921953
    6    3    2    1        0.0481675621
    6    3    4    1       -0.0293747295
    6    3    6    1        0.0054536275
    6    3    3    2       -0.0272688920
    6    3    5    2        0.0204450758
    6    3    4    3       -0.0241932971
    6    3    6    3        0.0327339396
    6    3    5    4       -0.0147903855
    4    4    1    1        0.2823561699
    4    4    3    1        0.0175271865
    4    4    2    2        0.2624625338
    4    4    4    2       -0.0178299439
    4    4    3    3        0.2654481265
    4    4    4    4        0.2625913647
    5    4    2    1       -0.0727633220
    5    4    4    1        0.0040354053
    5    4    3    2        0.0753676140
    5    4    5    2       -0.0042774195
    5    4    4    3        0.0514688816
    5    4    5    4        0.0728275508
    6    4    1    1       -0.0711734307
    6    4    3    1       -0.0409838326
    6    4    5    1        0.0043732946
    6    4    2    2       -0.0269926893
    6    4    4    2        0.0288439235
    6    4    6    2       -0.0041743934
    6    4    3    3       -0.0446062452
    6    4    5    3        0.0287896562
    6    4    4    4       -0.0378874469
    6    4    6    4        0.0394398026
    6    4    5    5       -0.0115529079
    5    5    1    1        0.2427197233
    5    5    3    1       -0.0072106761
    5    5    5    1        0.0119524892
    5    5    2    2        0.2491915626
    5    5    4    2       -0.0071750663
    5    5    3    3        0.2378003872
    5    5    5    3       -0.0099376342
    5    5    4    4        0.2327418452
    5    5    5    5        0.2279127490
    6    5    2    1       -0.0529145518
    6    5    4    1        0.0090242230
    6    5    6    1       -0.0008413718
    6    5    3    2        0.0496911578
    6    5    5    2       -0.0036459926
    6    5    4    3        0.0384727237
    6    5    6    3       -0.0115627379
    6    5    5    4        0.0511022500
    6    5    6    5        0.0498291885
    6    6    1    1        0.2303413414
    6    6    3    1        0.0119638136
    6    6    5    1        0.0001405741
    6    6    2    2        0.2172519049
    6    6    4    2       -0.0095355273
    6    6    6    2       -0.0048823830
    6    6    3    3        0.2217413413
    6    6    5    3       -0.0119268190
    6    6    4    4        0.2162499214
    6    6    6    4       -0.0170737726
    6    6    5    5        0.2050817413
    6    6    6    6        0.2005054161
 end_two_electron_integrals
 enrep_tce =    3.6099585062240660     
  EHF(A)             =        -3.12966538
  EHF(total)         =        -3.12966538
  Shift (HFtot-HFA)  =         0.00000000
 Cpu & wall time / sec            3.0            3.1
 T1-number-of-tasks                    9

 t1 file size   =                9
 t1 file name   = ./H6.t1
 t1 file handle =       -998
 T2-number-of-boxes                  117

 t2 file size   =              117
 t2 file name   = ./H6.t2
 t2 file handle =       -996
CCSD iterations
 ---------------------------------------------------------
 Iter          Residuum       Correlation     Cpu    Wall 
 ---------------------------------------------------------
NEW TASK SCHEDULING
CCSD_T1_NTS --- OK
CCSD_T2_NTS --- OK
    1   0.0647858390377  -0.0339008588656     0.3     0.6
    2   0.0296237272477  -0.0445010018908     0.4     0.6
    3   0.0164464595441  -0.0485496666847     0.4     0.6
    4   0.0102668338809  -0.0503624691655     0.3     0.6
    5   0.0068163281303  -0.0512847974893   166.0   209.8
 MICROCYCLE DIIS UPDATE:                    5                    5
    6   0.0009932378830  -0.0526810640003  5272.3  7197.7
    7   0.0005661157958  -0.0526879682122     0.0     1.3
    8   0.0003704737891  -0.0527005308342     0.0     0.7
    9   0.0002589048438  -0.0527061008765     0.0     0.6
   10   0.0001803946579  -0.0527112503874     0.0     0.6
 MICROCYCLE DIIS UPDATE:                   10                    5
   11   0.0000371161988  -0.0527217478823     0.0     0.6
   12   0.0000191357773  -0.0527263859964     0.0     0.6
   13   0.0000124074530  -0.0527281500801     0.0     0.7
   14   0.0000082774247  -0.0527290867149     0.0     0.6
   15   0.0000056290448  -0.0527296304028     0.0     0.6
 MICROCYCLE DIIS UPDATE:                   15                    5
   16   0.0000010053966  -0.0527305910523     0.0     0.6
   17   0.0000006770263  -0.0527306261895     0.0     0.6
   18   0.0000004393791  -0.0527306482812     0.0     0.6
   19   0.0000003069490  -0.0527306583403     0.0     0.5
   20   0.0000002125010  -0.0527306664211     0.0     0.5
 MICROCYCLE DIIS UPDATE:                   20                    5
   21   0.0000000403080  -0.0527306814313     0.0     0.5
   22   0.0000000226841  -0.0527306859365     0.0     0.5
   23   0.0000000149203  -0.0527306878536     0.0     0.5
   24   0.0000000100239  -0.0527306888679     0.0     0.5
   25   0.0000000068214  -0.0527306894794     0.0     0.5
 -----------------------------------------------------------------
 Iterations converged
 CCSD correlation energy / hartree =        -0.052730689479366
 CCSD total energy / hartree       =        -3.182396073165698

 Singles contributions
     4a   (alpha) ---     2a   (alpha)       -0.0207233375
     5a   (alpha) ---     3a   (alpha)        0.0323544418

 Doubles contributions
     4a   (alpha)     5a   (alpha) ---     2a   (alpha)     3a   (alpha)       -0.0447404864
     4a   (alpha)     6a   (alpha) ---     1a   (alpha)     3a   (alpha)        0.0250597848
     4a   (alpha)     4a   (beta ) ---     1a   (alpha)     1a   (beta )       -0.0468854256
     4a   (alpha)     4a   (beta ) ---     2a   (alpha)     2a   (beta )       -0.0716471314
     4a   (alpha)     4a   (beta ) ---     3a   (alpha)     3a   (beta )       -0.2079309341
     4a   (alpha)     5a   (beta ) ---     1a   (alpha)     2a   (beta )        0.0344061578
     4a   (alpha)     5a   (beta ) ---     2a   (alpha)     3a   (beta )       -0.0845688508
     4a   (alpha)     5a   (beta ) ---     3a   (alpha)     2a   (beta )       -0.0398283644
     4a   (alpha)     6a   (beta ) ---     1a   (alpha)     3a   (beta )        0.0460110025
     4a   (alpha)     6a   (beta ) ---     3a   (alpha)     1a   (beta )        0.0209512178
     4a   (alpha)     6a   (beta ) ---     3a   (alpha)     3a   (beta )        0.0360561322
     5a   (alpha)     4a   (beta ) ---     2a   (alpha)     1a   (beta )        0.0344061578
     5a   (alpha)     4a   (beta ) ---     2a   (alpha)     3a   (beta )       -0.0398283644
     5a   (alpha)     4a   (beta ) ---     3a   (alpha)     2a   (beta )       -0.0845688508
     5a   (alpha)     5a   (beta ) ---     1a   (alpha)     1a   (beta )       -0.0288073127
     5a   (alpha)     5a   (beta ) ---     2a   (alpha)     2a   (beta )       -0.0586878317
     5a   (alpha)     5a   (beta ) ---     3a   (alpha)     3a   (beta )       -0.0499148183
     5a   (alpha)     6a   (beta ) ---     1a   (alpha)     2a   (beta )        0.0211898917
     6a   (alpha)     4a   (beta ) ---     1a   (alpha)     3a   (beta )        0.0209512178
     6a   (alpha)     4a   (beta ) ---     3a   (alpha)     1a   (beta )        0.0460110025
     6a   (alpha)     4a   (beta ) ---     3a   (alpha)     3a   (beta )        0.0360561322
     6a   (alpha)     5a   (beta ) ---     2a   (alpha)     1a   (beta )        0.0211898917
     6a   (alpha)     6a   (beta ) ---     1a   (alpha)     1a   (beta )       -0.0218734704
     6a   (alpha)     6a   (beta ) ---     3a   (alpha)     3a   (beta )       -0.0236127676
 Ground state specification:
 exp(T)|Ref>~(1+T)|Ref>
 ------- a(p)+/a(q) strings ----------

 singles norm

 doubles norm

 Reference string
  0.97905901033657272      :(1a)+ (2a)+ (3a)+ (1b)+ (2b)+ (3b)+ |0>

 Singles strings

 Doubles strings
 -0.20357665455245769      :(4a)+ (4b)+ (3b)  (3a)  (1a)+ (2a)+ (3a)+ (1b)+ (2b)+ (3b)+ |0>
 -------------------------------------

 Parallel integral file used      21 records with       0 large values


 Task  times  cpu:     5443.5s     wall:     7426.2s


                                NWChem Input Module
                                -------------------


 Summary of allocated global arrays
-----------------------------------
  No active global arrays


MA_summarize_allocated_blocks: starting scan ...
MA_summarize_allocated_blocks: scan completed: 0 heap blocks, 0 stack blocks
MA usage statistics:

	allocation statistics:
					      heap	     stack
					      ----	     -----
	current number of blocks	         0	         0
	maximum number of blocks	        17	        42
	current total bytes		         0	         0
	maximum total bytes		 105925112	  32972408
	maximum total K-bytes		    105926	     32973
	maximum total M-bytes		       106	        33


                                     CITATION
                                     --------
                Please cite the following reference when publishing
                           results obtained with NWChem:

          E. Apra, E. J. Bylaska, W. A. de Jong, N. Govind, K. Kowalski,
       T. P. Straatsma, M. Valiev, H. J. J. van Dam, Y. Alexeev, J. Anchell,
       V. Anisimov, F. W. Aquino, R. Atta-Fynn, J. Autschbach, N. P. Bauman,
     J. C. Becca, D. E. Bernholdt, K. Bhaskaran-Nair, S. Bogatko, P. Borowski,
         J. Boschen, J. Brabec, A. Bruner, E. Cauet, Y. Chen, G. N. Chuev,
      C. J. Cramer, J. Daily, M. J. O. Deegan, T. H. Dunning Jr., M. Dupuis,
   K. G. Dyall, G. I. Fann, S. A. Fischer, A. Fonari, H. Fruchtl, L. Gagliardi,
      J. Garza, N. Gawande, S. Ghosh, K. Glaesemann, A. W. Gotz, J. Hammond,
       V. Helms, E. D. Hermes, K. Hirao, S. Hirata, M. Jacquelin, L. Jensen,
   B. G. Johnson, H. Jonsson, R. A. Kendall, M. Klemm, R. Kobayashi, V. Konkov,
      S. Krishnamoorthy, M. Krishnan, Z. Lin, R. D. Lins, R. J. Littlefield,
      A. J. Logsdail, K. Lopata, W. Ma, A. V. Marenich, J. Martin del Campo,
   D. Mejia-Rodriguez, J. E. Moore, J. M. Mullin, T. Nakajima, D. R. Nascimento,
    J. A. Nichols, P. J. Nichols, J. Nieplocha, A. Otero-de-la-Roza, B. Palmer,
    A. Panyala, T. Pirojsirikul, B. Peng, R. Peverati, J. Pittner, L. Pollack,
   R. M. Richard, P. Sadayappan, G. C. Schatz, W. A. Shelton, D. W. Silverstein,
   D. M. A. Smith, T. A. Soares, D. Song, M. Swart, H. L. Taylor, G. S. Thomas,
            V. Tipparaju, D. G. Truhlar, K. Tsemekhman, T. Van Voorhis,
      A. Vazquez-Mayagoitia, P. Verma, O. Villa, A. Vishnu, K. D. Vogiatzis,
        D. Wang, J. H. Weare, M. J. Williamson, T. L. Windus, K. Wolinski,
        A. T. Wong, Q. Wu, C. Yang, Q. Yu, M. Zacharias, Z. Zhang, Y. Zhao,
                                and R. J. Harrison
                        "NWChem: Past, present, and future
                         J. Chem. Phys. 152, 184102 (2020)
                               doi:10.1063/5.0004997

                                      AUTHORS
                                      -------
  E. Apra, E. J. Bylaska, N. Govind, K. Kowalski, M. Valiev, D. Mejia-Rodriguez,
       A. Kunitsa, N. P. Bauman, A. Panyala, W. A. de Jong, T. P. Straatsma,
        H. J. J. van Dam, D. Wang, T. L. Windus, J. Hammond, J. Autschbach,
    K. Bhaskaran-Nair, J. Brabec, K. Lopata, S. A. Fischer, S. Krishnamoorthy,
     M. Jacquelin, W. Ma, M. Klemm, O. Villa, Y. Chen, V. Anisimov, F. Aquino,
    S. Hirata, M. T. Hackler, Eric Hermes, L. Jensen, J. E. Moore, J. C. Becca,
      V. Konjkov, T. Risthaus, M. Malagoli, A. Marenich, A. Otero-de-la-Roza,
        J. Mullin, P. Nichols, R. Peverati, J. Pittner, Y. Zhao, P.-D. Fan,
        A. Fonari, M. J. Williamson, R. J. Harrison, J. R. Rehr, M. Dupuis,
     D. Silverstein, D. M. A. Smith, J. Nieplocha, V. Tipparaju, M. Krishnan,
     B. E. Van Kuiken, A. Vazquez-Mayagoitia, M. Swart, Q. Wu, T. Van Voorhis,
     A. A. Auer, M. Nooijen, L. D. Crosby, E. Brown, G. Cisneros, G. I. Fann,
   H. Fruchtl, J. Garza, K. Hirao, R. A. Kendall, J. A. Nichols, K. Tsemekhman,
    K. Wolinski, J. Anchell, D. E. Bernholdt, P. Borowski, T. Clark, D. Clerc,
   H. Dachsel, M. J. O. Deegan, K. Dyall, D. Elwood, E. Glendening, M. Gutowski,
   A. C. Hess, J. Jaffe, B. G. Johnson, J. Ju, R. Kobayashi, R. Kutteh, Z. Lin,
   R. Littlefield, X. Long, B. Meng, T. Nakajima, S. Niu, L. Pollack, M. Rosing,
   K. Glaesemann, G. Sandrone, M. Stave, H. Taylor, G. Thomas, J. H. van Lenthe,
                               A. T. Wong, Z. Zhang.

 Total times  cpu:     5443.5s     wall:     7426.2s
