 argument  1 = input.nw
  NWChem w/ OpenMP: maximum threads =    1



============================== echo of input deck ==============================

echo
start H6
title "H6"

memory total 12 gb

geometry units bohr
symmetry c1
H 0 0 0
H 0 0 2.58
H 0 0 5.16
H 0 0 7.74
H 0 0 10.32
H 0 0 12.90
end

basis spherical
  * library cc-pVTZ
end

scf
thresh 1e-8
end

tce
  2eorb
  2emet 13
  ccsd
  thresh 1e-8
  maxiter 300
end

set tce:print_integrals T
set tce:qorb 6
set tce:qela 3
set tce:qelb 3

# set tce:qducc T
# set tce:nactv 3
# set tce:nonhf T
# set tce:ducc_model 6

set tce:printtol 0.02

task tce
================================================================================


                                         
                                         


             Northwest Computational Chemistry Package (NWChem) 7.0.1
             --------------------------------------------------------


                    Environmental Molecular Sciences Laboratory
                       Pacific Northwest National Laboratory
                                Richland, WA 99352

                              Copyright (c) 1994-2020
                       Pacific Northwest National Laboratory
                            Battelle Memorial Institute

             NWChem is an open-source computational chemistry package
                        distributed under the terms of the
                      Educational Community License (ECL) 2.0
             A copy of the license is included with this distribution
                              in the LICENSE.TXT file

                                  ACKNOWLEDGMENT
                                  --------------

            This software and its documentation were developed at the
            EMSL at Pacific Northwest National Laboratory, a multiprogram
            national laboratory, operated for the U.S. Department of Energy
            by Battelle under Contract Number DE-AC05-76RL01830. Support
            for this work was provided by the Department of Energy Office
            of Biological and Environmental Research, Office of Basic
            Energy Sciences, and the Office of Advanced Scientific Computing.


           Job information
           ---------------

    hostname        = WE46210
    program         = /home/baum612/code/nwchem/bin/LINUX64/nwchem
    date            = Fri Nov  8 23:19:00 2024

    compiled        = Wed_Sep_04_02:00:17_2024
    source          = /home/baum612/code/nwchem
    nwchem branch   = 7.0.0
    nwchem revision = nwchem_on_git-4191-g39d87d64de
    ga revision     = 5.8.1
    use scalapack   = F
    input           = input.nw
    prefix          = H6.
    data base       = ./H6.db
    status          = startup
    nproc           =        1
    time left       =     -1s



           Memory information
           ------------------

    heap     =  402653182 doubles =   3072.0 Mbytes
    stack    =  402653179 doubles =   3072.0 Mbytes
    global   =  805306368 doubles =   6144.0 Mbytes (distinct from heap & stack)
    total    = 1610612729 doubles =  12288.0 Mbytes
    verify   = yes
    hardfail = no 


           Directory information
           ---------------------

  0 permanent = .
  0 scratch   = .




                                NWChem Input Module
                                -------------------


                                        H6
                                        --
 Turning off AUTOSYM since
 SYMMETRY directive was detected!


          ------
          auto-z
          ------
     1 autoz failed with cvr_scaling = 1.2 changing to 1.3
     2 autoz failed with cvr_scaling = 1.3 changing to 1.4
     3 autoz failed with cvr_scaling = 1.4 changing to 1.5
     4 autoz failed with cvr_scaling = 1.5 changing to 1.6
     5 autoz failed with cvr_scaling = 1.6 changing to 1.7

 AUTOZ failed to generate good internal coordinates.
 Cartesian coordinates will be used in optimizations.



                             Geometry "geometry" -> ""
                             -------------------------

 Output coordinates in a.u. (scale by  1.000000000 to convert to a.u.)

  No.       Tag          Charge          X              Y              Z
 ---- ---------------- ---------- -------------- -------------- --------------
    1 H                    1.0000     0.00000000     0.00000000    -6.45000000
    2 H                    1.0000     0.00000000     0.00000000    -3.87000000
    3 H                    1.0000     0.00000000     0.00000000    -1.29000000
    4 H                    1.0000     0.00000000     0.00000000     1.29000000
    5 H                    1.0000     0.00000000     0.00000000     3.87000000
    6 H                    1.0000     0.00000000     0.00000000     6.45000000

      Atomic Mass 
      ----------- 

      H                  1.007825


 Effective nuclear repulsion energy (a.u.)       3.3720930233

            Nuclear Dipole moment (a.u.) 
            ----------------------------
        X                 Y               Z
 ---------------- ---------------- ----------------
     0.0000000000     0.0000000000     0.0000000000


            XYZ format geometry
            -------------------
     6
 geometry
 H                     0.00000000     0.00000000    -3.41319326
 H                     0.00000000     0.00000000    -2.04791595
 H                     0.00000000     0.00000000    -0.68263865
 H                     0.00000000     0.00000000     0.68263865
 H                     0.00000000     0.00000000     2.04791595
 H                     0.00000000     0.00000000     3.41319326



 Summary of "ao basis" -> "" (spherical)
 ------------------------------------------------------------------------------
       Tag                 Description            Shells   Functions and Types
 ---------------- ------------------------------  ------  ---------------------
 *                          cc-pVTZ                   on all atoms 


                      Basis "ao basis" -> "ao basis" (spherical)
                      -----
  H (Hydrogen)
  ------------
            Exponent  Coefficients 
       -------------- ---------------------------------------------------------
  1 S  3.38700000E+01  0.006068
  1 S  5.09500000E+00  0.045308
  1 S  1.15900000E+00  0.202822

  2 S  3.25800000E-01  1.000000

  3 S  1.02700000E-01  1.000000

  4 P  1.40700000E+00  1.000000

  5 P  3.88000000E-01  1.000000

  6 D  1.05700000E+00  1.000000



 Summary of "ao basis" -> "ao basis" (spherical)
 ------------------------------------------------------------------------------
       Tag                 Description            Shells   Functions and Types
 ---------------- ------------------------------  ------  ---------------------
 H                          cc-pVTZ                  6       14   3s2p1d


                                 NWChem SCF Module
                                 -----------------


                                        H6



  ao basis        = "ao basis"
  functions       =    84
  atoms           =     6
  closed shells   =     3
  open shells     =     0
  charge          =   0.00
  wavefunction    = RHF 
  input vectors   = atomic
  output vectors  = ./H6.movecs
  use symmetry    = F
  symmetry adapt  = F


 Summary of "ao basis" -> "ao basis" (spherical)
 ------------------------------------------------------------------------------
       Tag                 Description            Shells   Functions and Types
 ---------------- ------------------------------  ------  ---------------------
 H                          cc-pVTZ                  6       14   3s2p1d



 Forming initial guess at       0.0s


      Superposition of Atomic Density Guess
      -------------------------------------

 Sum of atomic energies:          -2.99885518

      Non-variational initial energy
      ------------------------------

 Total energy =      -2.369436
 1-e energy   =      -9.663688
 2-e energy   =       3.922159
 HOMO         =      -0.273422
 LUMO         =      -0.109212


 Starting SCF solution at       0.1s



 ----------------------------------------------
         Quadratically convergent ROHF

 Convergence threshold     :          1.000E-08
 Maximum no. of iterations :           30
 Final Fock-matrix accuracy:          1.000E-10
 ----------------------------------------------


 Integral file          = ./H6.aoints.0
 Record size in doubles =  65536        No. of integs per rec  =  43688
 Max. records in memory =    202        Max. records in file   = 229027
 No. of bits per label  =      8        No. of bits per value  =     64


 #quartets = 1.545D+05 #integrals = 8.052D+05 #direct =  0.0% #cached =100.0%


              iter       energy          gnorm     gmax       time
             ----- ------------------- --------- --------- --------
                 1       -3.0731570699  1.83D-01  1.07D-01      0.2
                 2       -3.0830648791  6.30D-02  2.55D-02      0.2
                 3       -3.0836274562  3.44D-03  2.02D-03      0.2
                 4       -3.0836310323  3.33D-06  2.49D-06      0.3
                 5       -3.0836310323  1.22D-10  4.59D-11      0.3


       Final RHF  results 
       ------------------ 

         Total SCF energy =     -3.083631032339
      One-electron energy =    -10.046540928880
      Two-electron energy =      3.590816873286
 Nuclear repulsion energy =      3.372093023256

        Time for solution =      0.3s


             Final eigenvalues
             -----------------

              1      
    1   -0.5628
    2   -0.4901
    3   -0.3796
    4   -0.0399
    5    0.1073
    6    0.2526
    7    0.3455
    8    0.3928
    9    0.4158
   10    0.4840
   11    0.5660
   12    0.5798
   13    0.5798

                       ROHF Final Molecular Orbital Analysis
                       -------------------------------------

 Vector    1  Occ=2.000000D+00  E=-5.627760D-01
              MO Center=  2.3D-17, -4.3D-17, -1.4D-11, r^2= 3.7D+00
   Bfn.  Coefficient  Atom+Function         Bfn.  Coefficient  Atom+Function  
  ----- ------------  ---------------      ----- ------------  ---------------
    30      0.206210  3 H  s                 44      0.206210  4 H  s          
    16      0.155436  2 H  s                 58      0.155436  5 H  s          

 Vector    2  Occ=2.000000D+00  E=-4.900700D-01
              MO Center=  3.4D-17, -3.6D-17,  3.3D-12, r^2= 7.7D+00
   Bfn.  Coefficient  Atom+Function         Bfn.  Coefficient  Atom+Function  
  ----- ------------  ---------------      ----- ------------  ---------------
    16      0.202468  2 H  s                 58     -0.202468  5 H  s          
    17      0.188170  2 H  s                 59     -0.188170  5 H  s          
     2      0.176992  1 H  s                 72     -0.176992  6 H  s          

 Vector    3  Occ=2.000000D+00  E=-3.796076D-01
              MO Center= -1.7D-16, -2.0D-16,  1.8D-11, r^2= 7.1D+00
   Bfn.  Coefficient  Atom+Function         Bfn.  Coefficient  Atom+Function  
  ----- ------------  ---------------      ----- ------------  ---------------
    31      0.215576  3 H  s                 45      0.215576  4 H  s          
     2     -0.186450  1 H  s                  3     -0.185881  1 H  s          
    30      0.185960  3 H  s                 44      0.185960  4 H  s          
    72     -0.186450  6 H  s                 73     -0.185881  6 H  s          
    17     -0.163495  2 H  s                 59     -0.163495  5 H  s          

 Vector    4  Occ=0.000000D+00  E=-3.987305D-02
              MO Center= -9.4D-19, -3.8D-18, -2.0D-11, r^2= 8.2D+00
   Bfn.  Coefficient  Atom+Function         Bfn.  Coefficient  Atom+Function  
  ----- ------------  ---------------      ----- ------------  ---------------
     3      0.474183  1 H  s                 73     -0.474183  6 H  s          
    31     -0.290132  3 H  s                 45      0.290132  4 H  s          
    17     -0.276026  2 H  s                 59      0.276026  5 H  s          
    30     -0.178721  3 H  s                 44      0.178721  4 H  s          
     2      0.154387  1 H  s                 72     -0.154387  6 H  s          

 Vector    5  Occ=0.000000D+00  E= 1.073234D-01
              MO Center= -1.3D-16, -6.2D-16,  2.3D-11, r^2= 1.1D+01
   Bfn.  Coefficient  Atom+Function         Bfn.  Coefficient  Atom+Function  
  ----- ------------  ---------------      ----- ------------  ---------------
    17      0.929928  2 H  s                 59      0.929928  5 H  s          
     3     -0.840650  1 H  s                 73     -0.840650  6 H  s          
    31     -0.380193  3 H  s                 45     -0.380193  4 H  s          
    16      0.197837  2 H  s                 58      0.197837  5 H  s          

 Vector    6  Occ=0.000000D+00  E= 2.525766D-01
              MO Center=  2.5D-19, -9.4D-18,  2.1D-11, r^2= 1.1D+01
   Bfn.  Coefficient  Atom+Function         Bfn.  Coefficient  Atom+Function  
  ----- ------------  ---------------      ----- ------------  ---------------
    31      2.192597  3 H  s                 45     -2.192597  4 H  s          
    17     -1.754804  2 H  s                 59      1.754804  5 H  s          
     3      1.255867  1 H  s                 73     -1.255867  6 H  s          
     2     -0.276835  1 H  s                 72      0.276835  6 H  s          

 Vector    7  Occ=0.000000D+00  E= 3.455148D-01
              MO Center=  8.6D-16, -3.2D-16, -4.2D-11, r^2= 7.0D+00
   Bfn.  Coefficient  Atom+Function         Bfn.  Coefficient  Atom+Function  
  ----- ------------  ---------------      ----- ------------  ---------------
    30      0.644107  3 H  s                 44      0.644107  4 H  s          
    31     -0.547839  3 H  s                 45     -0.547839  4 H  s          
    16      0.473714  2 H  s                 58      0.473714  5 H  s          
     2      0.470463  1 H  s                 72      0.470463  6 H  s          
    17     -0.421313  2 H  s                 59     -0.421313  5 H  s          

 Vector    8  Occ=0.000000D+00  E= 3.927977D-01
              MO Center= -4.1D-16, -6.2D-16,  3.9D-11, r^2= 9.4D+00
   Bfn.  Coefficient  Atom+Function         Bfn.  Coefficient  Atom+Function  
  ----- ------------  ---------------      ----- ------------  ---------------
    17      0.988006  2 H  s                 59     -0.988006  5 H  s          
     2     -0.681948  1 H  s                 72      0.681948  6 H  s          
    16     -0.472733  2 H  s                 58      0.472733  5 H  s          
    30     -0.414875  3 H  s                 44      0.414875  4 H  s          
     3      0.386726  1 H  s                 73     -0.386726  6 H  s          

 Vector    9  Occ=0.000000D+00  E= 4.158112D-01
              MO Center= -1.5D-16, -3.2D-16, -6.8D-11, r^2= 1.3D+01
   Bfn.  Coefficient  Atom+Function         Bfn.  Coefficient  Atom+Function  
  ----- ------------  ---------------      ----- ------------  ---------------
     3      1.137907  1 H  s                 73      1.137907  6 H  s          
     2     -0.818695  1 H  s                 72     -0.818695  6 H  s          
    31     -0.460417  3 H  s                 45     -0.460417  4 H  s          
    30      0.439541  3 H  s                 44      0.439541  4 H  s          
    17     -0.400642  2 H  s                 59     -0.400642  5 H  s          

 Vector   10  Occ=0.000000D+00  E= 4.839671D-01
              MO Center= -3.5D-16, -3.9D-16, -2.7D-11, r^2= 1.1D+01
   Bfn.  Coefficient  Atom+Function         Bfn.  Coefficient  Atom+Function  
  ----- ------------  ---------------      ----- ------------  ---------------
    17      1.538029  2 H  s                 59     -1.538029  5 H  s          
     3     -1.202513  1 H  s                 73      1.202513  6 H  s          
    16     -0.848209  2 H  s                 58      0.848209  5 H  s          
     2      0.612936  1 H  s                 72     -0.612936  6 H  s          

 Vector   11  Occ=0.000000D+00  E= 5.659713D-01
              MO Center= -3.6D-16,  6.5D-16,  9.6D-11, r^2= 7.7D+00
   Bfn.  Coefficient  Atom+Function         Bfn.  Coefficient  Atom+Function  
  ----- ------------  ---------------      ----- ------------  ---------------
    17      2.418326  2 H  s                 59      2.418326  5 H  s          
    31     -1.413045  3 H  s                 45     -1.413045  4 H  s          
     3     -0.946249  1 H  s                 73     -0.946249  6 H  s          
    16     -0.925787  2 H  s                 58     -0.925787  5 H  s          
    30      0.582215  3 H  s                 44      0.582215  4 H  s          

 Vector   12  Occ=0.000000D+00  E= 5.798095D-01
              MO Center= -4.2D-16, -8.9D-18, -2.0D-11, r^2= 3.7D+00
   Bfn.  Coefficient  Atom+Function         Bfn.  Coefficient  Atom+Function  
  ----- ------------  ---------------      ----- ------------  ---------------
    35      0.441231  3 H  px                49      0.441231  4 H  px         
    21      0.348056  2 H  px                63      0.348056  5 H  px         
     7      0.190052  1 H  px                77      0.190052  6 H  px         

 Vector   13  Occ=0.000000D+00  E= 5.798095D-01
              MO Center= -3.3D-16,  6.0D-16, -2.0D-11, r^2= 3.7D+00
   Bfn.  Coefficient  Atom+Function         Bfn.  Coefficient  Atom+Function  
  ----- ------------  ---------------      ----- ------------  ---------------
    36      0.441231  3 H  py                50      0.441231  4 H  py         
    22      0.348056  2 H  py                64      0.348056  5 H  py         
     8      0.190052  1 H  py                78      0.190052  6 H  py         


 center of mass
 --------------
 x =   0.00000000 y =   0.00000000 z =   0.00000000

 moments of inertia (a.u.)
 ------------------
         117.398510775000           0.000000000000           0.000000000000
           0.000000000000         117.398510775000           0.000000000000
           0.000000000000           0.000000000000           0.000000000000

  Mulliken analysis of the total density
  --------------------------------------

    Atom       Charge   Shell Charges
 -----------   ------   -------------------------------------------------------
    1 H    1     0.96   0.15  0.44  0.37  0.00  0.01  0.00
    2 H    1     1.05   0.16  0.47  0.41  0.00  0.02  0.00
    3 H    1     0.99   0.16  0.47  0.34  0.00  0.02  0.00
    4 H    1     0.99   0.16  0.47  0.34  0.00  0.02  0.00
    5 H    1     1.05   0.16  0.47  0.41  0.00  0.02  0.00
    6 H    1     0.96   0.15  0.44  0.37  0.00  0.01  0.00

       Multipole analysis of the density wrt the origin
       ------------------------------------------------

     L   x y z        total         open         nuclear
     -   - - -        -----         ----         -------
     0   0 0 0     -0.000000      0.000000      6.000000

     1   1 0 0      0.000000      0.000000      0.000000
     1   0 1 0      0.000000      0.000000      0.000000
     1   0 0 1     -0.000000      0.000000      0.000000

     2   2 0 0     -6.316754      0.000000      0.000000
     2   1 1 0     -0.000000      0.000000      0.000000
     2   1 0 1     -0.000000      0.000000      0.000000
     2   0 2 0     -6.316754      0.000000      0.000000
     2   0 1 1      0.000000      0.000000      0.000000
     2   0 0 2     -2.541356      0.000000    116.487000


 Parallel integral file used      19 records with       0 large values

 ------------------------------------
     Number of active orbitals      6
     Number of active alpha electrons      3
     Number of active beta electrons       3
 ------------------------------------
                   NWChem Extensible Many-Electron Theory Module
                   ---------------------------------------------

              ======================================================
                   This portion of the program was automatically
                  generated by a Tensor Contraction Engine (TCE).
                  The development of this portion of the program
                 and TCE was supported by US Department of Energy,
                Office of Science, Office of Basic Energy Science.
                      TCE is a product of Battelle and PNNL.
              Please cite: S.Hirata, J.Phys.Chem.A 107, 9887 (2003).
              ======================================================

                                        H6


            General Information
            -------------------
      Number of processors :     1
         Wavefunction type : Restricted Hartree-Fock
          No. of electrons :     6
           Alpha electrons :     3
            Beta electrons :     3
           No. of orbitals :   168
            Alpha orbitals :    84
             Beta orbitals :    84
        Alpha frozen cores :     0
         Beta frozen cores :     0
     Alpha frozen virtuals :    78
      Beta frozen virtuals :    78
         Spin multiplicity : singlet 
    Number of AO functions :    84
       Number of AO shells :    36
        Use of symmetry is : off
      Symmetry adaption is : off
         Schwarz screening : 0.10D-09

          Correlation Information
          -----------------------
          Calculation type : Coupled-cluster singles & doubles                           
   Perturbative correction : none                                                        
            Max iterations :      300
        Residual threshold : 0.10D-07
     T(0) DIIS level shift : 0.00D+00
     L(0) DIIS level shift : 0.00D+00
     T(1) DIIS level shift : 0.00D+00
     L(1) DIIS level shift : 0.00D+00
     T(R) DIIS level shift : 0.00D+00
     T(I) DIIS level shift : 0.00D+00
   CC-T/L Amplitude update :  5-th order DIIS
                I/O scheme : Global Array Library
        L-threshold :  0.10D-07
        EOM-threshold :  0.10D-07
 no EOMCCSD initial starts read in
 TCE RESTART OPTIONS
 READ_INT:   F
 WRITE_INT:  F
 READ_TA:    F
 WRITE_TA:   F
 READ_XA:    F
 WRITE_XA:   F
 READ_IN3:   F
 WRITE_IN3:  F
 SLICE:      F
 D4D5:       F
 quantumc:   T
 qrotation:  F
 pwtce:      F
 qducc:      F
 nacto:                         0
 nrotv:                         0
 nrot:                          0

            Memory Information
            ------------------
          Available GA space size is     805299312 doubles
          Available MA space size is     805303700 doubles

 Maximum block size supplied by input
 Maximum block size         1 doubles

 tile_dim =      1

 Block   Spin    Irrep     Size     Offset   Alpha
 -------------------------------------------------
   1    alpha     a      1 doubles       0       1
   2    alpha     a      1 doubles       1       2
   3    alpha     a      1 doubles       2       3
   4    beta      a      1 doubles       3       1
   5    beta      a      1 doubles       4       2
   6    beta      a      1 doubles       5       3
   7    alpha     a      1 doubles       6       7
   8    alpha     a      1 doubles       7       8
   9    alpha     a      1 doubles       8       9
  10    beta      a      1 doubles       9       7
  11    beta      a      1 doubles      10       8
  12    beta      a      1 doubles      11       9

 Global array virtual files algorithm will be used

 Parallel file system coherency ......... OK

 Integral file          = ./H6.aoints.0
 Record size in doubles =  65536        No. of integs per rec  =  43688
 Max. records in memory =    202        Max. records in file   = 229027
 No. of bits per label  =      8        No. of bits per value  =     64


 #quartets = 1.545D+05 #integrals = 8.070D+05 #direct =  0.0% #cached =100.0%


 Fock matrix recomputed
 1-e file size   =               36
 1-e file name   = ./H6.f1
 Cpu & wall time / sec            0.1            0.1
 4-electron integrals stored in orbital form

 v2    file size   =              231
 4-index algorithm nr.  13 is used
 imaxsize =       30
 imaxsize ichop =        0
 begin_one_electron_integrals
    1    1        -1.8102489604
    3    1        -0.1112103345
    5    1        -0.0608157136
    2    2        -1.6396648793
    4    2         0.1598033447
    6    2         0.0602289085
    1    3        -0.1112103345
    3    3        -1.5733566247
    5    3         0.1471606370
    2    4         0.1598033447
    4    4        -1.4252114500
    6    4         0.2021999283
    1    5        -0.0608157136
    3    5         0.1471606370
    5    5        -1.2117537531
    2    6         0.0602289085
    4    6         0.2021999283
    6    6        -1.0572313007
 end_one_electron_integrals
 begin_two_electron_integrals
    1    1    1    1        0.3369426576
    2    1    2    1        0.1091831733
    3    1    1    1        0.0634646229
    3    1    3    1        0.0886887016
    3    1    2    2       -0.0300547590
    4    1    2    1       -0.0392119592
    4    1    4    1        0.0608922537
    4    1    3    2       -0.0090005963
    5    1    1    1        0.0071147823
    5    1    3    1       -0.0246794699
    5    1    5    1        0.0346690087
    5    1    2    2        0.0295974341
    5    1    4    2       -0.0198361508
    5    1    3    3       -0.0073941879
    5    1    4    4        0.0025051833
    6    1    2    1       -0.0011482675
    6    1    4    1       -0.0248224191
    6    1    6    1        0.0335805711
    6    1    3    2        0.0228336671
    6    1    5    2       -0.0101636788
    6    1    4    3       -0.0166840607
    6    1    5    4        0.0079290823
    2    2    1    1        0.2672868891
    2    2    2    2        0.2967407641
    3    2    2    1       -0.0856973609
    3    2    3    2        0.1011419438
    4    2    1    1       -0.0590754557
    4    2    3    1       -0.0442008091
    4    2    2    2       -0.0083599737
    4    2    4    2        0.0591995752
    4    2    3    3       -0.0083581651
    5    2    2    1        0.0324809494
    5    2    4    1       -0.0361898932
    5    2    3    2       -0.0053263062
    5    2    5    2        0.0494154986
    5    2    4    3        0.0165686647
    6    2    1    1       -0.0083898404
    6    2    3    1        0.0303287169
    6    2    5    1       -0.0218417405
    6    2    2    2       -0.0392426665
    6    2    4    2        0.0000317851
    6    2    6    2        0.0263881392
    6    2    3    3       -0.0124057941
    6    2    5    3        0.0058077857
    6    2    4    4       -0.0045607957
    6    2    5    5       -0.0176071423
    3    3    1    1        0.2869141901
    3    3    3    1        0.0221578689
    3    3    2    2        0.2643027460
    3    3    3    3        0.2811457885
    4    3    2    1       -0.0586579843
    4    3    4    1        0.0089374497
    4    3    3    2        0.0557880886
    4    3    4    3        0.0634334389
    5    3    1    1       -0.0615434692
    5    3    3    1       -0.0417753883
    5    3    5    1       -0.0109160356
    5    3    2    2       -0.0152585853
    5    3    4    2        0.0466119063
    5    3    3    3       -0.0235623042
    5    3    5    3        0.0475944758
    5    3    4    4       -0.0153539607
    6    3    2    1        0.0465944179
    6    3    4    1       -0.0375895218
    6    3    6    1        0.0106836533
    6    3    3    2       -0.0194567596
    6    3    5    2        0.0254293294
    6    3    4    3       -0.0205856105
    6    3    6    3        0.0378732251
    6    3    5    4       -0.0116056208
    4    4    1    1        0.2737937776
    4    4    3    1        0.0185953185
    4    4    2    2        0.2529118910
    4    4    4    2       -0.0172860800
    4    4    3    3        0.2577261674
    4    4    4    4        0.2570522253
    5    4    2    1       -0.0744445968
    5    4    4    1        0.0035353751
    5    4    3    2        0.0773542302
    5    4    5    2       -0.0031072029
    5    4    4    3        0.0513675024
    5    4    5    4        0.0753123459
    6    4    1    1       -0.0697185463
    6    4    3    1       -0.0513607297
    6    4    5    1        0.0067771984
    6    4    2    2       -0.0147042370
    6    4    4    2        0.0339951943
    6    4    6    2       -0.0088950469
    6    4    3    3       -0.0393653032
    6    4    5    3        0.0330737231
    6    4    4    4       -0.0349337382
    6    4    6    4        0.0465656401
    6    4    5    5       -0.0075195834
    5    5    1    1        0.2406543423
    5    5    3    1       -0.0089236023
    5    5    5    1        0.0132315764
    5    5    2    2        0.2487939415
    5    5    4    2       -0.0071830279
    5    5    3    3        0.2359297949
    5    5    5    3       -0.0094629957
    5    5    4    4        0.2316457473
    5    5    5    5        0.2307371943
    6    5    2    1       -0.0627216193
    6    5    4    1        0.0134677702
    6    5    6    1       -0.0009535760
    6    5    3    2        0.0567760150
    6    5    5    2       -0.0073838324
    6    5    4    3        0.0422304645
    6    5    6    3       -0.0170935985
    6    5    5    4        0.0559790849
    6    5    6    5        0.0547801986
    6    6    1    1        0.2499934349
    6    6    3    1        0.0251251264
    6    6    5    1        0.0015243858
    6    6    2    2        0.2225216762
    6    6    4    2       -0.0218215170
    6    6    6    2       -0.0036412184
    6    6    3    3        0.2313097934
    6    6    5    3       -0.0233565082
    6    6    4    4        0.2256793117
    6    6    6    4       -0.0288573811
    6    6    5    5        0.2110215809
    6    6    6    6        0.2161256130
 end_two_electron_integrals
 enrep_tce =    3.3720930232558128     
  EHF(A)             =        -3.08363103
  EHF(total)         =        -3.08363103
  Shift (HFtot-HFA)  =         0.00000000
 Cpu & wall time / sec            2.1            2.1
 T1-number-of-tasks                    9

 t1 file size   =                9
 t1 file name   = ./H6.t1
 t1 file handle =       -998
 T2-number-of-boxes                  117

 t2 file size   =              117
 t2 file name   = ./H6.t2
 t2 file handle =       -996
CCSD iterations
 ---------------------------------------------------------
 Iter          Residuum       Correlation     Cpu    Wall 
 ---------------------------------------------------------
NEW TASK SCHEDULING
CCSD_T1_NTS --- OK
CCSD_T2_NTS --- OK
    1   0.0785432321663  -0.0403637260628     0.5     0.6
    2   0.0377978956724  -0.0545871248442     0.4     0.6
    3   0.0210960720493  -0.0605928181603     0.4     0.6
    4   0.0131537091611  -0.0634028091055     0.4     0.6
    5   0.0088532022207  -0.0648605427541     0.4     0.6
 MICROCYCLE DIIS UPDATE:                    5                    5
    6   0.0014486482412  -0.0670931626551   147.4   187.3
    7   0.0007922192019  -0.0671305752659  2474.6  3297.5
    8   0.0005633293657  -0.0671457468804     0.0     0.6
    9   0.0004120127064  -0.0671553372085     0.0     0.8
   10   0.0003024593433  -0.0671636891509     0.0     0.6
 MICROCYCLE DIIS UPDATE:                   10                    5
   11   0.0000628667765  -0.0671855954248     0.0     0.6
   12   0.0000380721718  -0.0671923009358     0.0     0.6
   13   0.0000255697518  -0.0671960351900     0.0     0.6
   14   0.0000181592443  -0.0671979671862     0.0     0.7
   15   0.0000130023119  -0.0671992036546     0.0     0.9
 MICROCYCLE DIIS UPDATE:                   15                    5
   16   0.0000029746180  -0.0672017817904     0.0     0.9
   17   0.0000019584877  -0.0672018624948     0.0     0.9
   18   0.0000013970956  -0.0672018925934     0.0     0.9
   19   0.0000010183764  -0.0672019159921     0.0     0.6
   20   0.0000007443224  -0.0672019374881     0.0     0.6
 MICROCYCLE DIIS UPDATE:                   20                    5
   21   0.0000001283861  -0.0672020039920     0.0     0.6
   22   0.0000000747233  -0.0672020143347     0.0     0.6
   23   0.0000000501940  -0.0672020209489     0.0     0.6
   24   0.0000000362642  -0.0672020242198     0.0     0.6
   25   0.0000000261760  -0.0672020264281     0.0     0.6
 MICROCYCLE DIIS UPDATE:                   25                    5
   26   0.0000000062623  -0.0672020312861     0.0     0.6
 -----------------------------------------------------------------
 Iterations converged
 CCSD correlation energy / hartree =        -0.067202031286142
 CCSD total energy / hartree       =        -3.150833063624841

 Singles contributions
     5a   (alpha) ---     3a   (alpha)        0.0324184668

 Doubles contributions
     4a   (alpha)     5a   (alpha) ---     2a   (alpha)     3a   (alpha)       -0.0480554160
     4a   (alpha)     6a   (alpha) ---     1a   (alpha)     3a   (alpha)        0.0318968656
     4a   (alpha)     4a   (beta ) ---     1a   (alpha)     1a   (beta )       -0.0517321639
     4a   (alpha)     4a   (beta ) ---     2a   (alpha)     2a   (beta )       -0.0775378639
     4a   (alpha)     4a   (beta ) ---     3a   (alpha)     3a   (beta )       -0.2401998235
     4a   (alpha)     5a   (beta ) ---     1a   (alpha)     2a   (beta )        0.0391644224
     4a   (alpha)     5a   (beta ) ---     2a   (alpha)     1a   (beta )        0.0201183466
     4a   (alpha)     5a   (beta ) ---     2a   (alpha)     3a   (beta )       -0.1027092050
     4a   (alpha)     5a   (beta ) ---     3a   (alpha)     2a   (beta )       -0.0546537890
     4a   (alpha)     6a   (beta ) ---     1a   (alpha)     1a   (beta )        0.0226983430
     4a   (alpha)     6a   (beta ) ---     1a   (alpha)     3a   (beta )        0.0672803934
     4a   (alpha)     6a   (beta ) ---     3a   (alpha)     1a   (beta )        0.0353835278
     4a   (alpha)     6a   (beta ) ---     3a   (alpha)     3a   (beta )        0.0323675755
     5a   (alpha)     4a   (beta ) ---     1a   (alpha)     2a   (beta )        0.0201183466
     5a   (alpha)     4a   (beta ) ---     2a   (alpha)     1a   (beta )        0.0391644224
     5a   (alpha)     4a   (beta ) ---     2a   (alpha)     3a   (beta )       -0.0546537890
     5a   (alpha)     4a   (beta ) ---     3a   (alpha)     2a   (beta )       -0.1027092050
     5a   (alpha)     5a   (beta ) ---     1a   (alpha)     1a   (beta )       -0.0348236460
     5a   (alpha)     5a   (beta ) ---     1a   (alpha)     3a   (beta )        0.0214780441
     5a   (alpha)     5a   (beta ) ---     2a   (alpha)     2a   (beta )       -0.0758924982
     5a   (alpha)     5a   (beta ) ---     3a   (alpha)     1a   (beta )        0.0214780441
     5a   (alpha)     5a   (beta ) ---     3a   (alpha)     3a   (beta )       -0.0578685429
     5a   (alpha)     6a   (beta ) ---     1a   (alpha)     2a   (beta )        0.0325824900
     5a   (alpha)     6a   (beta ) ---     2a   (alpha)     3a   (beta )       -0.0229852110
     6a   (alpha)     4a   (beta ) ---     1a   (alpha)     1a   (beta )        0.0226983430
     6a   (alpha)     4a   (beta ) ---     1a   (alpha)     3a   (beta )        0.0353835278
     6a   (alpha)     4a   (beta ) ---     3a   (alpha)     1a   (beta )        0.0672803934
     6a   (alpha)     4a   (beta ) ---     3a   (alpha)     3a   (beta )        0.0323675755
     6a   (alpha)     5a   (beta ) ---     2a   (alpha)     1a   (beta )        0.0325824900
     6a   (alpha)     5a   (beta ) ---     3a   (alpha)     2a   (beta )       -0.0229852110
     6a   (alpha)     6a   (beta ) ---     1a   (alpha)     1a   (beta )       -0.0356149979
     6a   (alpha)     6a   (beta ) ---     2a   (alpha)     2a   (beta )       -0.0200427483
     6a   (alpha)     6a   (beta ) ---     3a   (alpha)     3a   (beta )       -0.0271360299
 Ground state specification:
 exp(T)|Ref>~(1+T)|Ref>
 ------- a(p)+/a(q) strings ----------

 singles norm

 doubles norm

 Reference string
  0.96278801416012227      :(1a)+ (2a)+ (3a)+ (1b)+ (2b)+ (3b)+ |0>

 Singles strings

 Doubles strings
 -0.23126151108599780      :(4a)+ (4b)+ (3b)  (3a)  (1a)+ (2a)+ (3a)+ (1b)+ (2b)+ (3b)+ |0>
  -9.8887191485624859E-002 :(4a)+ (5b)+ (3b)  (2a)  (1a)+ (2a)+ (3a)+ (1b)+ (2b)+ (3b)+ |0>
  -9.8887191485624831E-002 :(5a)+ (4b)+ (2b)  (3a)  (1a)+ (2a)+ (3a)+ (1b)+ (2b)+ (3b)+ |0>
 -------------------------------------

 Parallel integral file used      19 records with       0 large values


 Task  times  cpu:     2626.6s     wall:     3503.3s


                                NWChem Input Module
                                -------------------


 Summary of allocated global arrays
-----------------------------------
  No active global arrays


MA_summarize_allocated_blocks: starting scan ...
MA_summarize_allocated_blocks: scan completed: 0 heap blocks, 0 stack blocks
MA usage statistics:

	allocation statistics:
					      heap	     stack
					      ----	     -----
	current number of blocks	         0	         0
	maximum number of blocks	        17	        42
	current total bytes		         0	         0
	maximum total bytes		 105925112	  32972408
	maximum total K-bytes		    105926	     32973
	maximum total M-bytes		       106	        33


                                     CITATION
                                     --------
                Please cite the following reference when publishing
                           results obtained with NWChem:

          E. Apra, E. J. Bylaska, W. A. de Jong, N. Govind, K. Kowalski,
       T. P. Straatsma, M. Valiev, H. J. J. van Dam, Y. Alexeev, J. Anchell,
       V. Anisimov, F. W. Aquino, R. Atta-Fynn, J. Autschbach, N. P. Bauman,
     J. C. Becca, D. E. Bernholdt, K. Bhaskaran-Nair, S. Bogatko, P. Borowski,
         J. Boschen, J. Brabec, A. Bruner, E. Cauet, Y. Chen, G. N. Chuev,
      C. J. Cramer, J. Daily, M. J. O. Deegan, T. H. Dunning Jr., M. Dupuis,
   K. G. Dyall, G. I. Fann, S. A. Fischer, A. Fonari, H. Fruchtl, L. Gagliardi,
      J. Garza, N. Gawande, S. Ghosh, K. Glaesemann, A. W. Gotz, J. Hammond,
       V. Helms, E. D. Hermes, K. Hirao, S. Hirata, M. Jacquelin, L. Jensen,
   B. G. Johnson, H. Jonsson, R. A. Kendall, M. Klemm, R. Kobayashi, V. Konkov,
      S. Krishnamoorthy, M. Krishnan, Z. Lin, R. D. Lins, R. J. Littlefield,
      A. J. Logsdail, K. Lopata, W. Ma, A. V. Marenich, J. Martin del Campo,
   D. Mejia-Rodriguez, J. E. Moore, J. M. Mullin, T. Nakajima, D. R. Nascimento,
    J. A. Nichols, P. J. Nichols, J. Nieplocha, A. Otero-de-la-Roza, B. Palmer,
    A. Panyala, T. Pirojsirikul, B. Peng, R. Peverati, J. Pittner, L. Pollack,
   R. M. Richard, P. Sadayappan, G. C. Schatz, W. A. Shelton, D. W. Silverstein,
   D. M. A. Smith, T. A. Soares, D. Song, M. Swart, H. L. Taylor, G. S. Thomas,
            V. Tipparaju, D. G. Truhlar, K. Tsemekhman, T. Van Voorhis,
      A. Vazquez-Mayagoitia, P. Verma, O. Villa, A. Vishnu, K. D. Vogiatzis,
        D. Wang, J. H. Weare, M. J. Williamson, T. L. Windus, K. Wolinski,
        A. T. Wong, Q. Wu, C. Yang, Q. Yu, M. Zacharias, Z. Zhang, Y. Zhao,
                                and R. J. Harrison
                        "NWChem: Past, present, and future
                         J. Chem. Phys. 152, 184102 (2020)
                               doi:10.1063/5.0004997

                                      AUTHORS
                                      -------
  E. Apra, E. J. Bylaska, N. Govind, K. Kowalski, M. Valiev, D. Mejia-Rodriguez,
       A. Kunitsa, N. P. Bauman, A. Panyala, W. A. de Jong, T. P. Straatsma,
        H. J. J. van Dam, D. Wang, T. L. Windus, J. Hammond, J. Autschbach,
    K. Bhaskaran-Nair, J. Brabec, K. Lopata, S. A. Fischer, S. Krishnamoorthy,
     M. Jacquelin, W. Ma, M. Klemm, O. Villa, Y. Chen, V. Anisimov, F. Aquino,
    S. Hirata, M. T. Hackler, Eric Hermes, L. Jensen, J. E. Moore, J. C. Becca,
      V. Konjkov, T. Risthaus, M. Malagoli, A. Marenich, A. Otero-de-la-Roza,
        J. Mullin, P. Nichols, R. Peverati, J. Pittner, Y. Zhao, P.-D. Fan,
        A. Fonari, M. J. Williamson, R. J. Harrison, J. R. Rehr, M. Dupuis,
     D. Silverstein, D. M. A. Smith, J. Nieplocha, V. Tipparaju, M. Krishnan,
     B. E. Van Kuiken, A. Vazquez-Mayagoitia, M. Swart, Q. Wu, T. Van Voorhis,
     A. A. Auer, M. Nooijen, L. D. Crosby, E. Brown, G. Cisneros, G. I. Fann,
   H. Fruchtl, J. Garza, K. Hirao, R. A. Kendall, J. A. Nichols, K. Tsemekhman,
    K. Wolinski, J. Anchell, D. E. Bernholdt, P. Borowski, T. Clark, D. Clerc,
   H. Dachsel, M. J. O. Deegan, K. Dyall, D. Elwood, E. Glendening, M. Gutowski,
   A. C. Hess, J. Jaffe, B. G. Johnson, J. Ju, R. Kobayashi, R. Kutteh, Z. Lin,
   R. Littlefield, X. Long, B. Meng, T. Nakajima, S. Niu, L. Pollack, M. Rosing,
   K. Glaesemann, G. Sandrone, M. Stave, H. Taylor, G. Thomas, J. H. van Lenthe,
                               A. T. Wong, Z. Zhang.

 Total times  cpu:     2626.6s     wall:     3503.3s
