 argument  1 = input.nw
  NWChem w/ OpenMP: maximum threads =    1



============================== echo of input deck ==============================
 echo
 start H2O
 title "H2O"

 memory total 24 gb

 geometry units angstrom
 symmetry c1
   zmatrix
     O
     H1 O 0.97551
     H2 O 0.97551 H1 105.15
   end
 end

 basis spherical
   * library cc-pVTZ
 end

 tce
   2eorb
   2emet 13
   ccsd
   maxiter 300
 end

set tce:print_integrals T
set tce:qorb 8
set tce:qela 5
set tce:qelb 5

# set tce:qducc T
# set tce:nactv 3
# set tce:nonhf T
# set tce:ducc_model 6

 set tce:printtol 0.02

 task tce
================================================================================


                                         
                                         


             Northwest Computational Chemistry Package (NWChem) 7.0.1
             --------------------------------------------------------


                    Environmental Molecular Sciences Laboratory
                       Pacific Northwest National Laboratory
                                Richland, WA 99352

                              Copyright (c) 1994-2020
                       Pacific Northwest National Laboratory
                            Battelle Memorial Institute

             NWChem is an open-source computational chemistry package
                        distributed under the terms of the
                      Educational Community License (ECL) 2.0
             A copy of the license is included with this distribution
                              in the LICENSE.TXT file

                                  ACKNOWLEDGMENT
                                  --------------

            This software and its documentation were developed at the
            EMSL at Pacific Northwest National Laboratory, a multiprogram
            national laboratory, operated for the U.S. Department of Energy
            by Battelle under Contract Number DE-AC05-76RL01830. Support
            for this work was provided by the Department of Energy Office
            of Biological and Environmental Research, Office of Basic
            Energy Sciences, and the Office of Advanced Scientific Computing.


           Job information
           ---------------

    hostname        = WE46210
    program         = /home/baum612/code/nwchem/bin/LINUX64/nwchem
    date            = Thu Nov 21 15:41:37 2024

    compiled        = Wed_Sep_04_02:00:17_2024
    source          = /home/baum612/code/nwchem
    nwchem branch   = 7.0.0
    nwchem revision = nwchem_on_git-4191-g39d87d64de
    ga revision     = 5.8.1
    use scalapack   = F
    input           = input.nw
    prefix          = H2O.
    data base       = ./H2O.db
    status          = startup
    nproc           =        1
    time left       =     -1s



           Memory information
           ------------------

    heap     =  805306362 doubles =   6144.0 Mbytes
    stack    =  805306367 doubles =   6144.0 Mbytes
    global   = 1610612736 doubles =  12288.0 Mbytes (distinct from heap & stack)
    total    = 3221225465 doubles =  24576.0 Mbytes
    verify   = yes
    hardfail = no 


           Directory information
           ---------------------

  0 permanent = .
  0 scratch   = .




                                NWChem Input Module
                                -------------------


                                        H2O
                                        ---

 Scaling coordinates for geometry "geometry" by  1.889725989
 (inverse scale =  0.529177249)

 Turning off AUTOSYM since
 SYMMETRY directive was detected!



                             Geometry "geometry" -> ""
                             -------------------------

 Output coordinates in angstroms (scale by  1.889725989 to convert to a.u.)

  No.       Tag          Charge          X              Y              Z
 ---- ---------------- ---------- -------------- -------------- --------------
    1 O                    8.0000    -0.09416061     0.00000000    -0.07205634
    2 H1                   1.0000    -0.09416061     0.00000000     0.90345366
    3 H2                   1.0000     0.84744547     0.00000000    -0.32700290

      Atomic Mass 
      ----------- 

      O                 15.994910
      H1                 1.007825
      H2                 1.007825


 Effective nuclear repulsion energy (a.u.)       9.0209308812

            Nuclear Dipole moment (a.u.) 
            ----------------------------
        X                 Y               Z
 ---------------- ---------------- ----------------
     0.0000000000     0.0000000000     0.0000000000



                                Z-matrix (user)
                                -------- 

 Units are Angstrom for bonds and degrees for angles

      Type          Name      I     J     K     L     M      Value
      ----------- --------  ----- ----- ----- ----- ----- ----------
    1 Stretch                  2     1                       0.97551
    2 Stretch                  3     1                       0.97551
    3 Bend                     3     1     2               105.15000


            XYZ format geometry
            -------------------
     3
 geometry
 O                    -0.09416061     0.00000000    -0.07205634
 H1                   -0.09416061     0.00000000     0.90345366
 H2                    0.84744547     0.00000000    -0.32700290

 ==============================================================================
                                internuclear distances
 ------------------------------------------------------------------------------
       center one      |      center two      | atomic units |  angstroms
 ------------------------------------------------------------------------------
    2 H1               |   1 O                |     1.84345  |     0.97551
    3 H2               |   1 O                |     1.84345  |     0.97551
 ------------------------------------------------------------------------------
                         number of included internuclear distances:          2
 ==============================================================================



 ==============================================================================
                                 internuclear angles
 ------------------------------------------------------------------------------
        center 1       |       center 2       |       center 3       |  degrees
 ------------------------------------------------------------------------------
    2 H1               |   1 O                |   3 H2               |   105.15
 ------------------------------------------------------------------------------
                            number of included internuclear angles:          1
 ==============================================================================





 Summary of "ao basis" -> "" (spherical)
 ------------------------------------------------------------------------------
       Tag                 Description            Shells   Functions and Types
 ---------------- ------------------------------  ------  ---------------------
 *                          cc-pVTZ                   on all atoms 


                      Basis "ao basis" -> "ao basis" (spherical)
                      -----
  O (Oxygen)
  ----------
            Exponent  Coefficients 
       -------------- ---------------------------------------------------------
  1 S  1.53300000E+04  0.000508
  1 S  2.29900000E+03  0.003929
  1 S  5.22400000E+02  0.020243
  1 S  1.47300000E+02  0.079181
  1 S  4.75500000E+01  0.230687
  1 S  1.67600000E+01  0.433118
  1 S  6.20700000E+00  0.350260
  1 S  6.88200000E-01 -0.008154

  2 S  1.53300000E+04 -0.000115
  2 S  2.29900000E+03 -0.000895
  2 S  5.22400000E+02 -0.004636
  2 S  1.47300000E+02 -0.018724
  2 S  4.75500000E+01 -0.058463
  2 S  1.67600000E+01 -0.136463
  2 S  6.20700000E+00 -0.175740
  2 S  6.88200000E-01  0.603418

  3 S  1.75200000E+00  1.000000

  4 S  2.38400000E-01  1.000000

  5 P  3.44600000E+01  0.015928
  5 P  7.74900000E+00  0.099740
  5 P  2.28000000E+00  0.310492

  6 P  7.15600000E-01  1.000000

  7 P  2.14000000E-01  1.000000

  8 D  2.31400000E+00  1.000000

  9 D  6.45000000E-01  1.000000

 10 F  1.42800000E+00  1.000000

  H1 (Hydrogen)
  -------------
            Exponent  Coefficients 
       -------------- ---------------------------------------------------------
  1 S  3.38700000E+01  0.006068
  1 S  5.09500000E+00  0.045308
  1 S  1.15900000E+00  0.202822

  2 S  3.25800000E-01  1.000000

  3 S  1.02700000E-01  1.000000

  4 P  1.40700000E+00  1.000000

  5 P  3.88000000E-01  1.000000

  6 D  1.05700000E+00  1.000000

  H2 (Hydrogen)
  -------------
            Exponent  Coefficients 
       -------------- ---------------------------------------------------------
  1 S  3.38700000E+01  0.006068
  1 S  5.09500000E+00  0.045308
  1 S  1.15900000E+00  0.202822

  2 S  3.25800000E-01  1.000000

  3 S  1.02700000E-01  1.000000

  4 P  1.40700000E+00  1.000000

  5 P  3.88000000E-01  1.000000

  6 D  1.05700000E+00  1.000000



 Summary of "ao basis" -> "ao basis" (spherical)
 ------------------------------------------------------------------------------
       Tag                 Description            Shells   Functions and Types
 ---------------- ------------------------------  ------  ---------------------
 O                          cc-pVTZ                 10       30   4s3p2d1f
 H1                         cc-pVTZ                  6       14   3s2p1d
 H2                         cc-pVTZ                  6       14   3s2p1d


                                 NWChem SCF Module
                                 -----------------


                                        H2O



  ao basis        = "ao basis"
  functions       =    58
  atoms           =     3
  closed shells   =     5
  open shells     =     0
  charge          =   0.00
  wavefunction    = RHF 
  input vectors   = atomic
  output vectors  = ./H2O.movecs
  use symmetry    = F
  symmetry adapt  = F


 Summary of "ao basis" -> "ao basis" (spherical)
 ------------------------------------------------------------------------------
       Tag                 Description            Shells   Functions and Types
 ---------------- ------------------------------  ------  ---------------------
 O                          cc-pVTZ                 10       30   4s3p2d1f
 H1                         cc-pVTZ                  6       14   3s2p1d
 H2                         cc-pVTZ                  6       14   3s2p1d



 Forming initial guess at       0.1s


      Superposition of Atomic Density Guess
      -------------------------------------

 Sum of atomic energies:         -75.78028790

      Non-variational initial energy
      ------------------------------

 Total energy =     -75.909180
 1-e energy   =    -121.479707
 2-e energy   =      36.549596
 HOMO         =      -0.472191
 LUMO         =       0.062137


 Starting SCF solution at       0.2s



 ----------------------------------------------
         Quadratically convergent ROHF

 Convergence threshold     :          1.000E-04
 Maximum no. of iterations :           30
 Final Fock-matrix accuracy:          1.000E-07
 ----------------------------------------------


 Integral file          = ./H2O.aoints.0
 Record size in doubles =  65536        No. of integs per rec  =  43688
 Max. records in memory =     49        Max. records in file   = 229889
 No. of bits per label  =      8        No. of bits per value  =     64


 #quartets = 3.213D+04 #integrals = 6.441D+05 #direct =  0.0% #cached =100.0%


              iter       energy          gnorm     gmax       time
             ----- ------------------- --------- --------- --------
                 1      -76.0202799603  8.45D-01  2.94D-01      0.6
                 2      -76.0530439351  1.97D-01  6.20D-02      0.7
                 3      -76.0552745682  1.63D-02  6.46D-03      0.8
                 4      -76.0552988147  6.85D-05  3.13D-05      0.9


       Final RHF  results 
       ------------------ 

         Total SCF energy =    -76.055298814706
      One-electron energy =   -122.811558222223
      Two-electron energy =     37.735328526274
 Nuclear repulsion energy =      9.020930881243

        Time for solution =      0.5s


             Final eigenvalues
             -----------------

              1      
    1  -20.5576
    2   -1.3359
    3   -0.7011
    4   -0.5730
    5   -0.5028
    6    0.1404
    7    0.2022
    8    0.5378
    9    0.5891
   10    0.6723
   11    0.7872
   12    0.8009
   13    0.8047
   14    0.8559
   15    0.9560

                       ROHF Final Molecular Orbital Analysis
                       -------------------------------------

 Vector    2  Occ=2.000000D+00  E=-1.335950D+00
              MO Center=  3.6D-02, -4.7D-16,  2.7D-02, r^2= 5.1D-01
   Bfn.  Coefficient  Atom+Function         Bfn.  Coefficient  Atom+Function  
  ----- ------------  ---------------      ----- ------------  ---------------
     2      0.506750  1 O  s                  4      0.289136  1 O  s          

 Vector    3  Occ=2.000000D+00  E=-7.010662D-01
              MO Center=  7.8D-02,  1.0D-15,  5.9D-02, r^2= 7.8D-01
   Bfn.  Coefficient  Atom+Function         Bfn.  Coefficient  Atom+Function  
  ----- ------------  ---------------      ----- ------------  ---------------
    10      0.270850  1 O  pz                 7      0.222851  1 O  pz         
    32      0.217576  2 H  s                 46     -0.217576  3 H  s          
     8     -0.207268  1 O  px                 5     -0.170537  1 O  px         

 Vector    4  Occ=2.000000D+00  E=-5.729969D-01
              MO Center= -1.2D-01, -5.1D-17, -9.1D-02, r^2= 7.1D-01
   Bfn.  Coefficient  Atom+Function         Bfn.  Coefficient  Atom+Function  
  ----- ------------  ---------------      ----- ------------  ---------------
     8      0.304054  1 O  px                 4     -0.271250  1 O  s          
     5      0.248000  1 O  px                10      0.232677  1 O  pz         
    11      0.222498  1 O  px                 7      0.189782  1 O  pz         
     2     -0.175356  1 O  s                 13      0.170266  1 O  pz         

 Vector    5  Occ=2.000000D+00  E=-5.028128D-01
              MO Center= -6.8D-02,  7.1D-16, -5.2D-02, r^2= 6.4D-01
   Bfn.  Coefficient  Atom+Function         Bfn.  Coefficient  Atom+Function  
  ----- ------------  ---------------      ----- ------------  ---------------
     9      0.444648  1 O  py                12      0.376917  1 O  py         
     6      0.357431  1 O  py         

 Vector    6  Occ=0.000000D+00  E= 1.404109D-01
              MO Center=  5.0D-01, -5.0D-16,  3.8D-01, r^2= 3.7D+00
   Bfn.  Coefficient  Atom+Function         Bfn.  Coefficient  Atom+Function  
  ----- ------------  ---------------      ----- ------------  ---------------
     4      1.492277  1 O  s                 33     -0.911838  2 H  s          
    47     -0.911838  3 H  s                 11      0.360124  1 O  px         
    13      0.275584  1 O  pz                32     -0.262460  2 H  s          
    46     -0.262460  3 H  s                 39      0.171459  2 H  pz         
    51      0.165221  3 H  px                 8      0.152396  1 O  px         

 Vector    7  Occ=0.000000D+00  E= 2.022128D-01
              MO Center=  5.5D-01, -3.7D-16,  4.2D-01, r^2= 4.6D+00
   Bfn.  Coefficient  Atom+Function         Bfn.  Coefficient  Atom+Function  
  ----- ------------  ---------------      ----- ------------  ---------------
    33      1.722783  2 H  s                 47     -1.722783  3 H  s          
    13     -0.662006  1 O  pz                11      0.506600  1 O  px         
    39     -0.164720  2 H  pz                10     -0.160910  1 O  pz         
    51      0.160051  3 H  px         

 Vector    8  Occ=0.000000D+00  E= 5.377561D-01
              MO Center=  4.9D-02, -1.6D-17,  3.7D-02, r^2= 2.3D+00
   Bfn.  Coefficient  Atom+Function         Bfn.  Coefficient  Atom+Function  
  ----- ------------  ---------------      ----- ------------  ---------------
    32      1.488863  2 H  s                 46     -1.488863  3 H  s          
    13     -0.921024  1 O  pz                11      0.704813  1 O  px         
    33     -0.638631  2 H  s                 47      0.638631  3 H  s          
    10     -0.209223  1 O  pz                 8      0.160108  1 O  px         

 Vector    9  Occ=0.000000D+00  E= 5.890719D-01
              MO Center=  4.3D-01,  7.7D-16,  3.3D-01, r^2= 2.1D+00
   Bfn.  Coefficient  Atom+Function         Bfn.  Coefficient  Atom+Function  
  ----- ------------  ---------------      ----- ------------  ---------------
    32      1.292897  2 H  s                 46      1.292897  3 H  s          
    33     -0.614242  2 H  s                 47     -0.614242  3 H  s          
     4     -0.457497  1 O  s                 11     -0.418481  1 O  px         
    13     -0.320242  1 O  pz                53     -0.214494  3 H  pz         
     2     -0.194475  1 O  s                 37     -0.177332  2 H  px         

 Vector   10  Occ=0.000000D+00  E= 6.723378D-01
              MO Center= -2.8D-01, -5.5D-16, -2.2D-01, r^2= 2.3D+00
   Bfn.  Coefficient  Atom+Function         Bfn.  Coefficient  Atom+Function  
  ----- ------------  ---------------      ----- ------------  ---------------
     4      4.436133  1 O  s                 32     -2.233179  2 H  s          
    46     -2.233179  3 H  s                 11      2.074930  1 O  px         
    13      1.587838  1 O  pz                39      1.114107  2 H  pz         
    51      1.056454  3 H  px                33     -0.438444  2 H  s          
    47     -0.438444  3 H  s                 53     -0.361092  3 H  pz         

 Vector   11  Occ=0.000000D+00  E= 7.872432D-01
              MO Center= -5.5D-02, -3.0D-16, -4.2D-02, r^2= 1.7D+00
   Bfn.  Coefficient  Atom+Function         Bfn.  Coefficient  Atom+Function  
  ----- ------------  ---------------      ----- ------------  ---------------
    12      1.130983  1 O  py                 9     -0.774838  1 O  py         
     6     -0.259351  1 O  py         

 Vector   12  Occ=0.000000D+00  E= 8.009350D-01
              MO Center=  1.5D-01, -4.6D-16,  1.1D-01, r^2= 2.1D+00
   Bfn.  Coefficient  Atom+Function         Bfn.  Coefficient  Atom+Function  
  ----- ------------  ---------------      ----- ------------  ---------------
    11      1.096029  1 O  px                32     -1.010666  2 H  s          
    46     -1.010666  3 H  s                 37     -0.871357  2 H  px         
    53     -0.854778  3 H  pz                13      0.838735  1 O  pz         
     4      0.779353  1 O  s                 33      0.244454  2 H  s          
    47      0.244454  3 H  s                 51     -0.177108  3 H  px         

 Vector   13  Occ=0.000000D+00  E= 8.046782D-01
              MO Center= -7.1D-02, -2.6D-16, -5.4D-02, r^2= 3.0D+00
   Bfn.  Coefficient  Atom+Function         Bfn.  Coefficient  Atom+Function  
  ----- ------------  ---------------      ----- ------------  ---------------
    13      2.341805  1 O  pz                11     -1.792064  1 O  px         
    32     -1.582330  2 H  s                 46      1.582330  3 H  s          
    33     -1.425481  2 H  s                 47      1.425481  3 H  s          
    39      1.157218  2 H  pz                51     -1.122929  3 H  px         
    21      0.378708  1 O  d  0              53      0.280533  3 H  pz         

 Vector   14  Occ=0.000000D+00  E= 8.559367D-01
              MO Center=  3.7D-01, -1.7D-17,  2.8D-01, r^2= 1.7D+00
   Bfn.  Coefficient  Atom+Function         Bfn.  Coefficient  Atom+Function  
  ----- ------------  ---------------      ----- ------------  ---------------
    38      0.836520  2 H  py                52     -0.836520  3 H  py         

 Vector   15  Occ=0.000000D+00  E= 9.560134D-01
              MO Center=  1.6D-01, -4.8D-16,  1.3D-01, r^2= 2.0D+00
   Bfn.  Coefficient  Atom+Function         Bfn.  Coefficient  Atom+Function  
  ----- ------------  ---------------      ----- ------------  ---------------
    12      1.159871  1 O  py                38     -0.995038  2 H  py         
    52     -0.995038  3 H  py         


 center of mass
 --------------
 x =  -0.07836832 y =   0.00000000 z =  -0.05997131

 moments of inertia (a.u.)
 ------------------
           3.554249712748           0.000000000000           1.000616420600
           0.000000000000           6.566651373029           0.000000000000
           1.000616420600           0.000000000000           3.012401660281

  Mulliken analysis of the total density
  --------------------------------------

    Atom       Charge   Shell Charges
 -----------   ------   -------------------------------------------------------
    1 O    8     8.50   1.95  1.00  0.23  0.60  1.26  2.14  1.29  0.00  0.02  0.00
    2 H    1     0.75   0.25  0.38  0.04  0.02  0.06  0.01
    3 H    1     0.75   0.25  0.38  0.04  0.02  0.06  0.01

       Multipole analysis of the density wrt the origin
       ------------------------------------------------

     L   x y z        total         open         nuclear
     -   - - -        -----         ----         -------
     0   0 0 0     -0.000000      0.000000     10.000000

     1   1 0 0      0.634020      0.000000      0.000000
     1   0 1 0     -0.000000      0.000000      0.000000
     1   0 0 1      0.485183      0.000000      0.000000

     2   2 0 0     -3.973692      0.000000      2.849566
     2   1 1 0      0.000000      0.000000      0.000000
     2   1 0 1     -0.715349      0.000000     -1.099559
     2   0 2 0     -5.454041      0.000000      0.000000
     2   0 1 1      0.000000      0.000000      0.000000
     2   0 0 2     -3.586320      0.000000      3.444993


 Parallel integral file used      15 records with       0 large values

 ------------------------------------
     Number of active orbitals      8
     Number of active alpha electrons      5
     Number of active beta electrons       5
 ------------------------------------
                   NWChem Extensible Many-Electron Theory Module
                   ---------------------------------------------

              ======================================================
                   This portion of the program was automatically
                  generated by a Tensor Contraction Engine (TCE).
                  The development of this portion of the program
                 and TCE was supported by US Department of Energy,
                Office of Science, Office of Basic Energy Science.
                      TCE is a product of Battelle and PNNL.
              Please cite: S.Hirata, J.Phys.Chem.A 107, 9887 (2003).
              ======================================================

                                        H2O


            General Information
            -------------------
      Number of processors :     1
         Wavefunction type : Restricted Hartree-Fock
          No. of electrons :    10
           Alpha electrons :     5
            Beta electrons :     5
           No. of orbitals :   116
            Alpha orbitals :    58
             Beta orbitals :    58
        Alpha frozen cores :     0
         Beta frozen cores :     0
     Alpha frozen virtuals :    50
      Beta frozen virtuals :    50
         Spin multiplicity : singlet 
    Number of AO functions :    58
       Number of AO shells :    22
        Use of symmetry is : off
      Symmetry adaption is : off
         Schwarz screening : 0.10D-09

          Correlation Information
          -----------------------
          Calculation type : Coupled-cluster singles & doubles                           
   Perturbative correction : none                                                        
            Max iterations :      300
        Residual threshold : 0.10D-06
     T(0) DIIS level shift : 0.00D+00
     L(0) DIIS level shift : 0.00D+00
     T(1) DIIS level shift : 0.00D+00
     L(1) DIIS level shift : 0.00D+00
     T(R) DIIS level shift : 0.00D+00
     T(I) DIIS level shift : 0.00D+00
   CC-T/L Amplitude update :  5-th order DIIS
                I/O scheme : Global Array Library
        L-threshold :  0.10D-06
        EOM-threshold :  0.10D-06
 no EOMCCSD initial starts read in
 TCE RESTART OPTIONS
 READ_INT:   F
 WRITE_INT:  F
 READ_TA:    F
 WRITE_TA:   F
 READ_XA:    F
 WRITE_XA:   F
 READ_IN3:   F
 WRITE_IN3:  F
 SLICE:      F
 D4D5:       F
 quantumc:   T
 qrotation:  F
 pwtce:      F
 qducc:      F
 nacto:                         0
 nrotv:                         0
 nrot:                          0

            Memory Information
            ------------------
          Available GA space size is    1610609372 doubles
          Available MA space size is    1610609748 doubles

 Maximum block size supplied by input
 Maximum block size         1 doubles

 tile_dim =      1

 Block   Spin    Irrep     Size     Offset   Alpha
 -------------------------------------------------
   1    alpha     a      1 doubles       0       1
   2    alpha     a      1 doubles       1       2
   3    alpha     a      1 doubles       2       3
   4    alpha     a      1 doubles       3       4
   5    alpha     a      1 doubles       4       5
   6    beta      a      1 doubles       5       1
   7    beta      a      1 doubles       6       2
   8    beta      a      1 doubles       7       3
   9    beta      a      1 doubles       8       4
  10    beta      a      1 doubles       9       5
  11    alpha     a      1 doubles      10      11
  12    alpha     a      1 doubles      11      12
  13    alpha     a      1 doubles      12      13
  14    beta      a      1 doubles      13      11
  15    beta      a      1 doubles      14      12
  16    beta      a      1 doubles      15      13

 Global array virtual files algorithm will be used

 Parallel file system coherency ......... OK

 Integral file          = ./H2O.aoints.0
 Record size in doubles =  65536        No. of integs per rec  =  43688
 Max. records in memory =     49        Max. records in file   = 229889
 No. of bits per label  =      8        No. of bits per value  =     64


 #quartets = 3.213D+04 #integrals = 6.441D+05 #direct =  0.0% #cached =100.0%


 Fock matrix recomputed
 1-e file size   =               64
 1-e file name   = ./H2O.f1
 Cpu & wall time / sec            0.3            0.3
 4-electron integrals stored in orbital form

 v2    file size   =              666
 4-index algorithm nr.  13 is used
 imaxsize =       30
 imaxsize ichop =        0
 begin_one_electron_integrals
    1    1       -33.0073417141
    2    1         0.5826083260
    4    1        -0.1828991744
    6    1         0.1607254638
    7    1        -0.0000000001
    8    1        -0.0000000003
    1    2         0.5826083260
    2    2        -7.8332265078
    4    2         0.2471887819
    6    2        -0.8782029472
    7    2         0.0000000015
    8    2         0.0000000002
    3    3        -6.6613962086
    6    3         0.0000000012
    7    3         1.0744501560
    8    3         0.5282284043
    1    4        -0.1828991744
    2    4         0.2471887819
    4    4        -6.8622295539
    6    4        -0.4970089003
    7    4         0.0000000005
    5    5        -7.0415851266
    1    6         0.1607254638
    2    6        -0.8782029472
    3    6         0.0000000012
    4    6        -0.4970089003
    6    6        -3.0409772266
    7    6         0.0000000009
    8    6        -0.0000000007
    1    7        -0.0000000001
    2    7         0.0000000015
    3    7         1.0744501560
    4    7         0.0000000005
    6    7         0.0000000009
    7    7        -2.7327666465
    8    7        -0.7218841990
    1    8        -0.0000000003
    2    8         0.0000000002
    3    8         0.5282284043
    6    8        -0.0000000007
    7    8        -0.7218841990
    8    8        -3.5943021656
 end_one_electron_integrals
 begin_two_electron_integrals
    1    1    1    1        4.7393702061
    2    1    1    1       -0.4312252584
    2    1    2    1        0.0637217655
    3    1    3    1        0.0197059850
    4    1    1    1        0.1365036585
    4    1    2    1       -0.0166513569
    4    1    4    1        0.0300977424
    4    1    2    2        0.0139753637
    4    1    3    3        0.0071053368
    5    1    5    1        0.0304508057
    6    1    1    1       -0.1280763650
    6    1    2    1        0.0200706808
    6    1    4    1        0.0004441041
    6    1    6    1        0.0075884643
    6    1    2    2       -0.0019043426
    6    1    4    2        0.0077505370
    6    1    3    3       -0.0006314818
    6    1    4    4       -0.0061420605
    6    1    5    5       -0.0026584369
    7    1    1    1        0.0000000002
    7    1    3    1       -0.0093742591
    7    1    7    1        0.0044625552
    7    1    3    2       -0.0107378607
    7    1    4    3        0.0015235838
    7    1    6    3       -0.0017913104
    8    1    3    1       -0.0079753759
    8    1    7    1        0.0038023311
    8    1    8    1        0.0032583042
    8    1    3    2       -0.0089933338
    8    1    7    2        0.0032663623
    8    1    4    3        0.0018208458
    8    1    6    3       -0.0014208295
    8    1    7    4       -0.0014347563
    8    1    7    6        0.0014028022
    2    2    1    1        1.0458501162
    2    2    2    1       -0.0143439992
    2    2    2    2        0.7517159811
    3    2    3    1        0.0233292873
    3    2    3    2        0.1525700962
    4    2    1    1       -0.0898794215
    4    2    2    1        0.0075275754
    4    2    4    1        0.0230056000
    4    2    2    2        0.0148510824
    4    2    4    2        0.1258927193
    4    2    3    3        0.0138708276
    5    2    5    1        0.0298620026
    5    2    5    2        0.1289474937
    6    2    1    1        0.1837577026
    6    2    2    1       -0.0040622921
    6    2    4    1        0.0083268748
    6    2    6    1        0.0004348781
    6    2    2    2        0.0963011111
    6    2    4    2        0.0151170326
    6    2    6    2        0.0274504192
    6    2    3    3        0.0706028140
    6    2    4    4        0.0680531473
    6    2    5    5        0.0863867107
    7    2    1    1       -0.0000000003
    7    2    3    1       -0.0082589050
    7    2    7    1        0.0038350791
    7    2    2    2       -0.0000000002
    7    2    3    2       -0.0346941122
    7    2    7    2        0.0130027975
    7    2    3    3       -0.0000000001
    7    2    4    3        0.0052823851
    7    2    6    3       -0.0072732109
    7    2    4    4       -0.0000000001
    7    2    5    5       -0.0000000001
    8    2    3    1       -0.0057898834
    8    2    7    1        0.0027526621
    8    2    8    1        0.0025143222
    8    2    3    2       -0.0052666091
    8    2    7    2        0.0099700614
    8    2    8    2        0.0240354200
    8    2    4    3        0.0266152409
    8    2    6    3       -0.0068102854
    8    2    7    4       -0.0026913254
    8    2    7    6       -0.0067036783
    3    3    1    1        0.8748765716
    3    3    2    1       -0.0065877612
    3    3    2    2        0.6769134698
    3    3    3    3        0.6616712424
    4    3    3    1       -0.0028848375
    4    3    3    2        0.0176303338
    4    3    4    3        0.0406369446
    5    3    5    3        0.0298170601
    6    3    1    1       -0.0000000002
    6    3    3    1        0.0038923876
    6    3    2    2       -0.0000000001
    6    3    3    2        0.0003798536
    6    3    3    3       -0.0000000001
    6    3    4    3       -0.0037489769
    6    3    6    3        0.0143976177
    6    3    4    4       -0.0000000001
    6    3    5    5       -0.0000000001
    7    3    1    1       -0.2089343529
    7    3    2    1        0.0035266940
    7    3    4    1       -0.0008757027
    7    3    6    1        0.0009817851
    7    3    2    2       -0.1094105561
    7    3    4    2        0.0171134781
    7    3    6    2       -0.0238925841
    7    3    3    3       -0.0945731773
    7    3    7    3        0.0354145335
    7    3    4    4       -0.0971802890
    7    3    6    4       -0.0162142931
    7    3    5    5       -0.1033763226
    7    3    6    6       -0.0090772351
    8    3    1    1       -0.1334296093
    8    3    2    1        0.0037973802
    8    3    4    1        0.0041822780
    8    3    6    1        0.0021858108
    8    3    2    2       -0.0308056348
    8    3    4    2        0.0585928337
    8    3    6    2       -0.0108137165
    8    3    3    3       -0.0143705925
    8    3    7    3        0.0278027482
    8    3    8    3        0.0594352468
    8    3    4    4       -0.0479456643
    8    3    6    4       -0.0164443819
    8    3    5    5       -0.0532678486
    8    3    6    6        0.0138953826
    8    3    7    7        0.0092832892
    4    4    1    1        0.9753597323
    4    4    2    1       -0.0124367646
    4    4    4    1       -0.0089418290
    4    4    2    2        0.6762649663
    4    4    4    2       -0.0666140779
    4    4    3    3        0.6017409711
    4    4    4    4        0.7136220255
    5    4    5    1       -0.0091229742
    5    4    5    2       -0.0290114285
    5    4    5    4        0.0410208907
    6    4    1    1        0.0943973924
    6    4    2    1       -0.0004411802
    6    4    4    1        0.0033921408
    6    4    6    1        0.0006647330
    6    4    2    2        0.0526770665
    6    4    4    2       -0.0029833932
    6    4    6    2        0.0152802822
    6    4    3    3        0.0346845497
    6    4    4    4        0.0504051233
    6    4    6    4        0.0159762414
    6    4    5    5        0.0477433042
    7    4    1    1       -0.0000000001
    7    4    3    1        0.0030201663
    7    4    7    1       -0.0014587894
    7    4    3    2        0.0180086462
    7    4    7    2       -0.0028982410
    7    4    4    3       -0.0055242547
    7    4    6    3       -0.0057209128
    7    4    7    4        0.0080546189
    8    4    3    1        0.0070320812
    8    4    7    1       -0.0032815079
    8    4    8    1       -0.0029444799
    8    4    3    2        0.0635251530
    8    4    7    2       -0.0094944218
    8    4    8    2        0.0023326856
    8    4    4    3        0.0053267561
    8    4    6    3       -0.0112982428
    8    4    7    4        0.0150122003
    8    4    8    4        0.0439082540
    8    4    7    6       -0.0276759767
    5    5    1    1        1.0310749195
    5    5    2    1       -0.0113965634
    5    5    4    1        0.0043478538
    5    5    2    2        0.7093179231
    5    5    4    2       -0.0357205252
    5    5    3    3        0.6171634182
    5    5    4    4        0.6532638132
    5    5    5    5        0.7473684722
    6    5    5    1        0.0067544497
    6    5    5    2        0.0182318045
    6    5    5    4        0.0005897280
    6    5    6    5        0.0089445513
    7    5    5    3       -0.0083303649
    7    5    7    5        0.0039978339
    8    5    5    3       -0.0091300261
    8    5    7    5        0.0035179500
    8    5    8    5        0.0070422489
    6    6    1    1        0.3593931205
    6    6    2    1       -0.0014507895
    6    6    4    1        0.0049712844
    6    6    6    1        0.0005946699
    6    6    2    2        0.3277311400
    6    6    4    2        0.0233707666
    6    6    6    2        0.0127932085
    6    6    3    3        0.3208694993
    6    6    4    4        0.3076987083
    6    6    6    4       -0.0001922854
    6    6    5    5        0.3121802506
    6    6    6    6        0.2671161880
    7    6    1    1       -0.0000000001
    7    6    3    1       -0.0037985984
    7    6    7    1        0.0017277037
    7    6    3    2       -0.0412275405
    7    6    7    2       -0.0006386455
    7    6    4    3       -0.0136792964
    7    6    6    3        0.0196579932
    7    6    7    4       -0.0133499529
    7    6    6    6        0.0000000001
    7    6    7    6        0.0656771030
    8    6    1    1        0.0000000001
    8    6    3    1       -0.0009975541
    8    6    7    1        0.0004504417
    8    6    8    1        0.0003284835
    8    6    3    2       -0.0070193781
    8    6    7    2       -0.0011706619
    8    6    8    2       -0.0109633202
    8    6    4    3       -0.0108016655
    8    6    6    3        0.0009728390
    8    6    7    4       -0.0020759719
    8    6    8    4       -0.0045029817
    8    6    7    6        0.0003143238
    8    6    8    6        0.0176257187
    7    7    1    1        0.3341399127
    7    7    2    1       -0.0015026954
    7    7    4    1        0.0014398702
    7    7    6    1       -0.0001936051
    7    7    2    2        0.2976924129
    7    7    3    2        0.0000000001
    7    7    4    2        0.0098800006
    7    7    6    2        0.0084143132
    7    7    3    3        0.3006712430
    7    7    7    3       -0.0064738124
    7    7    4    4        0.2828338193
    7    7    6    4       -0.0032998782
    7    7    5    5        0.2846184921
    7    7    6    6        0.2541894633
    7    7    7    6       -0.0000000001
    7    7    7    7        0.2591050141
    8    7    1    1        0.1093495698
    8    7    2    1       -0.0014962044
    8    7    4    1       -0.0000827304
    8    7    6    1       -0.0005259240
    8    7    2    2        0.0736389250
    8    7    4    2       -0.0004514434
    8    7    6    2        0.0076663389
    8    7    3    3        0.0719843371
    8    7    7    3       -0.0113636456
    8    7    8    3        0.0043217763
    8    7    4    4        0.0702202304
    8    7    6    4        0.0006946783
    8    7    5    5        0.0658016833
    8    7    6    6        0.0255808681
    8    7    7    7        0.0206179642
    8    7    8    7        0.0196406468
    8    8    1    1        0.4587808830
    8    8    2    1       -0.0012422090
    8    8    4    1        0.0002850581
    8    8    6    1       -0.0003681095
    8    8    2    2        0.4283055981
    8    8    4    2        0.0087223780
    8    8    6    2        0.0166348480
    8    8    3    3        0.4318574894
    8    8    7    3       -0.0266574504
    8    8    8    3        0.0158932280
    8    8    4    4        0.4158929408
    8    8    6    4        0.0077721014
    8    8    5    5        0.4000319443
    8    8    6    6        0.2852316892
    8    8    7    7        0.2675961073
    8    8    8    7        0.0462858692
    8    8    8    8        0.3728460359
 end_two_electron_integrals
 enrep_tce =    9.0209308812432329     
  EHF(A)             =       -76.05529881
  EHF(total)         =       -76.05529881
  Shift (HFtot-HFA)  =         0.00000000
 Cpu & wall time / sec            3.0            3.1
 T1-number-of-tasks                   15

 t1 file size   =               15
 t1 file name   = ./H2O.t1
 t1 file handle =       -998
 T2-number-of-boxes                  315

 t2 file size   =              315
 t2 file name   = ./H2O.t2
 t2 file handle =       -996
CCSD iterations
 ---------------------------------------------------------
 Iter          Residuum       Correlation     Cpu    Wall 
 ---------------------------------------------------------
NEW TASK SCHEDULING
CCSD_T1_NTS --- OK
CCSD_T2_NTS --- OK
    1   0.0253138865597  -0.0070925187644     6.3     8.4
    2   0.0068365242919  -0.0083366121759     5.8     8.3
    3   0.0021241798007  -0.0086332149875     6.1     8.3
    4   0.0007097386541  -0.0087207469822     6.1     8.3
    5   0.0002538292683  -0.0087494987628     5.9     8.4
 MICROCYCLE DIIS UPDATE:                    5                    5
    6   0.0000293003807  -0.0087654632920     6.1     8.3
    7   0.0000092392551  -0.0087651913420     6.1     8.4
    8   0.0000040134708  -0.0087652288215     6.2     8.4
    9   0.0000018477050  -0.0087652397101     6.2     8.4
   10   0.0000008701028  -0.0087652493994     6.2     8.4
 MICROCYCLE DIIS UPDATE:                   10                    5
   11   0.0000000781193  -0.0087652595543     6.0     8.4
 -----------------------------------------------------------------
 Iterations converged
 CCSD correlation energy / hartree =        -0.008765259554271
 CCSD total energy / hartree       =       -76.064064074260003

 Singles contributions

 Doubles contributions
     7a   (alpha)     7a   (beta ) ---     3a   (alpha)     3a   (beta )       -0.0239419630
     8a   (alpha)     8a   (beta ) ---     3a   (alpha)     3a   (beta )       -0.0311742878
     8a   (alpha)     8a   (beta ) ---     4a   (alpha)     4a   (beta )       -0.0251193568
 Ground state specification:
 exp(T)|Ref>~(1+T)|Ref>
 ------- a(p)+/a(q) strings ----------

 singles norm

 doubles norm

 Reference string
   1.0000000000000000      :(1a)+ (2a)+ (3a)+ (4a)+ (5a)+ (1b)+ (2b)+ (3b)+ (4b)+ (5b)+ |0>

 Singles strings

 Doubles strings
 -------------------------------------

 Parallel integral file used      15 records with       0 large values


 Task  times  cpu:       71.5s     wall:       97.1s


                                NWChem Input Module
                                -------------------


 Summary of allocated global arrays
-----------------------------------
  No active global arrays


MA_summarize_allocated_blocks: starting scan ...
MA_summarize_allocated_blocks: scan completed: 0 heap blocks, 0 stack blocks
MA usage statistics:

	allocation statistics:
					      heap	     stack
					      ----	     -----
	current number of blocks	         0	         0
	maximum number of blocks	        17	        42
	current total bytes		         0	         0
	maximum total bytes		  25710384	  38234456
	maximum total K-bytes		     25711	     38235
	maximum total M-bytes		        26	        39


                                     CITATION
                                     --------
                Please cite the following reference when publishing
                           results obtained with NWChem:

          E. Apra, E. J. Bylaska, W. A. de Jong, N. Govind, K. Kowalski,
       T. P. Straatsma, M. Valiev, H. J. J. van Dam, Y. Alexeev, J. Anchell,
       V. Anisimov, F. W. Aquino, R. Atta-Fynn, J. Autschbach, N. P. Bauman,
     J. C. Becca, D. E. Bernholdt, K. Bhaskaran-Nair, S. Bogatko, P. Borowski,
         J. Boschen, J. Brabec, A. Bruner, E. Cauet, Y. Chen, G. N. Chuev,
      C. J. Cramer, J. Daily, M. J. O. Deegan, T. H. Dunning Jr., M. Dupuis,
   K. G. Dyall, G. I. Fann, S. A. Fischer, A. Fonari, H. Fruchtl, L. Gagliardi,
      J. Garza, N. Gawande, S. Ghosh, K. Glaesemann, A. W. Gotz, J. Hammond,
       V. Helms, E. D. Hermes, K. Hirao, S. Hirata, M. Jacquelin, L. Jensen,
   B. G. Johnson, H. Jonsson, R. A. Kendall, M. Klemm, R. Kobayashi, V. Konkov,
      S. Krishnamoorthy, M. Krishnan, Z. Lin, R. D. Lins, R. J. Littlefield,
      A. J. Logsdail, K. Lopata, W. Ma, A. V. Marenich, J. Martin del Campo,
   D. Mejia-Rodriguez, J. E. Moore, J. M. Mullin, T. Nakajima, D. R. Nascimento,
    J. A. Nichols, P. J. Nichols, J. Nieplocha, A. Otero-de-la-Roza, B. Palmer,
    A. Panyala, T. Pirojsirikul, B. Peng, R. Peverati, J. Pittner, L. Pollack,
   R. M. Richard, P. Sadayappan, G. C. Schatz, W. A. Shelton, D. W. Silverstein,
   D. M. A. Smith, T. A. Soares, D. Song, M. Swart, H. L. Taylor, G. S. Thomas,
            V. Tipparaju, D. G. Truhlar, K. Tsemekhman, T. Van Voorhis,
      A. Vazquez-Mayagoitia, P. Verma, O. Villa, A. Vishnu, K. D. Vogiatzis,
        D. Wang, J. H. Weare, M. J. Williamson, T. L. Windus, K. Wolinski,
        A. T. Wong, Q. Wu, C. Yang, Q. Yu, M. Zacharias, Z. Zhang, Y. Zhao,
                                and R. J. Harrison
                        "NWChem: Past, present, and future
                         J. Chem. Phys. 152, 184102 (2020)
                               doi:10.1063/5.0004997

                                      AUTHORS
                                      -------
  E. Apra, E. J. Bylaska, N. Govind, K. Kowalski, M. Valiev, D. Mejia-Rodriguez,
       A. Kunitsa, N. P. Bauman, A. Panyala, W. A. de Jong, T. P. Straatsma,
        H. J. J. van Dam, D. Wang, T. L. Windus, J. Hammond, J. Autschbach,
    K. Bhaskaran-Nair, J. Brabec, K. Lopata, S. A. Fischer, S. Krishnamoorthy,
     M. Jacquelin, W. Ma, M. Klemm, O. Villa, Y. Chen, V. Anisimov, F. Aquino,
    S. Hirata, M. T. Hackler, Eric Hermes, L. Jensen, J. E. Moore, J. C. Becca,
      V. Konjkov, T. Risthaus, M. Malagoli, A. Marenich, A. Otero-de-la-Roza,
        J. Mullin, P. Nichols, R. Peverati, J. Pittner, Y. Zhao, P.-D. Fan,
        A. Fonari, M. J. Williamson, R. J. Harrison, J. R. Rehr, M. Dupuis,
     D. Silverstein, D. M. A. Smith, J. Nieplocha, V. Tipparaju, M. Krishnan,
     B. E. Van Kuiken, A. Vazquez-Mayagoitia, M. Swart, Q. Wu, T. Van Voorhis,
     A. A. Auer, M. Nooijen, L. D. Crosby, E. Brown, G. Cisneros, G. I. Fann,
   H. Fruchtl, J. Garza, K. Hirao, R. A. Kendall, J. A. Nichols, K. Tsemekhman,
    K. Wolinski, J. Anchell, D. E. Bernholdt, P. Borowski, T. Clark, D. Clerc,
   H. Dachsel, M. J. O. Deegan, K. Dyall, D. Elwood, E. Glendening, M. Gutowski,
   A. C. Hess, J. Jaffe, B. G. Johnson, J. Ju, R. Kobayashi, R. Kutteh, Z. Lin,
   R. Littlefield, X. Long, B. Meng, T. Nakajima, S. Niu, L. Pollack, M. Rosing,
   K. Glaesemann, G. Sandrone, M. Stave, H. Taylor, G. Thomas, J. H. van Lenthe,
                               A. T. Wong, Z. Zhang.

 Total times  cpu:       71.5s     wall:       97.2s
