 argument  1 = input.nw
  NWChem w/ OpenMP: maximum threads =    1



============================== echo of input deck ==============================
 echo
 start H2
 title "H2"

 memory total 24 gb

 geometry units bohr
 symmetry c1
        H  0.00000000  0.00000000  0.00000000
        H  0.00000000  6.05  0.00000000
 end

 basis
   * library cc-pVQZ
 end

 mcscf
   active  10
   actelec 2
   multiplicity 1
   maxiter 40
   vectors input H2.mos
   vectors output H2.mos
 end

 task mcscf

 scf
   vectors input H2.mos
   vectors output H2-6.05.mos
   noscf
 end

 tce
   2eorb
   2emet 13
   ccsd
   maxiter 300
   lshift 0.8
 end

# set tce:print_integrals T
# set tce:qorb 10
# set tce:qela 1
# set tce:qelb 1

 set tce:qducc T
 set tce:nactv 9
 set tce:nonhf T
 set tce:ducc_model 6

 set tce:printtol 0.02

 task tce
================================================================================


                                         
                                         


             Northwest Computational Chemistry Package (NWChem) 7.0.1
             --------------------------------------------------------


                    Environmental Molecular Sciences Laboratory
                       Pacific Northwest National Laboratory
                                Richland, WA 99352

                              Copyright (c) 1994-2020
                       Pacific Northwest National Laboratory
                            Battelle Memorial Institute

             NWChem is an open-source computational chemistry package
                        distributed under the terms of the
                      Educational Community License (ECL) 2.0
             A copy of the license is included with this distribution
                              in the LICENSE.TXT file

                                  ACKNOWLEDGMENT
                                  --------------

            This software and its documentation were developed at the
            EMSL at Pacific Northwest National Laboratory, a multiprogram
            national laboratory, operated for the U.S. Department of Energy
            by Battelle under Contract Number DE-AC05-76RL01830. Support
            for this work was provided by the Department of Energy Office
            of Biological and Environmental Research, Office of Basic
            Energy Sciences, and the Office of Advanced Scientific Computing.


           Job information
           ---------------

    hostname        = WE46210
    program         = /home/baum612/code/nwchem/bin/LINUX64/nwchem
    date            = Sat Nov 11 03:33:22 2023

    compiled        = Mon_Nov_06_10:06:57_2023
    source          = /home/baum612/code/nwchem
    nwchem branch   = 7.0.0
    nwchem revision = nwchem_on_git-4191-g39d87d64de
    ga revision     = 5.8.1
    use scalapack   = F
    input           = input.nw
    prefix          = H2.
    data base       = ./H2.db
    status          = startup
    nproc           =        1
    time left       =     -1s



           Memory information
           ------------------

    heap     =  805306362 doubles =   6144.0 Mbytes
    stack    =  805306367 doubles =   6144.0 Mbytes
    global   = 1610612736 doubles =  12288.0 Mbytes (distinct from heap & stack)
    total    = 3221225465 doubles =  24576.0 Mbytes
    verify   = yes
    hardfail = no 


           Directory information
           ---------------------

  0 permanent = .
  0 scratch   = .




                                NWChem Input Module
                                -------------------


                                        H2
                                        --
 Turning off AUTOSYM since
 SYMMETRY directive was detected!


          ------
          auto-z
          ------
     1 autoz failed with cvr_scaling = 1.2 changing to 1.3
     2 autoz failed with cvr_scaling = 1.3 changing to 1.4
     3 autoz failed with cvr_scaling = 1.4 changing to 1.5
     4 autoz failed with cvr_scaling = 1.5 changing to 1.6
     5 autoz failed with cvr_scaling = 1.6 changing to 1.7

 AUTOZ failed to generate good internal coordinates.
 Cartesian coordinates will be used in optimizations.



                             Geometry "geometry" -> ""
                             -------------------------

 Output coordinates in a.u. (scale by  1.000000000 to convert to a.u.)

  No.       Tag          Charge          X              Y              Z
 ---- ---------------- ---------- -------------- -------------- --------------
    1 H                    1.0000     0.00000000    -3.02500000     0.00000000
    2 H                    1.0000     0.00000000     3.02500000     0.00000000

      Atomic Mass 
      ----------- 

      H                  1.007825


 Effective nuclear repulsion energy (a.u.)       0.1652892562

            Nuclear Dipole moment (a.u.) 
            ----------------------------
        X                 Y               Z
 ---------------- ---------------- ----------------
     0.0000000000     0.0000000000     0.0000000000


            XYZ format geometry
            -------------------
     2
 geometry
 H                     0.00000000    -1.60076118     0.00000000
 H                     0.00000000     1.60076118     0.00000000



 Summary of "ao basis" -> "" (cartesian)
 ------------------------------------------------------------------------------
       Tag                 Description            Shells   Functions and Types
 ---------------- ------------------------------  ------  ---------------------
 *                          cc-pVQZ                   on all atoms 


                      Basis "ao basis" -> "ao basis" (cartesian)
                      -----
  H (Hydrogen)
  ------------
            Exponent  Coefficients 
       -------------- ---------------------------------------------------------
  1 S  8.26400000E+01  0.002006
  1 S  1.24100000E+01  0.015343
  1 S  2.82400000E+00  0.075579

  2 S  7.97700000E-01  1.000000

  3 S  2.58100000E-01  1.000000

  4 S  8.98900000E-02  1.000000

  5 P  2.29200000E+00  1.000000

  6 P  8.38000000E-01  1.000000

  7 P  2.92000000E-01  1.000000

  8 D  2.06200000E+00  1.000000

  9 D  6.62000000E-01  1.000000

 10 F  1.39700000E+00  1.000000



 Summary of "ao basis" -> "ao basis" (cartesian)
 ------------------------------------------------------------------------------
       Tag                 Description            Shells   Functions and Types
 ---------------- ------------------------------  ------  ---------------------
 H                          cc-pVQZ                 10       35   4s3p2d1f



                            NWChem Direct MCSCF Module
                            --------------------------


                                        H2


     -----------------------------------
       Basis functions:             70
       Inactive shells:              0
       Active shells:               10
       Active electrons:             2
       Symmetry:                    a       
       Multiplicity:                 1
       Orbital rotations:          600
     -----------------------------------

     -----------------------------------
       E2 extrapolation:             F
       Conjugacy:                    T
       Micro CI relax:               T
       Canonical orbitals:           T
       Maximum iterations:          40
       Converge threshold:    1.00E-04
       Conjugacy resets:            20
       Initial levelshift:        0.10
     -----------------------------------

 Loading old vectors from job with title :

H2


   input molecular orbitals = ./H2.mos
  output molecular orbtials = ./H2.mos

       No. of determinants:           100


  Starting Orbital Energies
    -0.275355    -0.224486    -0.000079    -0.000024    -0.000024    -0.000001
    -0.000000    -0.000000    -0.000000    -0.000000     0.431204     0.651602
     0.819513     1.148579     1.148579     1.757518     1.818104     1.818104
     1.862637     2.040572     2.040572     2.062282     2.062282     2.090010
     2.090010     2.090152     2.090152     2.157298     2.869134     2.976810
     4.385845     4.385845     4.394586     4.432056     4.432056     4.544893
     5.943044     6.055401     6.055401     6.060401     6.068890     6.068890
     6.070056     6.070056     6.070056     6.070056     6.070100     6.070100
     6.070102     6.070102     8.124694     8.134980     8.134980     8.140694
     8.140694     8.141763     8.141763     8.141829     8.141829     8.144859
     9.631988     9.673208     9.699468     9.712348     9.712348     9.718783
     9.718783     9.781779    22.197411    22.689040

  Orbital Symmetry Irreps
a    a    a    a    a    a    a    a    a    a    a    a    a    a    a   
a    a    a    a    a    a    a    a    a    a    a    a    a    a    a   
a    a    a    a    a    a    a    a    a    a    a    a    a    a    a   
a    a    a    a    a    a    a    a    a    a    a    a    a    a    a   
a    a    a    a    a    a    a    a    a    a   

 Integral file          = ./H2.aoints.0
 Record size in doubles =  65536        No. of integs per rec  =  43688
 Max. records in memory =     99        Max. records in file   = 280144
 No. of bits per label  =      8        No. of bits per value  =     64


 #quartets = 1.756D+04 #integrals = 4.207D+05 #direct =  0.0% #cached =100.0%




          %%%%% MacroIteration   1 %%%%%


          Number of sigma calls:       15
                       o<<<<< (aa):             0.00
                       o<<<<< (bb):             0.00
                       o<<<<< (ab):             0.02
                       o<<<<< (total)           0.02
                       o<<<<< (aa) ff           0.00
                       o<<<<< (aa) gop          0.00
                       o<<<<< (aa) dot          0.00
                       o<<<<< (ab) str          0.00
                       o<<<<< (ab) gath         0.00
                       o<<<<< (ab) dotab        0.00
                       o<<<<< (ab) scat         0.00
                       o<<<<< (ab) sync         0.00
                       o<<<<< Density           0.00
                       o<<<<< Density one       0.00
                       o<<<<< Density two       0.00
                       o<<<<< Density ab        0.00
                       o<<<<< Spin adapt        0.00
                       o<<<<< Symm adapt        0.00

                       o<<<<< (ab) max sync:      0.00

           >>>| Valence CI:             -1.165839802111
           >>>| MCSCF energy:           -1.000550545913
           >>>| Gradient norm:          0.411074977D-03
     --- Warning:  480 Hessian diagonals < 0.05 ---

                              ----- Line search ------

        step       energy         lsg     num-lsg   num-lsh   lsrat    time
      ------- ---------------- --------- --------- --------- ------- --------
       0.0000      -1.00055055 -3.90D-08  0.00D+00  0.00D+00 0.0D+00      0.9

          Number of sigma calls:        9
                       o<<<<< (aa):             0.00
                       o<<<<< (bb):             0.00
                       o<<<<< (ab):             0.01
                       o<<<<< (total)           0.02
                       o<<<<< (aa) ff           0.00
                       o<<<<< (aa) gop          0.00
                       o<<<<< (aa) dot          0.00
                       o<<<<< (ab) str          0.00
                       o<<<<< (ab) gath         0.00
                       o<<<<< (ab) dotab        0.00
                       o<<<<< (ab) scat         0.00
                       o<<<<< (ab) sync         0.00
                       o<<<<< Density           0.00
                       o<<<<< Density one       0.00
                       o<<<<< Density two       0.00
                       o<<<<< Density ab        0.00
                       o<<<<< Spin adapt        0.00
                       o<<<<< Symm adapt        0.00

                       o<<<<< (ab) max sync:      0.00
       1.0000      -1.00055057 -1.30D-08 -1.30D-08  2.59D-08 3.3D-01      1.1

          Number of sigma calls:        8
                       o<<<<< (aa):             0.00
                       o<<<<< (bb):             0.00
                       o<<<<< (ab):             0.00
                       o<<<<< (total)           0.00
                       o<<<<< (aa) ff           0.00
                       o<<<<< (aa) gop          0.00
                       o<<<<< (aa) dot          0.00
                       o<<<<< (ab) str          0.00
                       o<<<<< (ab) gath         0.00
                       o<<<<< (ab) dotab        0.00
                       o<<<<< (ab) scat         0.00
                       o<<<<< (ab) sync         0.00
                       o<<<<< Density           0.00
                       o<<<<< Density one       0.00
                       o<<<<< Density two       0.00
                       o<<<<< Density ab        0.00
                       o<<<<< Spin adapt        0.00
                       o<<<<< Symm adapt        0.00

                       o<<<<< (ab) max sync:      0.00
       1.5020      -1.00055058  5.53D-12  5.47D-12  2.59D-08 1.4D-04      1.4
     --- Orbitals canonicalized ---



          %%%%% MacroIteration   2 %%%%%


          Number of sigma calls:       15
                       o<<<<< (aa):             0.00
                       o<<<<< (bb):             0.00
                       o<<<<< (ab):             0.01
                       o<<<<< (total)           0.02
                       o<<<<< (aa) ff           0.00
                       o<<<<< (aa) gop          0.00
                       o<<<<< (aa) dot          0.00
                       o<<<<< (ab) str          0.00
                       o<<<<< (ab) gath         0.00
                       o<<<<< (ab) dotab        0.00
                       o<<<<< (ab) scat         0.00
                       o<<<<< (ab) sync         0.00
                       o<<<<< Density           0.00
                       o<<<<< Density one       0.00
                       o<<<<< Density two       0.00
                       o<<<<< Density ab        0.00
                       o<<<<< Spin adapt        0.00
                       o<<<<< Symm adapt        0.00

                       o<<<<< (ab) max sync:      0.00

           >>>| Valence CI:             -1.165839831369
           >>>| MCSCF energy:           -1.000550575171
           >>>| Gradient norm:          0.965344794D-04




     ==============================
            MCSCF Converged
     ==============================



          Canonical Eigenvalues

              1      
    1   -0.2744
    2   -0.2255
    3   -0.0001
    4   -0.0000
    5   -0.0000
    6   -0.0000
    7   -0.0000
    8   -0.0000
    9   -0.0000
   10   -0.0000
   11    0.4303
   12    0.6490
   13    0.8211
   14    1.1476
   15    1.1476
   16    1.7587
   17    1.8189
   18    1.8189
   19    1.8643
   20    2.0409
   21    2.0409
   22    2.0614
   23    2.0614
   24    2.0900
   25    2.0900
   26    2.0902
   27    2.0902
   28    2.1504
   29    2.8713
   30    2.9756
   31    4.3851
   32    4.3851
   33    4.3901
   34    4.4327
   35    4.4327
   36    4.5443
   37    5.9432
   38    6.0554
   39    6.0554
   40    6.0604
   41    6.0689
   42    6.0689
   43    6.0701
   44    6.0701
   45    6.0701
   46    6.0701
   47    6.0701
   48    6.0701
   49    6.0701
   50    6.0701
   51    8.1251
   52    8.1349
   53    8.1349
   54    8.1409
   55    8.1409
   56    8.1418
   57    8.1418
   58    8.1419
   59    8.1419
   60    8.1434
   61    9.6329
   62    9.6722
   63    9.6972
   64    9.7127
   65    9.7127
   66    9.7185
   67    9.7185
   68    9.7819
   69   22.2000
   70   22.6845


          Converged CI vector

   Index           Coefficient          Config. Occupation
         1          0.74690465          1  1
        12         -0.66484904          2  2

          Number of sigma calls:        1
                       o<<<<< (aa):             0.00
                       o<<<<< (bb):             0.00
                       o<<<<< (ab):             0.00
                       o<<<<< (total)           0.00
                       o<<<<< (aa) ff           0.00
                       o<<<<< (aa) gop          0.00
                       o<<<<< (aa) dot          0.00
                       o<<<<< (ab) str          0.00
                       o<<<<< (ab) gath         0.00
                       o<<<<< (ab) dotab        0.00
                       o<<<<< (ab) scat         0.00
                       o<<<<< (ab) sync         0.00
                       o<<<<< Density           0.00
                       o<<<<< Density one       0.00
                       o<<<<< Density two       0.00
                       o<<<<< Density ab        0.00
                       o<<<<< Spin adapt        0.00
                       o<<<<< Symm adapt        0.00

                       o<<<<< (ab) max sync:      0.00



          Natural orbital occupation numbers

              1      
    1    1.1157
    2    0.8840
    3    0.0001
    4    0.0000
    5    0.0000
    6    0.0000
    7    0.0000
    8    0.0000
    9    0.0000
   10    0.0000


          Number of sigma calls:       15
                       o<<<<< (aa):             0.00
                       o<<<<< (bb):             0.00
                       o<<<<< (ab):             0.00
                       o<<<<< (total)           0.00
                       o<<<<< (aa) ff           0.00
                       o<<<<< (aa) gop          0.00
                       o<<<<< (aa) dot          0.00
                       o<<<<< (ab) str          0.00
                       o<<<<< (ab) gath         0.00
                       o<<<<< (ab) dotab        0.00
                       o<<<<< (ab) scat         0.00
                       o<<<<< (ab) sync         0.00
                       o<<<<< Density           0.00
                       o<<<<< Density one       0.00
                       o<<<<< Density two       0.00
                       o<<<<< Density ab        0.00
                       o<<<<< Spin adapt        0.00
                       o<<<<< Symm adapt        0.00

                       o<<<<< (ab) max sync:      0.00


       Final MCSCF results 
       ------------------- 

       Total MCSCF energy =     -1.000550575171
            Gradient norm =      9.7D-05

    CPU time for solution =      1.4s
   Wall time for solution =      1.7s



                        Analysis of MCSCF natural orbitals
                        ----------------------------------

 Vector    1  Occ=1.115734D+00  E=-2.743727D-01  Symmetry=a
              MO Center=  6.0D-15,  4.7D-12, -3.9D-15, r^2= 3.3D+00
   Bfn.  Coefficient  Atom+Function         Bfn.  Coefficient  Atom+Function  
  ----- ------------  ---------------      ----- ------------  ---------------
     3      0.338249  1 H  s                 38      0.338249  2 H  s          
     4      0.209773  1 H  s                 39      0.209773  2 H  s          
     2      0.175589  1 H  s                 37      0.175589  2 H  s          

 Vector    2  Occ=8.840485D-01  E=-2.254764D-01  Symmetry=a
              MO Center=  2.6D-14, -4.4D-12, -1.7D-14, r^2= 3.5D+00
   Bfn.  Coefficient  Atom+Function         Bfn.  Coefficient  Atom+Function  
  ----- ------------  ---------------      ----- ------------  ---------------
     3      0.362358  1 H  s                 38     -0.362358  2 H  s          
     4      0.209793  1 H  s                 39     -0.209793  2 H  s          
     2      0.184707  1 H  s                 37     -0.184707  2 H  s          

 Vector    3  Occ=1.391198D-04  E=-7.356912D-05  Symmetry=a
              MO Center=  6.9D-14,  3.2D-09, -4.5D-14, r^2= 3.7D+00
   Bfn.  Coefficient  Atom+Function         Bfn.  Coefficient  Atom+Function  
  ----- ------------  ---------------      ----- ------------  ---------------
     9      1.587121  1 H  py                44     -1.587121  2 H  py         
    12     -0.958791  1 H  py                47      0.958791  2 H  py         
    32     -0.669442  1 H  fyyy              67      0.669442  2 H  fyyy       
    27     -0.650886  1 H  fxxy              34     -0.650886  1 H  fyzz       
    62      0.650886  2 H  fxxy              69      0.650886  2 H  fyzz       

 Vector    4  Occ=3.821528D-05  E=-2.185520D-05  Symmetry=a
              MO Center=  8.1D-15, -1.9D-11, -7.2D-14, r^2= 3.5D+00
   Bfn.  Coefficient  Atom+Function         Bfn.  Coefficient  Atom+Function  
  ----- ------------  ---------------      ----- ------------  ---------------
    10      1.525515  1 H  pz                45      1.525515  2 H  pz         
    13     -0.940241  1 H  pz                48     -0.940241  2 H  pz         
    33     -0.675194  1 H  fyyz              68     -0.675194  2 H  fyyz       
    28     -0.642365  1 H  fxxz              35     -0.642365  1 H  fzzz       
    63     -0.642365  2 H  fxxz              70     -0.642365  2 H  fzzz       

 Vector    5  Occ=3.821528D-05  E=-2.185520D-05  Symmetry=a
              MO Center= -2.9D-13, -1.8D-11, -3.7D-14, r^2= 3.5D+00
   Bfn.  Coefficient  Atom+Function         Bfn.  Coefficient  Atom+Function  
  ----- ------------  ---------------      ----- ------------  ---------------
     8      1.525515  1 H  px                43      1.525515  2 H  px         
    11     -0.940241  1 H  px                46     -0.940241  2 H  px         
    29     -0.675194  1 H  fxyy              64     -0.675194  2 H  fxyy       
    26     -0.642365  1 H  fxxx              31     -0.642365  1 H  fxzz       
    61     -0.642365  2 H  fxxx              66     -0.642365  2 H  fxzz       

 Vector    6  Occ=9.367842D-07  E=-6.221431D-07  Symmetry=a
              MO Center=  2.4D-13, -1.4D-09,  1.5D-13, r^2= 3.3D+00
   Bfn.  Coefficient  Atom+Function         Bfn.  Coefficient  Atom+Function  
  ----- ------------  ---------------      ----- ------------  ---------------
     9      1.100733  1 H  py                44     -1.100733  2 H  py         
     2      0.607192  1 H  s                 37      0.607192  2 H  s          
     4     -0.516933  1 H  s                 39     -0.516933  2 H  s          
    27     -0.451082  1 H  fxxy              34     -0.451082  1 H  fyzz       
    62      0.451082  2 H  fxxy              69      0.451082  2 H  fyzz       

 Vector    7  Occ=3.486238D-07  E=-3.294863D-07  Symmetry=a
              MO Center= -1.3D-12,  4.0D-09,  7.9D-13, r^2= 2.7D+00
   Bfn.  Coefficient  Atom+Function         Bfn.  Coefficient  Atom+Function  
  ----- ------------  ---------------      ----- ------------  ---------------
     9      1.449479  1 H  py                44      1.449479  2 H  py         
     3     -0.944531  1 H  s                 38      0.944531  2 H  s          
     2      0.854768  1 H  s                 37     -0.854768  2 H  s          
    27     -0.529341  1 H  fxxy              34     -0.529341  1 H  fyzz       
    62     -0.529341  2 H  fxxy              69     -0.529341  2 H  fyzz       

 Vector    8  Occ=1.637706D-07  E=-2.011994D-07  Symmetry=a
              MO Center= -1.2D-14,  2.7D-09, -4.0D-15, r^2= 3.3D+00
   Bfn.  Coefficient  Atom+Function         Bfn.  Coefficient  Atom+Function  
  ----- ------------  ---------------      ----- ------------  ---------------
     9      3.072578  1 H  py                44     -3.072578  2 H  py         
    27     -1.352563  1 H  fxxy              34     -1.352563  1 H  fyzz       
    62      1.352563  2 H  fxxy              69      1.352563  2 H  fyzz       
    32     -1.048490  1 H  fyyy              67      1.048490  2 H  fyyy       
     6     -0.758817  1 H  py                41      0.758817  2 H  py         

 Vector    9  Occ=5.668246D-08  E=-5.155647D-08  Symmetry=a
              MO Center=  1.1D-12,  7.2D-12, -7.3D-14, r^2= 2.5D+00
   Bfn.  Coefficient  Atom+Function         Bfn.  Coefficient  Atom+Function  
  ----- ------------  ---------------      ----- ------------  ---------------
     8      1.429527  1 H  px                43     -1.429527  2 H  px         
    26     -0.467784  1 H  fxxx              31     -0.467784  1 H  fxzz       
    61      0.467784  2 H  fxxx              66      0.467784  2 H  fxzz       
    21      0.383882  1 H  dxy               56      0.383882  2 H  dxy        
    29     -0.344190  1 H  fxyy              64      0.344190  2 H  fxyy       

 Vector   10  Occ=5.668246D-08  E=-5.155647D-08  Symmetry=a
              MO Center= -3.8D-14,  7.7D-12, -6.1D-13, r^2= 2.5D+00
   Bfn.  Coefficient  Atom+Function         Bfn.  Coefficient  Atom+Function  
  ----- ------------  ---------------      ----- ------------  ---------------
    10      1.429527  1 H  pz                45     -1.429527  2 H  pz         
    28     -0.467784  1 H  fxxz              35     -0.467784  1 H  fzzz       
    63      0.467784  2 H  fxxz              70      0.467784  2 H  fzzz       
    24      0.383882  1 H  dyz               59      0.383882  2 H  dyz        
    33     -0.344190  1 H  fyyz              68      0.344190  2 H  fyyz       

 Vector   11  Occ=0.000000D+00  E= 4.303014D-01  Symmetry=a
              MO Center=  2.4D-12,  3.9D-09, -1.5D-12, r^2= 8.6D+00
   Bfn.  Coefficient  Atom+Function         Bfn.  Coefficient  Atom+Function  
  ----- ------------  ---------------      ----- ------------  ---------------
     3      2.854408  1 H  s                 38     -2.854408  2 H  s          
     4     -1.773306  1 H  s                 39      1.773306  2 H  s          
     9     -0.890820  1 H  py                44     -0.890820  2 H  py         
     2     -0.711300  1 H  s                 37      0.711300  2 H  s          
    23     -0.414808  1 H  dyy               58      0.414808  2 H  dyy        

 Vector   12  Occ=0.000000D+00  E= 6.489928D-01  Symmetry=a
              MO Center= -1.4D-12,  6.3D-10,  8.9D-13, r^2= 5.1D+00
   Bfn.  Coefficient  Atom+Function         Bfn.  Coefficient  Atom+Function  
  ----- ------------  ---------------      ----- ------------  ---------------
     3      1.525001  1 H  s                 38     -1.525001  2 H  s          
     9      1.407904  1 H  py                44      1.407904  2 H  py         
    12     -1.000473  1 H  py                47     -1.000473  2 H  py         
     4     -0.976110  1 H  s                 39      0.976110  2 H  s          
    27     -0.567453  1 H  fxxy              32     -0.568387  1 H  fyyy       

 Vector   13  Occ=0.000000D+00  E= 8.210618D-01  Symmetry=a
              MO Center=  1.2D-14, -1.7D-08, -6.2D-15, r^2= 6.9D+00
   Bfn.  Coefficient  Atom+Function         Bfn.  Coefficient  Atom+Function  
  ----- ------------  ---------------      ----- ------------  ---------------
     3      3.967160  1 H  s                 38      3.967160  2 H  s          
     4     -1.589169  1 H  s                 39     -1.589169  2 H  s          
     2     -1.254397  1 H  s                 37     -1.254397  2 H  s          
    23     -0.642750  1 H  dyy               58     -0.642750  2 H  dyy        
    20     -0.623769  1 H  dxx               25     -0.623769  1 H  dzz        

 Vector   14  Occ=0.000000D+00  E= 1.147598D+00  Symmetry=a
              MO Center=  6.1D-13, -2.3D-11, -6.1D-14, r^2= 4.9D+00
   Bfn.  Coefficient  Atom+Function         Bfn.  Coefficient  Atom+Function  
  ----- ------------  ---------------      ----- ------------  ---------------
     8      4.914122  1 H  px                43     -4.914122  2 H  px         
    26     -1.908453  1 H  fxxx              31     -1.908453  1 H  fxzz       
    61      1.908453  2 H  fxxx              66      1.908453  2 H  fxzz       
    29     -1.890212  1 H  fxyy              64      1.890212  2 H  fxyy       
    11     -1.483747  1 H  px                46      1.483747  2 H  px         

 Vector   15  Occ=0.000000D+00  E= 1.147598D+00  Symmetry=a
              MO Center= -2.7D-14, -2.2D-11, -2.6D-13, r^2= 4.9D+00
   Bfn.  Coefficient  Atom+Function         Bfn.  Coefficient  Atom+Function  
  ----- ------------  ---------------      ----- ------------  ---------------
    10      4.914122  1 H  pz                45     -4.914122  2 H  pz         
    28     -1.908453  1 H  fxxz              35     -1.908453  1 H  fzzz       
    63      1.908453  2 H  fxxz              70      1.908453  2 H  fzzz       
    33     -1.890212  1 H  fyyz              68      1.890212  2 H  fyyz       
    13     -1.483747  1 H  pz                48      1.483747  2 H  pz         

 Vector   16  Occ=0.000000D+00  E= 1.758700D+00  Symmetry=a
              MO Center= -1.1D-12,  5.7D-09,  6.5D-13, r^2= 4.7D+00
   Bfn.  Coefficient  Atom+Function         Bfn.  Coefficient  Atom+Function  
  ----- ------------  ---------------      ----- ------------  ---------------
     9      4.620431  1 H  py                44      4.620431  2 H  py         
     3      2.182601  1 H  s                 38     -2.182601  2 H  s          
    27     -1.781350  1 H  fxxy              34     -1.781350  1 H  fyzz       
    62     -1.781350  2 H  fxxy              69     -1.781350  2 H  fyzz       
    32     -1.771157  1 H  fyyy              67     -1.771157  2 H  fyyy       

 Vector   17  Occ=0.000000D+00  E= 1.818916D+00  Symmetry=a
              MO Center= -8.1D-14,  5.3D-11,  4.3D-14, r^2= 3.8D+00
   Bfn.  Coefficient  Atom+Function         Bfn.  Coefficient  Atom+Function  
  ----- ------------  ---------------      ----- ------------  ---------------
     8      5.480046  1 H  px                43      5.480046  2 H  px         
    10     -2.971335  1 H  pz                45     -2.971335  2 H  pz         
    26     -2.141131  1 H  fxxx              29     -2.140692  1 H  fxyy       
    31     -2.141131  1 H  fxzz              61     -2.141131  2 H  fxxx       
    64     -2.140692  2 H  fxyy              66     -2.141131  2 H  fxzz       

 Vector   18  Occ=0.000000D+00  E= 1.818916D+00  Symmetry=a
              MO Center=  6.8D-16,  5.2D-11,  6.6D-15, r^2= 3.8D+00
   Bfn.  Coefficient  Atom+Function         Bfn.  Coefficient  Atom+Function  
  ----- ------------  ---------------      ----- ------------  ---------------
    10      5.480046  1 H  pz                45      5.480046  2 H  pz         
     8      2.971335  1 H  px                43      2.971335  2 H  px         
    28     -2.141131  1 H  fxxz              33     -2.140692  1 H  fyyz       
    35     -2.141131  1 H  fzzz              63     -2.141131  2 H  fxxz       
    68     -2.140692  2 H  fyyz              70     -2.141131  2 H  fzzz       

 Vector   19  Occ=0.000000D+00  E= 1.864267D+00  Symmetry=a
              MO Center=  1.2D-14, -2.4D-09, -8.5D-15, r^2= 4.3D+00
   Bfn.  Coefficient  Atom+Function         Bfn.  Coefficient  Atom+Function  
  ----- ------------  ---------------      ----- ------------  ---------------
     9      4.621720  1 H  py                44     -4.621720  2 H  py         
    32     -1.824137  1 H  fyyy              67      1.824137  2 H  fyyy       
    27     -1.811102  1 H  fxxy              34     -1.811102  1 H  fyzz       
    62      1.811102  2 H  fxxy              69      1.811102  2 H  fyzz       
     6     -1.227581  1 H  py                41      1.227581  2 H  py         

 Vector   20  Occ=0.000000D+00  E= 2.040861D+00  Symmetry=a
              MO Center= -8.2D-15, -7.0D-10, -1.6D-15, r^2= 3.9D+00
   Bfn.  Coefficient  Atom+Function         Bfn.  Coefficient  Atom+Function  
  ----- ------------  ---------------      ----- ------------  ---------------
    24      1.293202  1 H  dyz               59     -1.293202  2 H  dyz        
    10     -0.432287  1 H  pz                45     -0.432287  2 H  pz         
    18     -0.178616  1 H  dyz               53      0.178616  2 H  dyz        
    33      0.172586  1 H  fyyz              68      0.172586  2 H  fyyz       
    28      0.170557  1 H  fxxz              35      0.170557  1 H  fzzz       


 Wrote Lagrangian and 1- and 2-particle density matrices to ./H2.mcpdm


     Multipole analysis of the density
     ---------------------------------

     L   x y z        total        nuclear
     -   - - -        -----        -------
     0   0 0 0     -0.000000      2.000000

     1   1 0 0     -0.000000      0.000000
     1   0 1 0     -0.000000      0.000000
     1   0 0 1      0.000000      0.000000

     2   2 0 0     -2.007759      0.000000
     2   1 1 0      0.000000      0.000000
     2   1 0 1     -0.000000      0.000000
     2   0 2 0     -1.933799     18.301250
     2   0 1 1     -0.000000      0.000000
     2   0 0 2     -2.007759      0.000000


  Mulliken analysis of the total density
  --------------------------------------

    Atom       Charge   Shell Charges
 -----------   ------   -------------------------------------------------------
    1 H    1     1.00   0.05  0.22  0.48  0.25  0.00 -0.00  0.00  0.00  0.00  0.00
    2 H    1     1.00   0.05  0.22  0.48  0.25  0.00 -0.00  0.00  0.00  0.00  0.00

    Mulliken analysis of the active space density
    ---------------------------------------------

    Atom       Charge   Shell Charges
 -----------   ------   -------------------------------------------------------
    1 H    1     1.00   0.05  0.22  0.48  0.25  0.00 -0.00  0.00  0.00  0.00  0.00
    2 H    1     1.00   0.05  0.22  0.48  0.25  0.00 -0.00  0.00  0.00  0.00  0.00

 Parallel integral file used      10 records with       0 large values


 Task  times  cpu:        1.4s     wall:        1.7s


                                NWChem Input Module
                                -------------------


                                 NWChem SCF Module
                                 -----------------


                                        H2



  ao basis        = "ao basis"
  functions       =    70
  atoms           =     2
  closed shells   =     1
  open shells     =     0
  charge          =   0.00
  wavefunction    = RHF 
  input vectors   = ./H2.mos
  output vectors  = ./H2-6.05.mos
  use symmetry    = F
  symmetry adapt  = F


 Summary of "ao basis" -> "ao basis" (cartesian)
 ------------------------------------------------------------------------------
       Tag                 Description            Shells   Functions and Types
 ---------------- ------------------------------  ------  ---------------------
 H                          cc-pVQZ                 10       35   4s3p2d1f



 Forming initial guess at       1.7s


 Loading old vectors from job with title :

H2


 Starting SCF solution at       1.7s



 ----------------------------------------------
         Quadratically convergent ROHF

 Convergence threshold     :          1.000E-04
 Maximum no. of iterations :           30
 Final Fock-matrix accuracy:          1.000E-07
 ----------------------------------------------


 Integral file          = ./H2.aoints.0
 Record size in doubles =  65536        No. of integs per rec  =  43688
 Max. records in memory =     99        Max. records in file   = 280182
 No. of bits per label  =      8        No. of bits per value  =     64


 #quartets = 1.603D+04 #integrals = 3.520D+05 #direct =  0.0% #cached =100.0%



       Final RHF  results 
       ------------------ 

         Total SCF energy =     -0.794654132512
      One-electron energy =     -1.348030538044
      Two-electron energy =      0.388087149333
 Nuclear repulsion energy =      0.165289256198

        Time for solution =      0.0s


             Final eigenvalues
             -----------------

              1      
    1   -0.2744
    2   -0.2255
    3   -0.0001
    4   -0.0000
    5   -0.0000
    6   -0.0000
    7   -0.0000
    8   -0.0000
    9   -0.0000
   10   -0.0000
   11    0.4303

                       ROHF Final Molecular Orbital Analysis
                       -------------------------------------

 Vector    1  Occ=2.000000D+00  E=-2.743727D-01
              MO Center=  6.0D-15,  4.7D-12, -3.9D-15, r^2= 3.3D+00
   Bfn.  Coefficient  Atom+Function         Bfn.  Coefficient  Atom+Function  
  ----- ------------  ---------------      ----- ------------  ---------------
     3      0.338249  1 H  s                 38      0.338249  2 H  s          
     4      0.209773  1 H  s                 39      0.209773  2 H  s          
     2      0.175589  1 H  s                 37      0.175589  2 H  s          

 Vector    2  Occ=0.000000D+00  E=-2.254764D-01
              MO Center=  2.6D-14, -4.4D-12, -1.7D-14, r^2= 3.5D+00
   Bfn.  Coefficient  Atom+Function         Bfn.  Coefficient  Atom+Function  
  ----- ------------  ---------------      ----- ------------  ---------------
     3      0.362358  1 H  s                 38     -0.362358  2 H  s          
     4      0.209793  1 H  s                 39     -0.209793  2 H  s          
     2      0.184707  1 H  s                 37     -0.184707  2 H  s          

 Vector    3  Occ=0.000000D+00  E=-7.356912D-05
              MO Center=  6.9D-14,  3.2D-09, -4.5D-14, r^2= 3.7D+00
   Bfn.  Coefficient  Atom+Function         Bfn.  Coefficient  Atom+Function  
  ----- ------------  ---------------      ----- ------------  ---------------
     9      1.587121  1 H  py                44     -1.587121  2 H  py         
    12     -0.958791  1 H  py                47      0.958791  2 H  py         
    32     -0.669442  1 H  fyyy              67      0.669442  2 H  fyyy       
    27     -0.650886  1 H  fxxy              34     -0.650886  1 H  fyzz       
    62      0.650886  2 H  fxxy              69      0.650886  2 H  fyzz       

 Vector    4  Occ=0.000000D+00  E=-2.185520D-05
              MO Center=  8.1D-15, -1.9D-11, -7.2D-14, r^2= 3.5D+00
   Bfn.  Coefficient  Atom+Function         Bfn.  Coefficient  Atom+Function  
  ----- ------------  ---------------      ----- ------------  ---------------
    10      1.525515  1 H  pz                45      1.525515  2 H  pz         
    13     -0.940241  1 H  pz                48     -0.940241  2 H  pz         
    33     -0.675194  1 H  fyyz              68     -0.675194  2 H  fyyz       
    28     -0.642365  1 H  fxxz              35     -0.642365  1 H  fzzz       
    63     -0.642365  2 H  fxxz              70     -0.642365  2 H  fzzz       

 Vector    5  Occ=0.000000D+00  E=-2.185520D-05
              MO Center= -2.9D-13, -1.8D-11, -3.7D-14, r^2= 3.5D+00
   Bfn.  Coefficient  Atom+Function         Bfn.  Coefficient  Atom+Function  
  ----- ------------  ---------------      ----- ------------  ---------------
     8      1.525515  1 H  px                43      1.525515  2 H  px         
    11     -0.940241  1 H  px                46     -0.940241  2 H  px         
    29     -0.675194  1 H  fxyy              64     -0.675194  2 H  fxyy       
    26     -0.642365  1 H  fxxx              31     -0.642365  1 H  fxzz       
    61     -0.642365  2 H  fxxx              66     -0.642365  2 H  fxzz       

 Vector    6  Occ=0.000000D+00  E=-6.221431D-07
              MO Center=  2.4D-13, -1.4D-09,  1.5D-13, r^2= 3.3D+00
   Bfn.  Coefficient  Atom+Function         Bfn.  Coefficient  Atom+Function  
  ----- ------------  ---------------      ----- ------------  ---------------
     9      1.100733  1 H  py                44     -1.100733  2 H  py         
     2      0.607192  1 H  s                 37      0.607192  2 H  s          
     4     -0.516933  1 H  s                 39     -0.516933  2 H  s          
    27     -0.451082  1 H  fxxy              34     -0.451082  1 H  fyzz       
    62      0.451082  2 H  fxxy              69      0.451082  2 H  fyzz       

 Vector    7  Occ=0.000000D+00  E=-3.294863D-07
              MO Center= -1.3D-12,  4.0D-09,  7.9D-13, r^2= 2.7D+00
   Bfn.  Coefficient  Atom+Function         Bfn.  Coefficient  Atom+Function  
  ----- ------------  ---------------      ----- ------------  ---------------
     9      1.449479  1 H  py                44      1.449479  2 H  py         
     3     -0.944531  1 H  s                 38      0.944531  2 H  s          
     2      0.854768  1 H  s                 37     -0.854768  2 H  s          
    27     -0.529341  1 H  fxxy              34     -0.529341  1 H  fyzz       
    62     -0.529341  2 H  fxxy              69     -0.529341  2 H  fyzz       

 Vector    8  Occ=0.000000D+00  E=-2.011994D-07
              MO Center= -1.2D-14,  2.7D-09, -4.0D-15, r^2= 3.3D+00
   Bfn.  Coefficient  Atom+Function         Bfn.  Coefficient  Atom+Function  
  ----- ------------  ---------------      ----- ------------  ---------------
     9      3.072578  1 H  py                44     -3.072578  2 H  py         
    27     -1.352563  1 H  fxxy              34     -1.352563  1 H  fyzz       
    62      1.352563  2 H  fxxy              69      1.352563  2 H  fyzz       
    32     -1.048490  1 H  fyyy              67      1.048490  2 H  fyyy       
     6     -0.758817  1 H  py                41      0.758817  2 H  py         

 Vector    9  Occ=0.000000D+00  E=-5.155647D-08
              MO Center=  1.1D-12,  7.2D-12, -7.3D-14, r^2= 2.5D+00
   Bfn.  Coefficient  Atom+Function         Bfn.  Coefficient  Atom+Function  
  ----- ------------  ---------------      ----- ------------  ---------------
     8      1.429527  1 H  px                43     -1.429527  2 H  px         
    26     -0.467784  1 H  fxxx              31     -0.467784  1 H  fxzz       
    61      0.467784  2 H  fxxx              66      0.467784  2 H  fxzz       
    21      0.383882  1 H  dxy               56      0.383882  2 H  dxy        
    29     -0.344190  1 H  fxyy              64      0.344190  2 H  fxyy       

 Vector   10  Occ=0.000000D+00  E=-5.155647D-08
              MO Center= -3.8D-14,  7.7D-12, -6.1D-13, r^2= 2.5D+00
   Bfn.  Coefficient  Atom+Function         Bfn.  Coefficient  Atom+Function  
  ----- ------------  ---------------      ----- ------------  ---------------
    10      1.429527  1 H  pz                45     -1.429527  2 H  pz         
    28     -0.467784  1 H  fxxz              35     -0.467784  1 H  fzzz       
    63      0.467784  2 H  fxxz              70      0.467784  2 H  fzzz       
    24      0.383882  1 H  dyz               59      0.383882  2 H  dyz        
    33     -0.344190  1 H  fyyz              68      0.344190  2 H  fyyz       

 Vector   11  Occ=0.000000D+00  E= 4.303014D-01
              MO Center=  2.4D-12,  3.9D-09, -1.5D-12, r^2= 8.6D+00
   Bfn.  Coefficient  Atom+Function         Bfn.  Coefficient  Atom+Function  
  ----- ------------  ---------------      ----- ------------  ---------------
     3      2.854408  1 H  s                 38     -2.854408  2 H  s          
     4     -1.773306  1 H  s                 39      1.773306  2 H  s          
     9     -0.890820  1 H  py                44     -0.890820  2 H  py         
     2     -0.711300  1 H  s                 37      0.711300  2 H  s          
    23     -0.414808  1 H  dyy               58      0.414808  2 H  dyy        

 Vector   12  Occ=0.000000D+00  E= 6.489928D-01
              MO Center= -1.4D-12,  6.3D-10,  8.9D-13, r^2= 5.1D+00
   Bfn.  Coefficient  Atom+Function         Bfn.  Coefficient  Atom+Function  
  ----- ------------  ---------------      ----- ------------  ---------------
     3      1.525001  1 H  s                 38     -1.525001  2 H  s          
     9      1.407904  1 H  py                44      1.407904  2 H  py         
    12     -1.000473  1 H  py                47     -1.000473  2 H  py         
     4     -0.976110  1 H  s                 39      0.976110  2 H  s          
    27     -0.567453  1 H  fxxy              32     -0.568387  1 H  fyyy       


 center of mass
 --------------
 x =   0.00000000 y =   0.00000000 z =   0.00000000

 moments of inertia (a.u.)
 ------------------
          18.444457281250           0.000000000000           0.000000000000
           0.000000000000           0.000000000000           0.000000000000
           0.000000000000           0.000000000000          18.444457281250

  Mulliken analysis of the total density
  --------------------------------------

    Atom       Charge   Shell Charges
 -----------   ------   -------------------------------------------------------
    1 H    1     1.00   0.04  0.21  0.47  0.27  0.00 -0.00 -0.00  0.00  0.00  0.00
    2 H    1     1.00   0.04  0.21  0.47  0.27  0.00 -0.00 -0.00  0.00  0.00  0.00

       Multipole analysis of the density wrt the origin
       ------------------------------------------------

     L   x y z        total         open         nuclear
     -   - - -        -----         ----         -------
     0   0 0 0     -0.000000      0.000000      2.000000

     1   1 0 0     -0.000000      0.000000      0.000000
     1   0 1 0     -0.000000      0.000000      0.000000
     1   0 0 1      0.000000      0.000000      0.000000

     2   2 0 0     -2.090081      0.000000      0.000000
     2   1 1 0     -0.000000      0.000000      0.000000
     2   1 0 1      0.000000      0.000000      0.000000
     2   0 2 0     -1.435045      0.000000     18.301250
     2   0 1 1      0.000000      0.000000      0.000000
     2   0 0 2     -2.090081      0.000000      0.000000


 Parallel integral file used       9 records with       0 large values

                   NWChem Extensible Many-Electron Theory Module
                   ---------------------------------------------

              ======================================================
                   This portion of the program was automatically
                  generated by a Tensor Contraction Engine (TCE).
                  The development of this portion of the program
                 and TCE was supported by US Department of Energy,
                Office of Science, Office of Basic Energy Science.
                      TCE is a product of Battelle and PNNL.
              Please cite: S.Hirata, J.Phys.Chem.A 107, 9887 (2003).
              ======================================================

                                        H2


            General Information
            -------------------
      Number of processors :     1
         Wavefunction type : Restricted Hartree-Fock
          No. of electrons :     2
           Alpha electrons :     1
            Beta electrons :     1
           No. of orbitals :   140
            Alpha orbitals :    70
             Beta orbitals :    70
        Alpha frozen cores :     0
         Beta frozen cores :     0
     Alpha frozen virtuals :     0
      Beta frozen virtuals :     0
         Spin multiplicity : singlet 
    Number of AO functions :    70
       Number of AO shells :    20
        Use of symmetry is : off
      Symmetry adaption is : off
         Schwarz screening : 0.10D-09

          Correlation Information
          -----------------------
          Calculation type : Coupled-cluster singles & doubles                           
   Perturbative correction : none                                                        
            Max iterations :      300
        Residual threshold : 0.10D-06
     T(0) DIIS level shift : 0.80D+00
     L(0) DIIS level shift : 0.00D+00
     T(1) DIIS level shift : 0.00D+00
     L(1) DIIS level shift : 0.00D+00
     T(R) DIIS level shift : 0.00D+00
     T(I) DIIS level shift : 0.00D+00
   CC-T/L Amplitude update :  5-th order DIIS
                I/O scheme : Global Array Library
        L-threshold :  0.10D-06
        EOM-threshold :  0.10D-06
 no EOMCCSD initial starts read in
 TCE RESTART OPTIONS
 READ_INT:   F
 WRITE_INT:  F
 READ_TA:    F
 WRITE_TA:   F
 READ_XA:    F
 WRITE_XA:   F
 READ_IN3:   F
 WRITE_IN3:  F
 SLICE:      F
 D4D5:       F
 quantumc:   F
 qrotation:  F
 pwtce:      F
 qducc:      T
 nacto:                         0
 nrotv:                         0
 nrot:                          0

            Memory Information
            ------------------
          Available GA space size is    1610607836 doubles
          Available MA space size is    1610610644 doubles

 Maximum block size        32 doubles

 tile_dim =     23

 Block   Spin    Irrep     Size     Offset   Alpha
 -------------------------------------------------
   1    alpha     a      1 doubles       0       1
   2    beta      a      1 doubles       1       1
   3    alpha     a     23 doubles       2       3
   4    alpha     a     23 doubles      25       4
   5    alpha     a     23 doubles      48       5
   6    beta      a     23 doubles      71       3
   7    beta      a     23 doubles      94       4
   8    beta      a     23 doubles     117       5

 Global array virtual files algorithm will be used

 Parallel file system coherency ......... OK

 Integral file          = ./H2.aoints.0
 Record size in doubles =  65536        No. of integs per rec  =  43688
 Max. records in memory =     99        Max. records in file   = 280182
 No. of bits per label  =      8        No. of bits per value  =     64


 #quartets = 1.764D+04 #integrals = 4.378D+05 #direct =  0.0% #cached =100.0%


 Fock matrix recomputed
 1-e file size   =             4900
 1-e file name   = ./H2.f1
 Cpu & wall time / sec            0.0            0.0
 4-electron integrals stored in orbital form

 v2    file size   =          6102085
 4-index algorithm nr.  13 is used
 imaxsize =       30
 imaxsize ichop =        0
 Cpu & wall time / sec            1.9            1.9
 T1-number-of-tasks                    3

 t1 file size   =               69
 t1 file name   = ./H2.t1
 t1 file handle =       -998
 T2-number-of-boxes                   15

 t2 file size   =             7935
 t2 file name   = ./H2.t2
 t2 file handle =       -996
CCSD iterations
 ---------------------------------------------------------
 Iter          Residuum       Correlation     Cpu    Wall 
 ---------------------------------------------------------
NEW TASK SCHEDULING
CCSD_T1_NTS --- OK
CCSD_T2_NTS --- OK
    1   1.3654639911481  -0.4208853204636     0.1     0.1
    2   1.1012894681319  -0.4296320266100     0.1     0.1
    3   0.8342005608342  -0.2936500433413     0.1     0.1
    4   0.9763852892614  -0.3025654335502     0.1     0.1
    5   1.2315818161697  -0.2494531191945     0.1     0.1
 MICROCYCLE DIIS UPDATE:                    5                    5
    6   0.1312337484924  -0.2422682814559     0.1     0.1
    7   0.0917736610050  -0.2376371071985     0.1     0.1
    8   0.0813319577145  -0.2294178349550     0.2     0.2
    9   0.0826453625133  -0.2268119419158     0.2     0.2
   10   0.0882240641433  -0.2195576203604     0.0     0.1
 MICROCYCLE DIIS UPDATE:                   10                    5
   11   0.0136870182215  -0.2097342485458     0.1     0.1
   12   0.0092274879908  -0.2090487563995     0.1     0.1
   13   0.0085737142997  -0.2081498275732     0.1     0.1
   14   0.0099109298046  -0.2078811536356     0.1     0.1
   15   0.0123255087051  -0.2072864193950     0.1     0.1
 MICROCYCLE DIIS UPDATE:                   15                    5
   16   0.0019516605419  -0.2063060513369     0.1     0.1
   17   0.0010950055008  -0.2062200771339     0.1     0.1
   18   0.0008337805137  -0.2062029334963     0.1     0.1
   19   0.0006230314361  -0.2061254428440     0.1     0.1
   20   0.0005172347992  -0.2061080990132     0.1     0.1
 MICROCYCLE DIIS UPDATE:                   20                    5
   21   0.0002475699870  -0.2059844433808     0.1     0.1
   22   0.0001806034199  -0.2059639271226     0.1     0.1
   23   0.0001690426856  -0.2059542204611     0.1     0.1
   24   0.0001692115323  -0.2059388527731     0.1     0.1
   25   0.0001862304829  -0.2059391465082     0.1     0.1
 MICROCYCLE DIIS UPDATE:                   25                    5
   26   0.0000439635773  -0.2059142752359     0.1     0.1
   27   0.0000308791224  -0.2059130086178     0.1     0.1
   28   0.0000277220621  -0.2059114313883     0.1     0.1
   29   0.0000301373192  -0.2059102971318     0.1     0.1
   30   0.0000354733303  -0.2059090344528     0.1     0.1
 MICROCYCLE DIIS UPDATE:                   30                    5
   31   0.0000068242193  -0.2059061611579     0.1     0.1
   32   0.0000045038384  -0.2059054144109     0.1     0.1
   33   0.0000037713850  -0.2059053035580     0.1     0.1
   34   0.0000031830100  -0.2059048024912     0.1     0.1
   35   0.0000032261619  -0.2059048496408     0.1     0.1
 MICROCYCLE DIIS UPDATE:                   35                    5
   36   0.0000011268711  -0.2059041719937     0.1     0.1
   37   0.0000008913893  -0.2059041578991     0.0     0.1
   38   0.0000008509127  -0.2059041017002     0.1     0.1
   39   0.0000009661877  -0.2059040827653     0.1     0.1
   40   0.0000011526124  -0.2059040383878     0.1     0.1
 MICROCYCLE DIIS UPDATE:                   40                    5
   41   0.0000001945737  -0.2059039772552     0.1     0.1
   42   0.0000001247592  -0.2059039582553     0.1     0.1
   43   0.0000000984679  -0.2059039510673     0.1     0.1
 -----------------------------------------------------------------
 Iterations converged
 CCSD correlation energy / hartree =        -0.205903951067310
 CCSD total energy / hartree       =        -1.000558083579264

 Singles contributions

 Doubles contributions
     2a   (alpha)     2a   (beta ) ---     1a   (alpha)     1a   (beta )       -0.8901821734
 Ground state specification:
 exp(T)|Ref>~(1+T)|Ref>
 ------- a(p)+/a(q) strings ----------

 singles norm

 doubles norm

 Reference string
  0.74692945874017824      :(1a)+ (1b)+ |0>

 Singles strings

 Doubles strings
 -0.66490328895720208      :(2a)+ (2b)+ (1b)  (1a)  (1a)+ (1b)+ |0>
 -------------------------------------
 enrep_tce =   0.16528925619834706     
  EHF(total)         =        -0.79465413
  Shift (HFtot-HFA)  =         0.00000000
 ALL OCCUPIED ORBITALS ARE ACTIVE IN DUCC --> NO SHIFT
 Number of active orbitals                   10
 Number of active alpha electrons                    1
 Number of active beta electrons                    1
  nos                     2
  nvs                   138
 noas                     1
 nobs                     1
 nvas                    69
 nvbs                    69
 nactv                     9
 DUCC MODEL =                     6
 NONHF =  T
 F-T1 correlation    =    1.8664745834139135E-005
 V-T1-T1 correlation =    7.3327232722434027E-010
 V-T2 correlation    =  -0.20592261654640043     
 Total correlation   =  -0.20590395106729395     
 F-T1(Ext) correlation         =   -8.6158685495665489E-008
 V-T1(Ext)-T1(Ext) correlation =    2.3079502941894979E-011
 V-T2(Ext) correlation         =   -5.2265100555208103E-005
 Total Ext correlation         =   -5.2351236161200825E-005
1-BODY TIME =   31.095 SECONDS.
  HHHH TIME =   24.673 SECONDS.
  PPPP TIME =   37.970 SECONDS.
  HHHP TIME =    2.544 SECONDS.
  PPPH TIME =    2.722 SECONDS.
  HPHP TIME =    4.296 SECONDS.
  HHPP TIME =    2.379 SECONDS.
 ONE-BODY UNITARY CHECK
 TWO-BODY UNITARY CHECK
 TWO-BODY ANTISYMMETRY CHECK
 TRANSFORMED ~FOCK~ MATRIX
    1    1        -0.2860202993
    1    3         0.0186802698
    1    6         0.0853534600
    1    8        -0.0306380565
    2    2        -0.0957252912
    2    7         0.0818672048
    2    8         0.0000000003
    3    1         0.0186802698
    3    3         0.4903496358
    3    6        -0.0804545434
    3    7         0.0000000007
    3    8        -0.2497084183
    4    4         0.5741632145
    5    5         0.5741632145
    6    1         0.0853534600
    6    3        -0.0804545434
    6    6         0.8127717128
    6    7        -0.0000000018
    6    8         0.2982732144
    7    2         0.0818672048
    7    3         0.0000000007
    7    6        -0.0000000018
    7    7         1.4654642263
    7    8        -0.0000000018
    8    1        -0.0306380565
    8    2         0.0000000003
    8    3        -0.2497084183
    8    6         0.2982732144
    8    7        -0.0000000018
    8    8         2.1218923825
    9    9         1.4006099322
   10   10         1.4006099323
 begin_one_electron_integrals
    1    1        -0.6740152365
    1    3         0.0330667545
    1    6        -0.0004663620
    1    8        -0.0011561884
    2    2        -0.6557338247
    2    7        -0.0029950689
    3    1         0.0330667545
    3    3        -0.1060425238
    3    6        -0.0869875357
    3    7         0.0000000004
    3    8        -0.1604354187
    4    4        -0.0220486918
    5    5        -0.0220486918
    6    1        -0.0004663620
    6    3        -0.0869875357
    6    6         0.1543632510
    6    7        -0.0000000015
    6    8         0.2909492279
    7    2        -0.0029950689
    7    3         0.0000000004
    7    6        -0.0000000015
    7    7         0.7244176037
    7    8        -0.0000000020
    8    1        -0.0011561884
    8    3        -0.1604354187
    8    6         0.2909492279
    8    7        -0.0000000020
    8    8         1.4029940959
    9    9         0.6533422696
   10   10         0.6533422696
 end_one_electron_integrals
 begin_two_electron_integrals
    1    1    1    1        0.3879949372
    1    1    1    3       -0.0143864847
    1    1    1    6        0.0858198220
    1    1    1    8       -0.0294818681
    1    2    1    2        0.2300183159
    1    2    1    7        0.0701982950
    1    2    1    8        0.0000000002
    1    3    1    1       -0.0143864847
    1    3    1    3        0.0435389743
    1    3    1    6       -0.0022495310
    1    3    1    8       -0.0145612135
    1    4    1    4        0.0416563135
    1    5    1    5        0.0416563135
    1    6    1    1        0.0858198220
    1    6    1    3       -0.0022495310
    1    6    1    6        0.0652493552
    1    6    1    8       -0.0184121490
    1    7    1    2        0.0701982950
    1    7    1    7        0.0652940370
    1    7    1    8        0.0000000001
    1    8    1    1       -0.0294818681
    1    8    1    2        0.0000000002
    1    8    1    3       -0.0145612135
    1    8    1    6       -0.0184121490
    1    8    1    7        0.0000000001
    1    8    1    8        0.0328757445
    1    9    1    9        0.0571655773
    1   10    1   10        0.0571655773
    1    1    2    2        0.3950369230
    1    1    2    7        0.0776050578
    1    1    2    8        0.0000000003
    1    2    2    1        0.2300653124
    1    2    2    3        0.0211376630
    1    2    2    6        0.0961874367
    1    2    2    8       -0.0348757876
    1    3    2    2       -0.0101512290
    1    3    2    7       -0.0109877055
    1    3    2    8       -0.0000000002
    1    4    2    9        0.0091677175
    1    4    2   10       -0.0467722396
    1    5    2    9       -0.0467722396
    1    5    2   10       -0.0091677175
    1    6    2    2        0.0915935625
    1    6    2    7        0.0657449801
    1    6    2    8        0.0000000002
    1    7    2    1        0.0703478420
    1    7    2    3       -0.0078912921
    1    7    2    6        0.0654291751
    1    7    2    7       -0.0000000001
    1    7    2    8       -0.0155389953
    1    8    2    1        0.0000000002
    1    8    2    2       -0.0327544590
    1    8    2    3       -0.0000000001
    1    8    2    6        0.0000000002
    1    8    2    7       -0.0145862171
    1    9    2    4        0.0083771753
    1    9    2    5       -0.0427390186
    1   10    2    4       -0.0427390186
    1   10    2    5       -0.0083771753
    1    1    3    1       -0.0143864847
    1    1    3    3        0.3198766718
    1    1    3    6        0.0021373534
    1    1    3    7        0.0000000002
    1    1    3    8       -0.0519470104
    1    2    3    2        0.0211412649
    1    2    3    3       -0.0000000003
    1    2    3    6       -0.0000000001
    1    2    3    7       -0.0320011984
    1    2    3    8       -0.0000000005
    1    3    3    1        0.0433611840
    1    3    3    3       -0.0347629134
    1    3    3    6       -0.0101568386
    1    3    3    8        0.0346799539
    1    4    3    4       -0.0072057086
    1    5    3    5       -0.0072057086
    1    6    3    1       -0.0022582856
    1    6    3    3        0.0331617414
    1    6    3    6       -0.0096292933
    1    6    3    7        0.0000000001
    1    6    3    8       -0.0269524033
    1    7    3    2       -0.0079224332
    1    7    3    7       -0.0145315870
    1    8    3    1       -0.0146210211
    1    8    3    2       -0.0000000001
    1    8    3    3        0.0082425120
    1    8    3    6       -0.0055209962
    1    8    3    8       -0.0076007840
    1    9    3    9       -0.0103324043
    1   10    3   10       -0.0103324043
    1    1    4    4        0.3189036111
    1    2    4    9        0.0300218267
    1    2    4   10       -0.1531665949
    1    3    4    4       -0.0244879066
    1    4    4    1        0.0415953159
    1    4    4    3       -0.0072057348
    1    4    4    6       -0.0155150858
    1    4    4    8       -0.0051744885
    1    6    4    4        0.0328789955
    1    7    4    9        0.0068895900
    1    7    4   10       -0.0351495945
    1    8    4    4       -0.0111373633
    1    8    4   10       -0.0000000001
    1    9    4    2        0.0083835797
    1    9    4    7       -0.0022820392
    1   10    4    2       -0.0427716932
    1   10    4    7        0.0116426016
    1    1    5    5        0.3189036111
    1    2    5    9       -0.1531665949
    1    2    5   10       -0.0300218267
    1    3    5    5       -0.0244879066
    1    5    5    1        0.0415953159
    1    5    5    3       -0.0072057348
    1    5    5    6       -0.0155150858
    1    5    5    8       -0.0051744885
    1    6    5    5        0.0328789955
    1    7    5    9       -0.0351495945
    1    7    5   10       -0.0068895900
    1    8    5    5       -0.0111373633
    1    8    5    9       -0.0000000001
    1    9    5    2       -0.0427716932
    1    9    5    7        0.0116426016
    1   10    5    2       -0.0083835797
    1   10    5    7        0.0022820392
    1    1    6    1        0.0858198220
    1    1    6    3        0.0021373534
    1    1    6    6        0.3618535766
    1    1    6    7       -0.0000000002
    1    1    6    8       -0.0055772079
    1    2    6    2        0.0961862440
    1    2    6    3       -0.0000000001
    1    2    6    6        0.0000000002
    1    2    6    7        0.1968434159
    1    2    6    8        0.0000000006
    1    3    6    1       -0.0022582856
    1    3    6    3       -0.0101563944
    1    3    6    6       -0.0326766834
    1    3    6    8       -0.0280810664
    1    4    6    4       -0.0155181926
    1    5    6    5       -0.0155181926
    1    6    6    1        0.0652986913
    1    6    6    3       -0.0096365718
    1    6    6    6        0.0810645187
    1    6    6    8       -0.0135604517
    1    7    6    2        0.0654379091
    1    7    6    7        0.0828051648
    1    7    6    8        0.0000000002
    1    8    6    1       -0.0184784023
    1    8    6    2        0.0000000002
    1    8    6    3       -0.0055205289
    1    8    6    6       -0.0221357387
    1    8    6    7        0.0000000002
    1    8    6    8        0.0254390099
    1    9    6    9        0.0174323107
    1   10    6   10        0.0174323107
    1    1    7    2        0.0776050578
    1    1    7    3        0.0000000002
    1    1    7    6       -0.0000000002
    1    1    7    7        0.4031835020
    1    1    7    8        0.0000000002
    1    2    7    1        0.0703478420
    1    2    7    3       -0.0320292063
    1    2    7    6        0.1968427620
    1    2    7    7       -0.0000000007
    1    2    7    8       -0.0079630113
    1    3    7    2       -0.0110468130
    1    3    7    7       -0.0367141374
    1    3    7    8        0.0000000001
    1    4    7    9       -0.0002468901
    1    4    7   10        0.0012595942
    1    5    7    9        0.0012595942
    1    5    7   10        0.0002468901
    1    6    7    2        0.0657530384
    1    6    7    3        0.0000000001
    1    6    7    7        0.1069757795
    1    6    7    8        0.0000000002
    1    7    7    1        0.0653203813
    1    7    7    2       -0.0000000001
    1    7    7    3       -0.0145198064
    1    7    7    6        0.0828161389
    1    7    7    7       -0.0000000003
    1    7    7    8       -0.0060276683
    1    8    7    1        0.0000000001
    1    8    7    2       -0.0145524773
    1    8    7    6        0.0000000002
    1    8    7    7       -0.0252063944
    1    9    7    4       -0.0022832956
    1    9    7    5        0.0116490115
    1   10    7    4        0.0116490115
    1   10    7    5        0.0022832956
    1    1    8    1       -0.0294818681
    1    1    8    2        0.0000000003
    1    1    8    3       -0.0519470104
    1    1    8    6       -0.0055772079
    1    1    8    7        0.0000000002
    1    1    8    8        0.3759090370
    1    2    8    1        0.0000000002
    1    2    8    2       -0.0348823535
    1    2    8    3       -0.0000000005
    1    2    8    6        0.0000000006
    1    2    8    7       -0.0079741994
    1    2    8    8        0.0000000002
    1    3    8    1       -0.0146210211
    1    3    8    2       -0.0000000002
    1    3    8    3        0.0346779229
    1    3    8    6       -0.0280808296
    1    3    8    7        0.0000000001
    1    3    8    8       -0.0401749470
    1    4    8    4       -0.0051749592
    1    5    8    5       -0.0051749592
    1    6    8    1       -0.0184784023
    1    6    8    2        0.0000000002
    1    6    8    3       -0.0269516985
    1    6    8    6       -0.0135592198
    1    6    8    7        0.0000000002
    1    6    8    8        0.0796333900
    1    7    8    1        0.0000000001
    1    7    8    2       -0.0155164491
    1    7    8    6        0.0000000002
    1    7    8    7       -0.0060152340
    1    7    8    8        0.0000000001
    1    8    8    1        0.0329197874
    1    8    8    3       -0.0076031371
    1    8    8    6        0.0254386844
    1    8    8    8        0.0060542707
    1    9    8    9       -0.0109476495
    1   10    8   10       -0.0109476495
    1    1    9    9        0.4026571133
    1    2    9    4        0.0300222259
    1    2    9    5       -0.1531686318
    1    3    9    9       -0.0357382844
    1    4    9    2        0.0091745177
    1    4    9    7       -0.0002489793
    1    5    9    2       -0.0468069331
    1    5    9    7        0.0012702530
    1    6    9    9        0.0856403334
    1    7    9    4        0.0068862463
    1    7    9    5       -0.0351325356
    1    8    9    5       -0.0000000001
    1    8    9    9       -0.0232889664
    1    9    9    1        0.0580465640
    1    9    9    3       -0.0103269291
    1    9    9    6        0.0174180663
    1    9    9    8       -0.0109440016
    1    1   10   10        0.4026571133
    1    2   10    4       -0.1531686318
    1    2   10    5       -0.0300222259
    1    3   10   10       -0.0357382844
    1    4   10    2       -0.0468069331
    1    4   10    7        0.0012702530
    1    5   10    2       -0.0091745177
    1    5   10    7        0.0002489793
    1    6   10   10        0.0856403334
    1    7   10    4       -0.0351325356
    1    7   10    5       -0.0068862463
    1    8   10    4       -0.0000000001
    1    8   10   10       -0.0232889664
    1   10   10    1        0.0580465640
    1   10   10    3       -0.0103269291
    1   10   10    6        0.0174180663
    1   10   10    8       -0.0109440016
    2    1    1    2        0.2300653124
    2    1    1    7        0.0703478420
    2    1    1    8        0.0000000002
    2    2    1    1        0.3950369230
    2    2    1    3       -0.0101512290
    2    2    1    6        0.0915935625
    2    2    1    8       -0.0327544590
    2    3    1    2        0.0211376630
    2    3    1    7       -0.0078912921
    2    3    1    8       -0.0000000001
    2    4    1    9        0.0083771753
    2    4    1   10       -0.0427390186
    2    5    1    9       -0.0427390186
    2    5    1   10       -0.0083771753
    2    6    1    2        0.0961874367
    2    6    1    7        0.0654291751
    2    6    1    8        0.0000000002
    2    7    1    1        0.0776050578
    2    7    1    3       -0.0109877055
    2    7    1    6        0.0657449801
    2    7    1    7       -0.0000000001
    2    7    1    8       -0.0145862171
    2    8    1    1        0.0000000003
    2    8    1    2       -0.0348757876
    2    8    1    3       -0.0000000002
    2    8    1    6        0.0000000002
    2    8    1    7       -0.0155389953
    2    9    1    4        0.0091677175
    2    9    1    5       -0.0467722396
    2   10    1    4       -0.0467722396
    2   10    1    5       -0.0091677175
    2    1    2    1        0.2300183159
    2    1    2    3        0.0211412649
    2    1    2    6        0.0961862440
    2    1    2    8       -0.0348823535
    2    2    2    2        0.4030457425
    2    2    2    7        0.0821323470
    2    2    2    8        0.0000000002
    2    3    2    1        0.0211412649
    2    3    2    3        0.0323490259
    2    3    2    6       -0.0015593229
    2    3    2    8       -0.0137107647
    2    4    2    4        0.0369267681
    2    5    2    5        0.0369267681
    2    6    2    1        0.0961862440
    2    6    2    3       -0.0015593229
    2    6    2    6        0.0708891221
    2    6    2    8       -0.0212178338
    2    7    2    2        0.0821323470
    2    7    2    7        0.0708159488
    2    7    2    8        0.0000000002
    2    8    2    1       -0.0348823535
    2    8    2    2        0.0000000002
    2    8    2    3       -0.0137107647
    2    8    2    6       -0.0212178338
    2    8    2    7        0.0000000002
    2    8    2    8        0.0342902900
    2    9    2    9        0.0633258393
    2   10    2   10        0.0633258393
    2    1    3    2        0.0211376630
    2    1    3    3       -0.0000000003
    2    1    3    6       -0.0000000001
    2    1    3    7       -0.0320292063
    2    1    3    8       -0.0000000005
    2    2    3    1       -0.0101512290
    2    2    3    3        0.3189918809
    2    2    3    6       -0.0003310371
    2    2    3    7        0.0000000002
    2    2    3    8       -0.0512800939
    2    3    3    2        0.0323490274
    2    3    3    7       -0.0055437539
    2    3    3    8       -0.0000000001
    2    4    3    9       -0.0014175489
    2    4    3   10        0.0072321097
    2    5    3    9        0.0072321097
    2    5    3   10        0.0014175489
    2    6    3    2       -0.0015593232
    2    6    3    7       -0.0161858145
    2    6    3    8       -0.0000000002
    2    7    3    1       -0.0110468130
    2    7    3    3        0.0309798195
    2    7    3    6       -0.0084757430
    2    7    3    7        0.0000000001
    2    7    3    8       -0.0299972978
    2    8    3    1       -0.0000000002
    2    8    3    2       -0.0137107649
    2    8    3    3        0.0000000002
    2    8    3    7       -0.0026633485
    2    8    3    8       -0.0000000002
    2    9    3    4       -0.0016301711
    2    9    3    5        0.0083168744
    2   10    3    4        0.0083168744
    2   10    3    5        0.0016301711
    2    1    4    9        0.0300222259
    2    1    4   10       -0.1531686318
    2    2    4    4        0.3206033024
    2    3    4    9        0.0003391076
    2    3    4   10       -0.0017300731
    2    4    4    2        0.0369267687
    2    4    4    7       -0.0167356880
    2    6    4    9        0.0104232431
    2    6    4   10       -0.0531777319
    2    7    4    4        0.0267796922
    2    8    4    4        0.0000000002
    2    8    4    9       -0.0031550570
    2    8    4   10        0.0160966000
    2    9    4    1        0.0091745177
    2    9    4    3       -0.0016301712
    2    9    4    6       -0.0015519382
    2    9    4    8       -0.0013632543
    2   10    4    1       -0.0468069331
    2   10    4    3        0.0083168748
    2   10    4    6        0.0079177423
    2   10    4    8        0.0069551072
    2    1    5    9       -0.1531686318
    2    1    5   10       -0.0300222259
    2    2    5    5        0.3206033024
    2    3    5    9       -0.0017300731
    2    3    5   10       -0.0003391076
    2    5    5    2        0.0369267687
    2    5    5    7       -0.0167356880
    2    6    5    9       -0.0531777319
    2    6    5   10       -0.0104232431
    2    7    5    5        0.0267796922
    2    8    5    5        0.0000000002
    2    8    5    9        0.0160966000
    2    8    5   10        0.0031550570
    2    9    5    1       -0.0468069331
    2    9    5    3        0.0083168748
    2    9    5    6        0.0079177423
    2    9    5    8        0.0069551072
    2   10    5    1       -0.0091745177
    2   10    5    3        0.0016301712
    2   10    5    6        0.0015519382
    2   10    5    8        0.0013632543
    2    1    6    2        0.0961874367
    2    1    6    3       -0.0000000001
    2    1    6    6        0.0000000002
    2    1    6    7        0.1968427620
    2    1    6    8        0.0000000006
    2    2    6    1        0.0915935625
    2    2    6    3       -0.0003310371
    2    2    6    6        0.3658548842
    2    2    6    7       -0.0000000001
    2    2    6    8       -0.0094122048
    2    3    6    2       -0.0015593232
    2    3    6    7        0.0003694614
    2    4    6    9        0.0014760467
    2    4    6   10       -0.0075305560
    2    5    6    9       -0.0075305560
    2    5    6   10       -0.0014760467
    2    6    6    2        0.0708891224
    2    6    6    6        0.0000000002
    2    6    6    7        0.0980626465
    2    6    6    8        0.0000000004
    2    7    6    1        0.0657530384
    2    7    6    3       -0.0084757437
    2    7    6    6        0.0827312682
    2    7    6    8       -0.0089980645
    2    8    6    1        0.0000000002
    2    8    6    2       -0.0212178336
    2    8    6    6        0.0000000003
    2    8    6    7       -0.0261542920
    2    9    6    4       -0.0015519381
    2    9    6    5        0.0079177417
    2   10    6    4        0.0079177417
    2   10    6    5        0.0015519381
    2    1    7    1        0.0701982950
    2    1    7    3       -0.0320011984
    2    1    7    6        0.1968434159
    2    1    7    7       -0.0000000007
    2    1    7    8       -0.0079741994
    2    2    7    2        0.0821323470
    2    2    7    3        0.0000000002
    2    2    7    6       -0.0000000001
    2    2    7    7        0.4096179030
    2    2    7    8        0.0000000002
    2    3    7    1       -0.0079224332
    2    3    7    3       -0.0055437497
    2    3    7    6        0.0003694620
    2    3    7    7        0.0000000001
    2    3    7    8       -0.0189006344
    2    4    7    4       -0.0167356860
    2    5    7    5       -0.0167356860
    2    6    7    1        0.0654379091
    2    6    7    3       -0.0161858147
    2    6    7    6        0.0980626474
    2    6    7    7       -0.0000000002
    2    6    7    8       -0.0083714575
    2    7    7    1       -0.0000000001
    2    7    7    2        0.0708159594
    2    7    7    3        0.0000000001
    2    7    7    7        0.1089523799
    2    8    7    1       -0.0155164491
    2    8    7    2        0.0000000002
    2    8    7    3       -0.0026633507
    2    8    7    6       -0.0261542910
    2    8    7    7        0.0000000004
    2    8    7    8        0.0235731563
    2    9    7    9        0.0085431153
    2   10    7   10        0.0085431153
    2    1    8    1        0.0000000002
    2    1    8    2       -0.0348757876
    2    1    8    3       -0.0000000005
    2    1    8    6        0.0000000006
    2    1    8    7       -0.0079630113
    2    1    8    8        0.0000000002
    2    2    8    1       -0.0327544590
    2    2    8    2        0.0000000002
    2    2    8    3       -0.0512800939
    2    2    8    6       -0.0094122048
    2    2    8    7        0.0000000002
    2    2    8    8        0.3792857713
    2    3    8    1       -0.0000000001
    2    3    8    2       -0.0137107649
    2    3    8    3       -0.0000000001
    2    3    8    7       -0.0189006318
    2    3    8    8       -0.0000000003
    2    4    8    9       -0.0015942369
    2    4    8   10        0.0081335436
    2    5    8    9        0.0081335436
    2    5    8   10        0.0015942369
    2    6    8    1        0.0000000002
    2    6    8    2       -0.0212178336
    2    6    8    3       -0.0000000002
    2    6    8    6        0.0000000004
    2    6    8    7       -0.0083714588
    2    6    8    8        0.0000000003
    2    7    8    1       -0.0145524773
    2    7    8    2        0.0000000002
    2    7    8    3       -0.0299972974
    2    7    8    6       -0.0089980648
    2    7    8    8        0.0772246708
    2    8    8    2        0.0342902911
    2    8    8    3       -0.0000000002
    2    8    8    7        0.0235731528
    2    8    8    8        0.0000000005
    2    9    8    4       -0.0013632547
    2    9    8    5        0.0069551091
    2   10    8    4        0.0069551091
    2   10    8    5        0.0013632547
    2    1    9    4        0.0300218267
    2    1    9    5       -0.1531665949
    2    2    9    9        0.4084287958
    2    3    9    4        0.0003391074
    2    3    9    5       -0.0017300723
    2    4    9    1        0.0083835797
    2    4    9    3       -0.0014175492
    2    4    9    6        0.0014760466
    2    4    9    8       -0.0015942366
    2    5    9    1       -0.0427716932
    2    5    9    3        0.0072321109
    2    5    9    6       -0.0075305554
    2    5    9    8        0.0081335420
    2    6    9    4        0.0104232431
    2    6    9    5       -0.0531777319
    2    7    9    9        0.0782737593
    2    8    9    4       -0.0031550571
    2    8    9    5        0.0160966003
    2    8    9    9        0.0000000003
    2    9    9    2        0.0633258430
    2    9    9    7        0.0085431152
    2    1   10    4       -0.1531665949
    2    1   10    5       -0.0300218267
    2    2   10   10        0.4084287958
    2    3   10    4       -0.0017300723
    2    3   10    5       -0.0003391074
    2    4   10    1       -0.0427716932
    2    4   10    3        0.0072321109
    2    4   10    6       -0.0075305554
    2    4   10    8        0.0081335420
    2    5   10    1       -0.0083835797
    2    5   10    3        0.0014175492
    2    5   10    6       -0.0014760466
    2    5   10    8        0.0015942366
    2    6   10    4       -0.0531777319
    2    6   10    5       -0.0104232431
    2    7   10   10        0.0782737593
    2    8   10    4        0.0160966003
    2    8   10    5        0.0031550571
    2    8   10   10        0.0000000003
    2   10   10    2        0.0633258430
    2   10   10    7        0.0085431152
    3    1    1    1       -0.0143864847
    3    1    1    3        0.0433611840
    3    1    1    6       -0.0022582856
    3    1    1    8       -0.0146210211
    3    2    1    2        0.0211412649
    3    2    1    7       -0.0079224332
    3    2    1    8       -0.0000000001
    3    3    1    1        0.3198766718
    3    3    1    2       -0.0000000003
    3    3    1    3       -0.0347629134
    3    3    1    6        0.0331617414
    3    3    1    8        0.0082425120
    3    4    1    4       -0.0072057086
    3    5    1    5       -0.0072057086
[...]
    9    6    2    4        0.0014760466
    9    6    2    5       -0.0075305554
    9    7    2    9        0.0085431152
    9    8    2    4       -0.0015942366
    9    8    2    5        0.0081335420
    9    9    2    2        0.4084287958
    9    9    2    7        0.0782737593
    9    9    2    8        0.0000000003
    9    1    3    9       -0.0103269291
    9    2    3    4       -0.0016301712
    9    2    3    5        0.0083168748
    9    3    3    9        0.0115144363
    9    4    3    2        0.0003391076
    9    4    3    7       -0.0036569231
    9    5    3    2       -0.0017300731
    9    5    3    3        0.0000000002
    9    5    3    7        0.0186570412
    9    5    3    8        0.0000000004
    9    6    3    9       -0.0034937304
    9    7    3    4       -0.0001471174
    9    7    3    5        0.0007505697
    9    8    3    9       -0.0073671390
    9    9    3    1       -0.0357382844
    9    9    3    3        0.3343053717
    9    9    3    6        0.0021135174
    9    9    3    7        0.0000000002
    9    9    3    8       -0.0701471835
    9    1    4    2        0.0083771753
    9    1    4    7       -0.0022832956
    9    2    4    1        0.0091677175
    9    2    4    3       -0.0016301711
    9    2    4    6       -0.0015519381
    9    2    4    8       -0.0013632547
    9    3    4    2       -0.0014175489
    9    3    4    7        0.0002965003
    9    4    4    9        0.0158308485
    9    4    4   10       -0.0232319612
    9    5    4    9       -0.0232319612
    9    5    4   10        0.1072485634
    9    6    4    2        0.0014760467
    9    6    4    7        0.0015672490
    9    7    4    1       -0.0002468901
    9    7    4    3       -0.0001471195
    9    7    4    6        0.0023719372
    9    7    4    8        0.0003207321
    9    8    4    2       -0.0015942369
    9    8    4    7        0.0007506392
    9    9    4    4        0.3317289941
    9    9    4    5       -0.0051510064
    9   10    4    4       -0.0051510064
    9   10    4    5        0.0126349854
    9    1    5    2       -0.0427390186
    9    1    5    7        0.0116490115
    9    2    5    1       -0.0467722396
    9    2    5    3        0.0083168744
    9    2    5    6        0.0079177417
    9    2    5    8        0.0069551091
    9    3    5    2        0.0072321097
    9    3    5    7       -0.0015126974
    9    4    5    9       -0.0232319612
    9    4    5   10        0.0067235731
    9    5    5    9        0.1298029851
    9    5    5   10        0.0232319612
    9    6    5    2       -0.0075305560
    9    6    5    7       -0.0079958558
    9    7    5    1        0.0012595942
    9    7    5    3        0.0007505801
    9    7    5    6       -0.0121012472
    9    7    5    8       -0.0016363242
    9    8    5    2        0.0081335436
    9    8    5    7       -0.0038296421
    9    9    5    4       -0.0051510064
    9    9    5    5        0.3569989745
    9   10    5    4        0.0126349949
    9   10    5    5        0.0051510064
    9    1    6    9        0.0174180663
    9    2    6    4       -0.0015519382
    9    2    6    5        0.0079177423
    9    3    6    9       -0.0034937304
    9    4    6    2        0.0104232431
    9    4    6    7        0.0255361440
    9    5    6    2       -0.0531777319
    9    5    6    6       -0.0000000001
    9    5    6    7       -0.1302813538
    9    5    6    8       -0.0000000004
    9    6    6    9        0.0149940604
    9    7    6    4        0.0023719366
    9    7    6    5       -0.0121012442
    9    8    6    9       -0.0018781174
    9    9    6    1        0.0856403334
    9    9    6    3        0.0021135174
    9    9    6    6        0.3750483020
    9    9    6    7       -0.0000000002
    9    9    6    8        0.0109085364
    9    1    7    4       -0.0022820392
    9    1    7    5        0.0116426016
    9    2    7    9        0.0085431152
    9    3    7    4        0.0002965027
    9    3    7    5       -0.0015127099
    9    4    7    1        0.0068895900
    9    4    7    3       -0.0036569227
    9    4    7    6        0.0255361443
    9    4    7    7       -0.0000000001
    9    4    7    8        0.0015483646
    9    5    7    1       -0.0351495945
    9    5    7    3        0.0186570391
    9    5    7    6       -0.1302813556
    9    5    7    7        0.0000000005
    9    5    7    8       -0.0078995104
    9    6    7    4        0.0015672488
    9    6    7    5       -0.0079958546
    9    7    7    9        0.0175757287
    9    8    7    4        0.0007506390
    9    8    7    5       -0.0038296409
    9    9    7    2        0.0782737593
    9    9    7    3        0.0000000002
    9    9    7    6       -0.0000000002
    9    9    7    7        0.4209282216
    9    9    7    8        0.0000000001
    9    1    8    9       -0.0109440016
    9    2    8    4       -0.0013632543
    9    2    8    5        0.0069551072
    9    3    8    9       -0.0073671390
    9    4    8    2       -0.0031550570
    9    4    8    7        0.0015483642
    9    5    8    1       -0.0000000001
    9    5    8    2        0.0160966000
    9    5    8    3        0.0000000004
    9    5    8    6       -0.0000000004
    9    5    8    7       -0.0078995083
    9    5    8    8       -0.0000000003
    9    6    8    9       -0.0018781174
    9    7    8    4        0.0003207314
    9    7    8    5       -0.0016363208
    9    8    8    9        0.0154759493
    9    9    8    1       -0.0232889664
    9    9    8    2        0.0000000003
    9    9    8    3       -0.0701471835
    9    9    8    6        0.0109085364
    9    9    8    7        0.0000000001
    9    9    8    8        0.3959740453
    9    1    9    1        0.0571655773
    9    1    9    3       -0.0103324043
    9    1    9    6        0.0174323107
    9    1    9    8       -0.0109476495
    9    2    9    2        0.0633258393
    9    2    9    7        0.0085431153
    9    3    9    1       -0.0103324043
    9    3    9    3        0.0115144342
    9    3    9    6       -0.0034937318
    9    3    9    8       -0.0073671398
    9    4    9    4        0.0158308429
    9    4    9    5       -0.0232319585
    9    5    9    4       -0.0232319585
    9    5    9    5        0.1298029659
    9    6    9    1        0.0174323107
    9    6    9    3       -0.0034937318
    9    6    9    6        0.0149940541
    9    6    9    8       -0.0018781181
    9    7    9    2        0.0085431153
    9    7    9    7        0.0175757144
    9    8    9    1       -0.0109476495
    9    8    9    3       -0.0073671398
    9    8    9    6       -0.0018781181
    9    8    9    8        0.0154759479
    9    9    9    9        0.4667384407
    9   10    9   10        0.0220911279
    9    4   10    4       -0.0232319584
    9    4   10    5        0.0067235616
    9    5   10    4        0.1072485614
    9    5   10    5        0.0232319584
    9    9   10   10        0.4225561962
    9   10   10    9        0.0220911168
   10    1    1   10        0.0580465640
   10    2    1    4       -0.0468069331
   10    2    1    5       -0.0091745177
   10    3    1   10       -0.0103269291
   10    4    1    2       -0.1531686318
   10    4    1    7       -0.0351325356
   10    4    1    8       -0.0000000001
   10    5    1    2       -0.0300222259
   10    5    1    7       -0.0068862463
   10    6    1   10        0.0174180663
   10    7    1    4        0.0012702530
   10    7    1    5        0.0002489793
   10    8    1   10       -0.0109440016
   10   10    1    1        0.4026571133
   10   10    1    3       -0.0357382844
   10   10    1    6        0.0856403334
   10   10    1    8       -0.0232889664
   10    1    2    4       -0.0427716932
   10    1    2    5       -0.0083835797
   10    2    2   10        0.0633258430
   10    3    2    4        0.0072321109
   10    3    2    5        0.0014175492
   10    4    2    1       -0.1531665949
   10    4    2    3       -0.0017300723
   10    4    2    6       -0.0531777319
   10    4    2    8        0.0160966003
   10    5    2    1       -0.0300218267
   10    5    2    3       -0.0003391074
   10    5    2    6       -0.0104232431
   10    5    2    8        0.0031550571
   10    6    2    4       -0.0075305554
   10    6    2    5       -0.0014760466
   10    7    2   10        0.0085431152
   10    8    2    4        0.0081335420
   10    8    2    5        0.0015942366
   10   10    2    2        0.4084287958
   10   10    2    7        0.0782737593
   10   10    2    8        0.0000000003
   10    1    3   10       -0.0103269291
   10    2    3    4        0.0083168748
   10    2    3    5        0.0016301712
   10    3    3   10        0.0115144363
   10    4    3    2       -0.0017300731
   10    4    3    3        0.0000000002
   10    4    3    7        0.0186570412
   10    4    3    8        0.0000000004
   10    5    3    2       -0.0003391076
   10    5    3    7        0.0036569231
   10    6    3   10       -0.0034937304
   10    7    3    4        0.0007505697
   10    7    3    5        0.0001471174
   10    8    3   10       -0.0073671390
   10   10    3    1       -0.0357382844
   10   10    3    3        0.3343053717
   10   10    3    6        0.0021135174
   10   10    3    7        0.0000000002
   10   10    3    8       -0.0701471835
   10    1    4    2       -0.0427390186
   10    1    4    7        0.0116490115
   10    2    4    1       -0.0467722396
   10    2    4    3        0.0083168744
   10    2    4    6        0.0079177417
   10    2    4    8        0.0069551091
   10    3    4    2        0.0072321097
   10    3    4    7       -0.0015126974
   10    4    4    9       -0.0232319612
   10    4    4   10        0.1298029851
   10    5    4    9        0.0067235731
   10    5    4   10        0.0232319612
   10    6    4    2       -0.0075305560
   10    6    4    7       -0.0079958558
   10    7    4    1        0.0012595942
   10    7    4    3        0.0007505801
   10    7    4    6       -0.0121012472
   10    7    4    8       -0.0016363242
   10    8    4    2        0.0081335436
   10    8    4    7       -0.0038296421
   10    9    4    4       -0.0051510064
   10    9    4    5        0.0126349949
   10   10    4    4        0.3569989745
   10   10    4    5        0.0051510064
   10    1    5    2       -0.0083771753
   10    1    5    7        0.0022832956
   10    2    5    1       -0.0091677175
   10    2    5    3        0.0016301711
   10    2    5    6        0.0015519381
   10    2    5    8        0.0013632547
   10    3    5    2        0.0014175489
   10    3    5    7       -0.0002965003
   10    4    5    9        0.1072485634
   10    4    5   10        0.0232319612
   10    5    5    9        0.0232319612
   10    5    5   10        0.0158308485
   10    6    5    2       -0.0014760467
   10    6    5    7       -0.0015672490
   10    7    5    1        0.0002468901
   10    7    5    3        0.0001471195
   10    7    5    6       -0.0023719372
   10    7    5    8       -0.0003207321
   10    8    5    2        0.0015942369
   10    8    5    7       -0.0007506392
   10    9    5    4        0.0126349854
   10    9    5    5        0.0051510064
   10   10    5    4        0.0051510064
   10   10    5    5        0.3317289941
   10    1    6   10        0.0174180663
   10    2    6    4        0.0079177423
   10    2    6    5        0.0015519382
   10    3    6   10       -0.0034937304
   10    4    6    2       -0.0531777319
   10    4    6    6       -0.0000000001
   10    4    6    7       -0.1302813538
   10    4    6    8       -0.0000000004
   10    5    6    2       -0.0104232431
   10    5    6    7       -0.0255361440
   10    6    6   10        0.0149940604
   10    7    6    4       -0.0121012442
   10    7    6    5       -0.0023719366
   10    8    6   10       -0.0018781174
   10   10    6    1        0.0856403334
   10   10    6    3        0.0021135174
   10   10    6    6        0.3750483020
   10   10    6    7       -0.0000000002
   10   10    6    8        0.0109085364
   10    1    7    4        0.0116426016
   10    1    7    5        0.0022820392
   10    2    7   10        0.0085431152
   10    3    7    4       -0.0015127099
   10    3    7    5       -0.0002965027
   10    4    7    1       -0.0351495945
   10    4    7    3        0.0186570391
   10    4    7    6       -0.1302813556
   10    4    7    7        0.0000000005
   10    4    7    8       -0.0078995104
   10    5    7    1       -0.0068895900
   10    5    7    3        0.0036569227
   10    5    7    6       -0.0255361443
   10    5    7    7        0.0000000001
   10    5    7    8       -0.0015483646
   10    6    7    4       -0.0079958546
   10    6    7    5       -0.0015672488
   10    7    7   10        0.0175757287
   10    8    7    4       -0.0038296409
   10    8    7    5       -0.0007506390
   10   10    7    2        0.0782737593
   10   10    7    3        0.0000000002
   10   10    7    6       -0.0000000002
   10   10    7    7        0.4209282216
   10   10    7    8        0.0000000001
   10    1    8   10       -0.0109440016
   10    2    8    4        0.0069551072
   10    2    8    5        0.0013632543
   10    3    8   10       -0.0073671390
   10    4    8    1       -0.0000000001
   10    4    8    2        0.0160966000
   10    4    8    3        0.0000000004
   10    4    8    6       -0.0000000004
   10    4    8    7       -0.0078995083
   10    4    8    8       -0.0000000003
   10    5    8    2        0.0031550570
   10    5    8    7       -0.0015483642
   10    6    8   10       -0.0018781174
   10    7    8    4       -0.0016363208
   10    7    8    5       -0.0003207314
   10    8    8   10        0.0154759493
   10   10    8    1       -0.0232889664
   10   10    8    2        0.0000000003
   10   10    8    3       -0.0701471835
   10   10    8    6        0.0109085364
   10   10    8    7        0.0000000001
   10   10    8    8        0.3959740453
   10    4    9    4       -0.0232319584
   10    4    9    5        0.1072485614
   10    5    9    4        0.0067235616
   10    5    9    5        0.0232319584
   10    9    9   10        0.0220911168
   10   10    9    9        0.4225561962
   10    1   10    1        0.0571655773
   10    1   10    3       -0.0103324043
   10    1   10    6        0.0174323107
   10    1   10    8       -0.0109476495
   10    2   10    2        0.0633258393
   10    2   10    7        0.0085431153
   10    3   10    1       -0.0103324043
   10    3   10    3        0.0115144342
   10    3   10    6       -0.0034937318
   10    3   10    8       -0.0073671398
   10    4   10    4        0.1298029659
   10    4   10    5        0.0232319585
   10    5   10    4        0.0232319585
   10    5   10    5        0.0158308429
   10    6   10    1        0.0174323107
   10    6   10    3       -0.0034937318
   10    6   10    6        0.0149940541
   10    6   10    8       -0.0018781181
   10    7   10    2        0.0085431153
   10    7   10    7        0.0175757144
   10    8   10    1       -0.0109476495
   10    8   10    3       -0.0073671398
   10    8   10    6       -0.0018781181
   10    8   10    8        0.0154759479
   10    9   10    9        0.0220911279
   10   10   10   10        0.4667384407
 end_two_electron_integrals

 Parallel integral file used      11 records with       0 large values


 Task  times  cpu:      140.5s     wall:      143.0s


                                NWChem Input Module
                                -------------------


 Summary of allocated global arrays
-----------------------------------
  No active global arrays


MA_summarize_allocated_blocks: starting scan ...
MA_summarize_allocated_blocks: scan completed: 0 heap blocks, 0 stack blocks
MA usage statistics:

	allocation statistics:
					      heap	     stack
					      ----	     -----
	current number of blocks	         0	         0
	maximum number of blocks	        18	        42
	current total bytes		         0	         0
	maximum total bytes		  51983048	9994007128
	maximum total K-bytes		     51984	   9994008
	maximum total M-bytes		        52	      9995


                                     CITATION
                                     --------
                Please cite the following reference when publishing
                           results obtained with NWChem:

          E. Apra, E. J. Bylaska, W. A. de Jong, N. Govind, K. Kowalski,
       T. P. Straatsma, M. Valiev, H. J. J. van Dam, Y. Alexeev, J. Anchell,
       V. Anisimov, F. W. Aquino, R. Atta-Fynn, J. Autschbach, N. P. Bauman,
     J. C. Becca, D. E. Bernholdt, K. Bhaskaran-Nair, S. Bogatko, P. Borowski,
         J. Boschen, J. Brabec, A. Bruner, E. Cauet, Y. Chen, G. N. Chuev,
      C. J. Cramer, J. Daily, M. J. O. Deegan, T. H. Dunning Jr., M. Dupuis,
   K. G. Dyall, G. I. Fann, S. A. Fischer, A. Fonari, H. Fruchtl, L. Gagliardi,
      J. Garza, N. Gawande, S. Ghosh, K. Glaesemann, A. W. Gotz, J. Hammond,
       V. Helms, E. D. Hermes, K. Hirao, S. Hirata, M. Jacquelin, L. Jensen,
   B. G. Johnson, H. Jonsson, R. A. Kendall, M. Klemm, R. Kobayashi, V. Konkov,
      S. Krishnamoorthy, M. Krishnan, Z. Lin, R. D. Lins, R. J. Littlefield,
      A. J. Logsdail, K. Lopata, W. Ma, A. V. Marenich, J. Martin del Campo,
   D. Mejia-Rodriguez, J. E. Moore, J. M. Mullin, T. Nakajima, D. R. Nascimento,
    J. A. Nichols, P. J. Nichols, J. Nieplocha, A. Otero-de-la-Roza, B. Palmer,
    A. Panyala, T. Pirojsirikul, B. Peng, R. Peverati, J. Pittner, L. Pollack,
   R. M. Richard, P. Sadayappan, G. C. Schatz, W. A. Shelton, D. W. Silverstein,
   D. M. A. Smith, T. A. Soares, D. Song, M. Swart, H. L. Taylor, G. S. Thomas,
            V. Tipparaju, D. G. Truhlar, K. Tsemekhman, T. Van Voorhis,
      A. Vazquez-Mayagoitia, P. Verma, O. Villa, A. Vishnu, K. D. Vogiatzis,
        D. Wang, J. H. Weare, M. J. Williamson, T. L. Windus, K. Wolinski,
        A. T. Wong, Q. Wu, C. Yang, Q. Yu, M. Zacharias, Z. Zhang, Y. Zhao,
                                and R. J. Harrison
                        "NWChem: Past, present, and future
                         J. Chem. Phys. 152, 184102 (2020)
                               doi:10.1063/5.0004997

                                      AUTHORS
                                      -------
  E. Apra, E. J. Bylaska, N. Govind, K. Kowalski, M. Valiev, D. Mejia-Rodriguez,
       A. Kunitsa, N. P. Bauman, A. Panyala, W. A. de Jong, T. P. Straatsma,
        H. J. J. van Dam, D. Wang, T. L. Windus, J. Hammond, J. Autschbach,
    K. Bhaskaran-Nair, J. Brabec, K. Lopata, S. A. Fischer, S. Krishnamoorthy,
     M. Jacquelin, W. Ma, M. Klemm, O. Villa, Y. Chen, V. Anisimov, F. Aquino,
    S. Hirata, M. T. Hackler, Eric Hermes, L. Jensen, J. E. Moore, J. C. Becca,
      V. Konjkov, T. Risthaus, M. Malagoli, A. Marenich, A. Otero-de-la-Roza,
        J. Mullin, P. Nichols, R. Peverati, J. Pittner, Y. Zhao, P.-D. Fan,
        A. Fonari, M. J. Williamson, R. J. Harrison, J. R. Rehr, M. Dupuis,
     D. Silverstein, D. M. A. Smith, J. Nieplocha, V. Tipparaju, M. Krishnan,
     B. E. Van Kuiken, A. Vazquez-Mayagoitia, M. Swart, Q. Wu, T. Van Voorhis,
     A. A. Auer, M. Nooijen, L. D. Crosby, E. Brown, G. Cisneros, G. I. Fann,
   H. Fruchtl, J. Garza, K. Hirao, R. A. Kendall, J. A. Nichols, K. Tsemekhman,
    K. Wolinski, J. Anchell, D. E. Bernholdt, P. Borowski, T. Clark, D. Clerc,
   H. Dachsel, M. J. O. Deegan, K. Dyall, D. Elwood, E. Glendening, M. Gutowski,
   A. C. Hess, J. Jaffe, B. G. Johnson, J. Ju, R. Kobayashi, R. Kutteh, Z. Lin,
   R. Littlefield, X. Long, B. Meng, T. Nakajima, S. Niu, L. Pollack, M. Rosing,
   K. Glaesemann, G. Sandrone, M. Stave, H. Taylor, G. Thomas, J. H. van Lenthe,
                               A. T. Wong, Z. Zhang.

 Total times  cpu:      141.8s     wall:      144.7s
