 argument  1 = input.nw
  NWChem w/ OpenMP: maximum threads =    1



============================== echo of input deck ==============================
 echo
 start H2
 title "H2"

 memory total 24 gb

 geometry units bohr
 symmetry c1
        H  0.00000000  0.00000000  0.00000000
        H  0.00000000  6.70  0.00000000
 end

 basis
   * library cc-pVQZ
 end

 mcscf
   active  10
   actelec 2
   multiplicity 1
   maxiter 40
   vectors input H2.mos
   vectors output H2.mos
 end

 task mcscf

 scf
   vectors input H2.mos
   vectors output H2-6.70.mos
   noscf
 end

 tce
   2eorb
   2emet 13
   ccsd
   maxiter 300
   lshift 0.8
 end

# set tce:print_integrals T
# set tce:qorb 10
# set tce:qela 1
# set tce:qelb 1

 set tce:qducc T
 set tce:nactv 9
 set tce:nonhf T
 set tce:ducc_model 6

 set tce:printtol 0.02

 task tce
================================================================================


                                         
                                         


             Northwest Computational Chemistry Package (NWChem) 7.0.1
             --------------------------------------------------------


                    Environmental Molecular Sciences Laboratory
                       Pacific Northwest National Laboratory
                                Richland, WA 99352

                              Copyright (c) 1994-2020
                       Pacific Northwest National Laboratory
                            Battelle Memorial Institute

             NWChem is an open-source computational chemistry package
                        distributed under the terms of the
                      Educational Community License (ECL) 2.0
             A copy of the license is included with this distribution
                              in the LICENSE.TXT file

                                  ACKNOWLEDGMENT
                                  --------------

            This software and its documentation were developed at the
            EMSL at Pacific Northwest National Laboratory, a multiprogram
            national laboratory, operated for the U.S. Department of Energy
            by Battelle under Contract Number DE-AC05-76RL01830. Support
            for this work was provided by the Department of Energy Office
            of Biological and Environmental Research, Office of Basic
            Energy Sciences, and the Office of Advanced Scientific Computing.


           Job information
           ---------------

    hostname        = WE46210
    program         = /home/baum612/code/nwchem/bin/LINUX64/nwchem
    date            = Sat Nov 11 04:05:49 2023

    compiled        = Mon_Nov_06_10:06:57_2023
    source          = /home/baum612/code/nwchem
    nwchem branch   = 7.0.0
    nwchem revision = nwchem_on_git-4191-g39d87d64de
    ga revision     = 5.8.1
    use scalapack   = F
    input           = input.nw
    prefix          = H2.
    data base       = ./H2.db
    status          = startup
    nproc           =        1
    time left       =     -1s



           Memory information
           ------------------

    heap     =  805306362 doubles =   6144.0 Mbytes
    stack    =  805306367 doubles =   6144.0 Mbytes
    global   = 1610612736 doubles =  12288.0 Mbytes (distinct from heap & stack)
    total    = 3221225465 doubles =  24576.0 Mbytes
    verify   = yes
    hardfail = no 


           Directory information
           ---------------------

  0 permanent = .
  0 scratch   = .




                                NWChem Input Module
                                -------------------


                                        H2
                                        --
 Turning off AUTOSYM since
 SYMMETRY directive was detected!


          ------
          auto-z
          ------
     1 autoz failed with cvr_scaling = 1.2 changing to 1.3
     2 autoz failed with cvr_scaling = 1.3 changing to 1.4
     3 autoz failed with cvr_scaling = 1.4 changing to 1.5
     4 autoz failed with cvr_scaling = 1.5 changing to 1.6
     5 autoz failed with cvr_scaling = 1.6 changing to 1.7

 AUTOZ failed to generate good internal coordinates.
 Cartesian coordinates will be used in optimizations.



                             Geometry "geometry" -> ""
                             -------------------------

 Output coordinates in a.u. (scale by  1.000000000 to convert to a.u.)

  No.       Tag          Charge          X              Y              Z
 ---- ---------------- ---------- -------------- -------------- --------------
    1 H                    1.0000     0.00000000    -3.35000000     0.00000000
    2 H                    1.0000     0.00000000     3.35000000     0.00000000

      Atomic Mass 
      ----------- 

      H                  1.007825


 Effective nuclear repulsion energy (a.u.)       0.1492537313

            Nuclear Dipole moment (a.u.) 
            ----------------------------
        X                 Y               Z
 ---------------- ---------------- ----------------
     0.0000000000     0.0000000000     0.0000000000


            XYZ format geometry
            -------------------
     2
 geometry
 H                     0.00000000    -1.77274378     0.00000000
 H                     0.00000000     1.77274378     0.00000000



 Summary of "ao basis" -> "" (cartesian)
 ------------------------------------------------------------------------------
       Tag                 Description            Shells   Functions and Types
 ---------------- ------------------------------  ------  ---------------------
 *                          cc-pVQZ                   on all atoms 


                      Basis "ao basis" -> "ao basis" (cartesian)
                      -----
  H (Hydrogen)
  ------------
            Exponent  Coefficients 
       -------------- ---------------------------------------------------------
  1 S  8.26400000E+01  0.002006
  1 S  1.24100000E+01  0.015343
  1 S  2.82400000E+00  0.075579

  2 S  7.97700000E-01  1.000000

  3 S  2.58100000E-01  1.000000

  4 S  8.98900000E-02  1.000000

  5 P  2.29200000E+00  1.000000

  6 P  8.38000000E-01  1.000000

  7 P  2.92000000E-01  1.000000

  8 D  2.06200000E+00  1.000000

  9 D  6.62000000E-01  1.000000

 10 F  1.39700000E+00  1.000000



 Summary of "ao basis" -> "ao basis" (cartesian)
 ------------------------------------------------------------------------------
       Tag                 Description            Shells   Functions and Types
 ---------------- ------------------------------  ------  ---------------------
 H                          cc-pVQZ                 10       35   4s3p2d1f



                            NWChem Direct MCSCF Module
                            --------------------------


                                        H2


     -----------------------------------
       Basis functions:             70
       Inactive shells:              0
       Active shells:               10
       Active electrons:             2
       Symmetry:                    a       
       Multiplicity:                 1
       Orbital rotations:          600
     -----------------------------------

     -----------------------------------
       E2 extrapolation:             F
       Conjugacy:                    T
       Micro CI relax:               T
       Canonical orbitals:           T
       Maximum iterations:          40
       Converge threshold:    1.00E-04
       Conjugacy resets:            20
       Initial levelshift:        0.10
     -----------------------------------

 Loading old vectors from job with title :

H2


   input molecular orbitals = ./H2.mos
  output molecular orbtials = ./H2.mos

       No. of determinants:           100


  Starting Orbital Energies
    -0.265155    -0.234754    -0.000034    -0.000009    -0.000009    -0.000000
    -0.000000    -0.000000    -0.000000    -0.000000     0.420413     0.624613
     0.834120     1.136292     1.136292     1.762968     1.830277     1.830277
     1.892125     2.047441     2.047441     2.055287     2.055287     2.090341
     2.090341     2.090358     2.090358     2.090822     2.893322     2.951650
     4.375731     4.376110     4.376110     4.440367     4.440367     4.507673
     5.943944     6.055816     6.055816     6.060872     6.069637     6.069637
     6.070534     6.070534     6.070534     6.070534     6.070551     6.070551
     6.070551     6.070551     8.127065     8.134804     8.134804     8.135465
     8.141954     8.141954     8.142464     8.142464     8.142469     8.142469
     9.647499     9.657734     9.688506     9.714746     9.714746     9.717016
     9.717016     9.769303    22.315837    22.561699

  Orbital Symmetry Irreps
a    a    a    a    a    a    a    a    a    a    a    a    a    a    a   
a    a    a    a    a    a    a    a    a    a    a    a    a    a    a   
a    a    a    a    a    a    a    a    a    a    a    a    a    a    a   
a    a    a    a    a    a    a    a    a    a    a    a    a    a    a   
a    a    a    a    a    a    a    a    a    a   

 Integral file          = ./H2.aoints.0
 Record size in doubles =  65536        No. of integs per rec  =  43688
 Max. records in memory =     99        Max. records in file   = 280144
 No. of bits per label  =      8        No. of bits per value  =     64


 #quartets = 1.588D+04 #integrals = 3.610D+05 #direct =  0.0% #cached =100.0%




          %%%%% MacroIteration   1 %%%%%


          Number of sigma calls:       14
                       o<<<<< (aa):             0.00
                       o<<<<< (bb):             0.00
                       o<<<<< (ab):             0.02
                       o<<<<< (total)           0.02
                       o<<<<< (aa) ff           0.00
                       o<<<<< (aa) gop          0.00
                       o<<<<< (aa) dot          0.00
                       o<<<<< (ab) str          0.00
                       o<<<<< (ab) gath         0.00
                       o<<<<< (ab) dotab        0.00
                       o<<<<< (ab) scat         0.00
                       o<<<<< (ab) sync         0.00
                       o<<<<< Density           0.00
                       o<<<<< Density one       0.00
                       o<<<<< Density two       0.00
                       o<<<<< Density ab        0.00
                       o<<<<< Spin adapt        0.00
                       o<<<<< Symm adapt        0.00

                       o<<<<< (ab) max sync:      0.00

           >>>| Valence CI:             -1.149379130753
           >>>| MCSCF energy:           -1.000125399410
           >>>| Gradient norm:          0.244180296D-03
     --- Warning:  480 Hessian diagonals < 0.05 ---

                              ----- Line search ------

        step       energy         lsg     num-lsg   num-lsh   lsrat    time
      ------- ---------------- --------- --------- --------- ------- --------
       0.0000      -1.00012540 -1.36D-08  0.00D+00  0.00D+00 0.0D+00      0.8

          Number of sigma calls:        8
                       o<<<<< (aa):             0.00
                       o<<<<< (bb):             0.00
                       o<<<<< (ab):             0.01
                       o<<<<< (total)           0.01
                       o<<<<< (aa) ff           0.00
                       o<<<<< (aa) gop          0.00
                       o<<<<< (aa) dot          0.00
                       o<<<<< (ab) str          0.00
                       o<<<<< (ab) gath         0.00
                       o<<<<< (ab) dotab        0.00
                       o<<<<< (ab) scat         0.00
                       o<<<<< (ab) sync         0.00
                       o<<<<< Density           0.00
                       o<<<<< Density one       0.00
                       o<<<<< Density two       0.00
                       o<<<<< Density ab        0.00
                       o<<<<< Spin adapt        0.00
                       o<<<<< Symm adapt        0.00

                       o<<<<< (ab) max sync:      0.00
       1.0000      -1.00012541 -3.60D-09 -3.61D-09  9.99D-09 2.7D-01      1.1

          Number of sigma calls:        8
                       o<<<<< (aa):             0.00
                       o<<<<< (bb):             0.00
                       o<<<<< (ab):             0.00
                       o<<<<< (total)           0.00
                       o<<<<< (aa) ff           0.00
                       o<<<<< (aa) gop          0.00
                       o<<<<< (aa) dot          0.00
                       o<<<<< (ab) str          0.00
                       o<<<<< (ab) gath         0.00
                       o<<<<< (ab) dotab        0.00
                       o<<<<< (ab) scat         0.00
                       o<<<<< (ab) sync         0.00
                       o<<<<< Density           0.00
                       o<<<<< Density one       0.00
                       o<<<<< Density two       0.00
                       o<<<<< Density ab        0.00
                       o<<<<< Spin adapt        0.00
                       o<<<<< Symm adapt        0.00

                       o<<<<< (ab) max sync:      0.00
       1.3607      -1.00012541  4.95D-12  4.94D-12  1.00D-08 3.6D-04      1.2
     --- Orbitals canonicalized ---



          %%%%% MacroIteration   2 %%%%%


          Number of sigma calls:       14
                       o<<<<< (aa):             0.00
                       o<<<<< (bb):             0.00
                       o<<<<< (ab):             0.01
                       o<<<<< (total)           0.02
                       o<<<<< (aa) ff           0.00
                       o<<<<< (aa) gop          0.00
                       o<<<<< (aa) dot          0.00
                       o<<<<< (ab) str          0.00
                       o<<<<< (ab) gath         0.00
                       o<<<<< (ab) dotab        0.00
                       o<<<<< (ab) scat         0.00
                       o<<<<< (ab) sync         0.00
                       o<<<<< Density           0.00
                       o<<<<< Density one       0.00
                       o<<<<< Density two       0.00
                       o<<<<< Density ab        0.00
                       o<<<<< Spin adapt        0.00
                       o<<<<< Symm adapt        0.00

                       o<<<<< (ab) max sync:      0.00

           >>>| Valence CI:             -1.149379140009
           >>>| MCSCF energy:           -1.000125408666
           >>>| Gradient norm:          0.232639600D-04




     ==============================
            MCSCF Converged
     ==============================



          Canonical Eigenvalues

              1      
    1   -0.2646
    2   -0.2353
    3   -0.0000
    4   -0.0000
    5   -0.0000
    6   -0.0000
    7   -0.0000
    8   -0.0000
    9   -0.0000
   10   -0.0000
   11    0.4201
   12    0.6228
   13    0.8339
   14    1.1357
   15    1.1357
   16    1.7624
   17    1.8309
   18    1.8309
   19    1.8946
   20    2.0475
   21    2.0475
   22    2.0550
   23    2.0550
   24    2.0876
   25    2.0904
   26    2.0904
   27    2.0904
   28    2.0904
   29    2.8947
   30    2.9497
   31    4.3755
   32    4.3755
   33    4.3772
   34    4.4409
   35    4.4409
   36    4.5035
   37    5.9439
   38    6.0558
   39    6.0558
   40    6.0609
   41    6.0697
   42    6.0697
   43    6.0706
   44    6.0706
   45    6.0706
   46    6.0706
   47    6.0706
   48    6.0706
   49    6.0706
   50    6.0706
   51    8.1271
   52    8.1348
   53    8.1348
   54    8.1352
   55    8.1420
   56    8.1420
   57    8.1425
   58    8.1425
   59    8.1425
   60    8.1425
   61    9.6482
   62    9.6566
   63    9.6893
   64    9.7145
   65    9.7145
   66    9.7173
   67    9.7173
   68    9.7677
   69   22.3270
   70   22.5503


          Converged CI vector

   Index           Coefficient          Config. Occupation
         1          0.73108431          1  1
        12         -0.68225413          2  2

          Number of sigma calls:        1
                       o<<<<< (aa):             0.00
                       o<<<<< (bb):             0.00
                       o<<<<< (ab):             0.00
                       o<<<<< (total)           0.00
                       o<<<<< (aa) ff           0.00
                       o<<<<< (aa) gop          0.00
                       o<<<<< (aa) dot          0.00
                       o<<<<< (ab) str          0.00
                       o<<<<< (ab) gath         0.00
                       o<<<<< (ab) dotab        0.00
                       o<<<<< (ab) scat         0.00
                       o<<<<< (ab) sync         0.00
                       o<<<<< Density           0.00
                       o<<<<< Density one       0.00
                       o<<<<< Density two       0.00
                       o<<<<< Density ab        0.00
                       o<<<<< Spin adapt        0.00
                       o<<<<< Symm adapt        0.00

                       o<<<<< (ab) max sync:      0.00



          Natural orbital occupation numbers

              1      
    1    1.0690
    2    0.9309
    3    0.0001
    4    0.0000
    5    0.0000
    6    0.0000
    7    0.0000
    8    0.0000
    9    0.0000
   10    0.0000


          Number of sigma calls:       14
                       o<<<<< (aa):             0.00
                       o<<<<< (bb):             0.00
                       o<<<<< (ab):             0.01
                       o<<<<< (total)           0.02
                       o<<<<< (aa) ff           0.00
                       o<<<<< (aa) gop          0.00
                       o<<<<< (aa) dot          0.00
                       o<<<<< (ab) str          0.00
                       o<<<<< (ab) gath         0.00
                       o<<<<< (ab) dotab        0.00
                       o<<<<< (ab) scat         0.00
                       o<<<<< (ab) sync         0.00
                       o<<<<< Density           0.00
                       o<<<<< Density one       0.00
                       o<<<<< Density two       0.00
                       o<<<<< Density ab        0.00
                       o<<<<< Spin adapt        0.00
                       o<<<<< Symm adapt        0.00

                       o<<<<< (ab) max sync:      0.00


       Final MCSCF results 
       ------------------- 

       Total MCSCF energy =     -1.000125408666
            Gradient norm =      2.3D-05

    CPU time for solution =      1.4s
   Wall time for solution =      1.6s



                        Analysis of MCSCF natural orbitals
                        ----------------------------------

 Vector    1  Occ=1.068969D+00  E=-2.645627D-01  Symmetry=a
              MO Center=  6.4D-15,  3.7D-12, -4.1D-15, r^2= 3.9D+00
   Bfn.  Coefficient  Atom+Function         Bfn.  Coefficient  Atom+Function  
  ----- ------------  ---------------      ----- ------------  ---------------
     3      0.342600  1 H  s                 38      0.342600  2 H  s          
     4      0.209892  1 H  s                 39      0.209892  2 H  s          
     2      0.177483  1 H  s                 37      0.177483  2 H  s          

 Vector    2  Occ=9.309414D-01  E=-2.353490D-01  Symmetry=a
              MO Center=  2.7D-14, -3.5D-12, -1.8D-14, r^2= 4.0D+00
   Bfn.  Coefficient  Atom+Function         Bfn.  Coefficient  Atom+Function  
  ----- ------------  ---------------      ----- ------------  ---------------
     3      0.357880  1 H  s                 38     -0.357880  2 H  s          
     4      0.209635  1 H  s                 39     -0.209635  2 H  s          
     2      0.182709  1 H  s                 37     -0.182709  2 H  s          

 Vector    3  Occ=5.924691D-05  E=-3.195483D-05  Symmetry=a
              MO Center=  1.7D-13,  3.6D-09, -1.1D-13, r^2= 4.1D+00
   Bfn.  Coefficient  Atom+Function         Bfn.  Coefficient  Atom+Function  
  ----- ------------  ---------------      ----- ------------  ---------------
     9      1.831400  1 H  py                44     -1.831400  2 H  py         
    12     -1.008910  1 H  py                47      1.008910  2 H  py         
    32     -0.772859  1 H  fyyy              67      0.772859  2 H  fyyy       
    27     -0.757373  1 H  fxxy              34     -0.757373  1 H  fyzz       
    62      0.757373  2 H  fxxy              69      0.757373  2 H  fyzz       

 Vector    4  Occ=1.507387D-05  E=-8.626636D-06  Symmetry=a
              MO Center=  9.5D-14, -2.0D-11, -5.2D-14, r^2= 4.1D+00
   Bfn.  Coefficient  Atom+Function         Bfn.  Coefficient  Atom+Function  
  ----- ------------  ---------------      ----- ------------  ---------------
     8      1.399395  1 H  px                43      1.399395  2 H  px         
    11     -0.843058  1 H  px                46     -0.843058  2 H  px         
    10     -0.768780  1 H  pz                45     -0.768780  2 H  pz         
    29     -0.614609  1 H  fxyy              64     -0.614609  2 H  fxyy       
    26     -0.589856  1 H  fxxx              31     -0.589856  1 H  fxzz       

 Vector    5  Occ=1.507387D-05  E=-8.626636D-06  Symmetry=a
              MO Center=  9.2D-14, -2.0D-11,  1.7D-13, r^2= 4.1D+00
   Bfn.  Coefficient  Atom+Function         Bfn.  Coefficient  Atom+Function  
  ----- ------------  ---------------      ----- ------------  ---------------
    10      1.399395  1 H  pz                45      1.399395  2 H  pz         
    13     -0.843058  1 H  pz                48     -0.843058  2 H  pz         
     8      0.768780  1 H  px                43      0.768780  2 H  px         
    33     -0.614609  1 H  fyyz              68     -0.614609  2 H  fyyz       
    28     -0.589856  1 H  fxxz              35     -0.589856  1 H  fzzz       

 Vector    6  Occ=1.926879D-07  E=-1.332264D-07  Symmetry=a
              MO Center= -3.6D-13, -1.1D-09, -4.3D-15, r^2= 3.8D+00
   Bfn.  Coefficient  Atom+Function         Bfn.  Coefficient  Atom+Function  
  ----- ------------  ---------------      ----- ------------  ---------------
     9      1.199362  1 H  py                44     -1.199362  2 H  py         
     2      0.597064  1 H  s                 37      0.597064  2 H  s          
     4     -0.524176  1 H  s                 39     -0.524176  2 H  s          
    27     -0.495344  1 H  fxxy              34     -0.495344  1 H  fyzz       
    62      0.495344  2 H  fxxy              69      0.495344  2 H  fyzz       

 Vector    7  Occ=9.121422D-08  E=-8.480485D-08  Symmetry=a
              MO Center= -1.3D-12,  3.0D-09,  8.1D-13, r^2= 3.1D+00
   Bfn.  Coefficient  Atom+Function         Bfn.  Coefficient  Atom+Function  
  ----- ------------  ---------------      ----- ------------  ---------------
     9      1.432538  1 H  py                44      1.432538  2 H  py         
     3     -0.926473  1 H  s                 38      0.926473  2 H  s          
     2      0.845744  1 H  s                 37     -0.845744  2 H  s          
    27     -0.523465  1 H  fxxy              34     -0.523465  1 H  fyzz       
    62     -0.523465  2 H  fxxy              69     -0.523465  2 H  fyzz       

 Vector    8  Occ=3.923277D-08  E=-4.656982D-08  Symmetry=a
              MO Center= -3.9D-15,  3.4D-09, -2.8D-15, r^2= 4.0D+00
   Bfn.  Coefficient  Atom+Function         Bfn.  Coefficient  Atom+Function  
  ----- ------------  ---------------      ----- ------------  ---------------
     9      3.025502  1 H  py                44     -3.025502  2 H  py         
    27     -1.332979  1 H  fxxy              34     -1.332979  1 H  fyzz       
    62      1.332979  2 H  fxxy              69      1.332979  2 H  fyzz       
    32     -1.032322  1 H  fyyy              67      1.032322  2 H  fyyy       
     6     -0.747735  1 H  py                41      0.747735  2 H  py         

 Vector    9  Occ=9.667575D-09  E=-8.819849D-09  Symmetry=a
              MO Center= -3.5D-14,  6.0D-12, -5.2D-13, r^2= 3.0D+00
   Bfn.  Coefficient  Atom+Function         Bfn.  Coefficient  Atom+Function  
  ----- ------------  ---------------      ----- ------------  ---------------
    10      1.432184  1 H  pz                45     -1.432184  2 H  pz         
    28     -0.468873  1 H  fxxz              35     -0.468873  1 H  fzzz       
    63      0.468873  2 H  fxxz              70      0.468873  2 H  fzzz       
    24      0.383854  1 H  dyz               59      0.383854  2 H  dyz        
    33     -0.345024  1 H  fyyz              68      0.345024  2 H  fyyz       

 Vector   10  Occ=9.667575D-09  E=-8.819849D-09  Symmetry=a
              MO Center=  9.7D-13,  5.5D-12, -6.9D-14, r^2= 3.0D+00
   Bfn.  Coefficient  Atom+Function         Bfn.  Coefficient  Atom+Function  
  ----- ------------  ---------------      ----- ------------  ---------------
     8      1.432184  1 H  px                43     -1.432184  2 H  px         
    26     -0.468873  1 H  fxxx              31     -0.468873  1 H  fxzz       
    61      0.468873  2 H  fxxx              66      0.468873  2 H  fxzz       
    21      0.383854  1 H  dxy               56      0.383854  2 H  dxy        
    29     -0.345024  1 H  fxyy              64      0.345024  2 H  fxyy       

 Vector   11  Occ=0.000000D+00  E= 4.201333D-01  Symmetry=a
              MO Center=  2.5D-12,  1.5D-09, -1.5D-12, r^2= 8.7D+00
   Bfn.  Coefficient  Atom+Function         Bfn.  Coefficient  Atom+Function  
  ----- ------------  ---------------      ----- ------------  ---------------
     3      2.678847  1 H  s                 38     -2.678847  2 H  s          
     4     -1.615620  1 H  s                 39      1.615620  2 H  s          
     9     -1.166104  1 H  py                44     -1.166104  2 H  py         
     2     -0.657362  1 H  s                 37      0.657362  2 H  s          
    12      0.537360  1 H  py                47      0.537360  2 H  py         

 Vector   12  Occ=0.000000D+00  E= 6.228099D-01  Symmetry=a
              MO Center= -1.0D-12,  3.5D-09,  6.2D-13, r^2= 6.0D+00
   Bfn.  Coefficient  Atom+Function         Bfn.  Coefficient  Atom+Function  
  ----- ------------  ---------------      ----- ------------  ---------------
     3      1.901170  1 H  s                 38     -1.901170  2 H  s          
     9      1.198214  1 H  py                44      1.198214  2 H  py         
     4     -1.113630  1 H  s                 39      1.113630  2 H  s          
    12     -0.887931  1 H  py                47     -0.887931  2 H  py         
     2     -0.510281  1 H  s                 37      0.510281  2 H  s          

 Vector   13  Occ=0.000000D+00  E= 8.339116D-01  Symmetry=a
              MO Center=  4.5D-14, -1.8D-08, -2.6D-14, r^2= 7.2D+00
   Bfn.  Coefficient  Atom+Function         Bfn.  Coefficient  Atom+Function  
  ----- ------------  ---------------      ----- ------------  ---------------
     3      3.892131  1 H  s                 38      3.892131  2 H  s          
     4     -1.581584  1 H  s                 39     -1.581584  2 H  s          
     2     -1.249553  1 H  s                 37     -1.249553  2 H  s          
    23     -0.642727  1 H  dyy               58     -0.642727  2 H  dyy        
    20     -0.599273  1 H  dxx               25     -0.599273  1 H  dzz        

 Vector   14  Occ=0.000000D+00  E= 1.135653D+00  Symmetry=a
              MO Center=  2.6D-13, -2.4D-11, -2.3D-14, r^2= 5.5D+00
   Bfn.  Coefficient  Atom+Function         Bfn.  Coefficient  Atom+Function  
  ----- ------------  ---------------      ----- ------------  ---------------
     8      4.931575  1 H  px                43     -4.931575  2 H  px         
    26     -1.916364  1 H  fxxx              31     -1.916364  1 H  fxzz       
    61      1.916364  2 H  fxxx              66      1.916364  2 H  fxzz       
    29     -1.898735  1 H  fxyy              64      1.898735  2 H  fxyy       
    11     -1.482801  1 H  px                46      1.482801  2 H  px         

 Vector   15  Occ=0.000000D+00  E= 1.135653D+00  Symmetry=a
              MO Center= -9.3D-15, -2.3D-11, -9.8D-14, r^2= 5.5D+00
   Bfn.  Coefficient  Atom+Function         Bfn.  Coefficient  Atom+Function  
  ----- ------------  ---------------      ----- ------------  ---------------
    10      4.931575  1 H  pz                45     -4.931575  2 H  pz         
    28     -1.916364  1 H  fxxz              35     -1.916364  1 H  fzzz       
    63      1.916364  2 H  fxxz              70      1.916364  2 H  fzzz       
    33     -1.898735  1 H  fyyz              68      1.898735  2 H  fyyz       
    13     -1.482801  1 H  pz                48      1.482801  2 H  pz         

 Vector   16  Occ=0.000000D+00  E= 1.762400D+00  Symmetry=a
              MO Center= -8.4D-13,  6.6D-09,  5.0D-13, r^2= 5.3D+00
   Bfn.  Coefficient  Atom+Function         Bfn.  Coefficient  Atom+Function  
  ----- ------------  ---------------      ----- ------------  ---------------
     9      4.697226  1 H  py                44      4.697226  2 H  py         
     3      2.186087  1 H  s                 38     -2.186087  2 H  s          
    27     -1.807728  1 H  fxxy              32     -1.798933  1 H  fyyy       
    34     -1.807728  1 H  fyzz              62     -1.807728  2 H  fxxy       
    67     -1.798933  2 H  fyyy              69     -1.807728  2 H  fyzz       

 Vector   17  Occ=0.000000D+00  E= 1.830869D+00  Symmetry=a
              MO Center= -6.9D-14,  5.4D-11,  4.0D-15, r^2= 4.4D+00
   Bfn.  Coefficient  Atom+Function         Bfn.  Coefficient  Atom+Function  
  ----- ------------  ---------------      ----- ------------  ---------------
     8      6.222487  1 H  px                43      6.222487  2 H  px         
    26     -2.429555  1 H  fxxx              29     -2.428559  1 H  fxyy       
    31     -2.429555  1 H  fxzz              61     -2.429555  2 H  fxxx       
    64     -2.428559  2 H  fxyy              66     -2.429555  2 H  fxzz       
     5     -1.645250  1 H  px                40     -1.645250  2 H  px         

 Vector   18  Occ=0.000000D+00  E= 1.830869D+00  Symmetry=a
              MO Center= -5.9D-16,  5.3D-11,  3.5D-14, r^2= 4.4D+00
   Bfn.  Coefficient  Atom+Function         Bfn.  Coefficient  Atom+Function  
  ----- ------------  ---------------      ----- ------------  ---------------
    10      6.222487  1 H  pz                45      6.222487  2 H  pz         
    28     -2.429555  1 H  fxxz              33     -2.428559  1 H  fyyz       
    35     -2.429555  1 H  fzzz              63     -2.429555  2 H  fxxz       
    68     -2.428559  2 H  fyyz              70     -2.429555  2 H  fzzz       
     7     -1.645250  1 H  pz                42     -1.645250  2 H  pz         

 Vector   19  Occ=0.000000D+00  E= 1.894616D+00  Symmetry=a
              MO Center= -3.6D-15, -3.2D-09,  4.4D-15, r^2= 5.1D+00
   Bfn.  Coefficient  Atom+Function         Bfn.  Coefficient  Atom+Function  
  ----- ------------  ---------------      ----- ------------  ---------------
     9      4.799053  1 H  py                44     -4.799053  2 H  py         
    32     -1.891693  1 H  fyyy              67      1.891693  2 H  fyyy       
    27     -1.880012  1 H  fxxy              34     -1.880012  1 H  fyzz       
    62      1.880012  2 H  fxxy              69      1.880012  2 H  fyzz       
     6     -1.274086  1 H  py                41      1.274086  2 H  py         

 Vector   20  Occ=0.000000D+00  E= 2.047520D+00  Symmetry=a
              MO Center= -1.0D-14, -1.5D-09,  1.0D-14, r^2= 4.5D+00
   Bfn.  Coefficient  Atom+Function         Bfn.  Coefficient  Atom+Function  
  ----- ------------  ---------------      ----- ------------  ---------------
    24      1.280391  1 H  dyz               59     -1.280391  2 H  dyz        
    10     -0.523287  1 H  pz                45     -0.523287  2 H  pz         
    33      0.205925  1 H  fyyz              68      0.205925  2 H  fyyz       
    28      0.204275  1 H  fxxz              35      0.204275  1 H  fzzz       
    63      0.204275  2 H  fxxz              70      0.204275  2 H  fzzz       


 Wrote Lagrangian and 1- and 2-particle density matrices to ./H2.mcpdm


     Multipole analysis of the density
     ---------------------------------

     L   x y z        total        nuclear
     -   - - -        -----        -------
     0   0 0 0     -0.000000      2.000000

     1   1 0 0     -0.000000      0.000000
     1   0 1 0     -0.000000      0.000000
     1   0 0 1      0.000000      0.000000

     2   2 0 0     -2.001913      0.000000
     2   1 1 0      0.000000      0.000000
     2   1 0 1     -0.000000      0.000000
     2   0 2 0     -1.968812     22.445000
     2   0 1 1     -0.000000      0.000000
     2   0 0 2     -2.001913      0.000000


  Mulliken analysis of the total density
  --------------------------------------

    Atom       Charge   Shell Charges
 -----------   ------   -------------------------------------------------------
    1 H    1     1.00   0.05  0.22  0.48  0.25  0.00 -0.00  0.00  0.00  0.00  0.00
    2 H    1     1.00   0.05  0.22  0.48  0.25  0.00 -0.00  0.00  0.00  0.00  0.00

    Mulliken analysis of the active space density
    ---------------------------------------------

    Atom       Charge   Shell Charges
 -----------   ------   -------------------------------------------------------
    1 H    1     1.00   0.05  0.22  0.48  0.25  0.00 -0.00  0.00  0.00  0.00  0.00
    2 H    1     1.00   0.05  0.22  0.48  0.25  0.00 -0.00  0.00  0.00  0.00  0.00

 Parallel integral file used       9 records with       0 large values


 Task  times  cpu:        1.4s     wall:        1.6s


                                NWChem Input Module
                                -------------------


                                 NWChem SCF Module
                                 -----------------


                                        H2



  ao basis        = "ao basis"
  functions       =    70
  atoms           =     2
  closed shells   =     1
  open shells     =     0
  charge          =   0.00
  wavefunction    = RHF 
  input vectors   = ./H2.mos
  output vectors  = ./H2-6.70.mos
  use symmetry    = F
  symmetry adapt  = F


 Summary of "ao basis" -> "ao basis" (cartesian)
 ------------------------------------------------------------------------------
       Tag                 Description            Shells   Functions and Types
 ---------------- ------------------------------  ------  ---------------------
 H                          cc-pVQZ                 10       35   4s3p2d1f



 Forming initial guess at       1.6s


 Loading old vectors from job with title :

H2


 Starting SCF solution at       1.6s



 ----------------------------------------------
         Quadratically convergent ROHF

 Convergence threshold     :          1.000E-04
 Maximum no. of iterations :           30
 Final Fock-matrix accuracy:          1.000E-07
 ----------------------------------------------


 Integral file          = ./H2.aoints.0
 Record size in doubles =  65536        No. of integs per rec  =  43688
 Max. records in memory =     99        Max. records in file   = 280177
 No. of bits per label  =      8        No. of bits per value  =     64


 #quartets = 1.411D+04 #integrals = 3.158D+05 #direct =  0.0% #cached =100.0%



       Final RHF  results 
       ------------------ 

         Total SCF energy =     -0.777426609600
      One-electron energy =     -1.308784263036
      Two-electron energy =      0.382103922094
 Nuclear repulsion energy =      0.149253731343

        Time for solution =      0.0s


             Final eigenvalues
             -----------------

              1      
    1   -0.2646
    2   -0.2353
    3   -0.0000
    4   -0.0000
    5   -0.0000
    6   -0.0000
    7   -0.0000
    8   -0.0000
    9   -0.0000
   10   -0.0000
   11    0.4201

                       ROHF Final Molecular Orbital Analysis
                       -------------------------------------

 Vector    1  Occ=2.000000D+00  E=-2.645627D-01
              MO Center=  6.4D-15,  3.7D-12, -4.1D-15, r^2= 3.9D+00
   Bfn.  Coefficient  Atom+Function         Bfn.  Coefficient  Atom+Function  
  ----- ------------  ---------------      ----- ------------  ---------------
     3      0.342600  1 H  s                 38      0.342600  2 H  s          
     4      0.209892  1 H  s                 39      0.209892  2 H  s          
     2      0.177483  1 H  s                 37      0.177483  2 H  s          

 Vector    2  Occ=0.000000D+00  E=-2.353490D-01
              MO Center=  2.7D-14, -3.5D-12, -1.8D-14, r^2= 4.0D+00
   Bfn.  Coefficient  Atom+Function         Bfn.  Coefficient  Atom+Function  
  ----- ------------  ---------------      ----- ------------  ---------------
     3      0.357880  1 H  s                 38     -0.357880  2 H  s          
     4      0.209635  1 H  s                 39     -0.209635  2 H  s          
     2      0.182709  1 H  s                 37     -0.182709  2 H  s          

 Vector    3  Occ=0.000000D+00  E=-3.195483D-05
              MO Center=  1.7D-13,  3.6D-09, -1.1D-13, r^2= 4.1D+00
   Bfn.  Coefficient  Atom+Function         Bfn.  Coefficient  Atom+Function  
  ----- ------------  ---------------      ----- ------------  ---------------
     9      1.831400  1 H  py                44     -1.831400  2 H  py         
    12     -1.008910  1 H  py                47      1.008910  2 H  py         
    32     -0.772859  1 H  fyyy              67      0.772859  2 H  fyyy       
    27     -0.757373  1 H  fxxy              34     -0.757373  1 H  fyzz       
    62      0.757373  2 H  fxxy              69      0.757373  2 H  fyzz       

 Vector    4  Occ=0.000000D+00  E=-8.626636D-06
              MO Center=  9.5D-14, -2.0D-11, -5.2D-14, r^2= 4.1D+00
   Bfn.  Coefficient  Atom+Function         Bfn.  Coefficient  Atom+Function  
  ----- ------------  ---------------      ----- ------------  ---------------
     8      1.399395  1 H  px                43      1.399395  2 H  px         
    11     -0.843058  1 H  px                46     -0.843058  2 H  px         
    10     -0.768780  1 H  pz                45     -0.768780  2 H  pz         
    29     -0.614609  1 H  fxyy              64     -0.614609  2 H  fxyy       
    26     -0.589856  1 H  fxxx              31     -0.589856  1 H  fxzz       

 Vector    5  Occ=0.000000D+00  E=-8.626636D-06
              MO Center=  9.2D-14, -2.0D-11,  1.7D-13, r^2= 4.1D+00
   Bfn.  Coefficient  Atom+Function         Bfn.  Coefficient  Atom+Function  
  ----- ------------  ---------------      ----- ------------  ---------------
    10      1.399395  1 H  pz                45      1.399395  2 H  pz         
    13     -0.843058  1 H  pz                48     -0.843058  2 H  pz         
     8      0.768780  1 H  px                43      0.768780  2 H  px         
    33     -0.614609  1 H  fyyz              68     -0.614609  2 H  fyyz       
    28     -0.589856  1 H  fxxz              35     -0.589856  1 H  fzzz       

 Vector    6  Occ=0.000000D+00  E=-1.332264D-07
              MO Center= -3.6D-13, -1.1D-09, -4.3D-15, r^2= 3.8D+00
   Bfn.  Coefficient  Atom+Function         Bfn.  Coefficient  Atom+Function  
  ----- ------------  ---------------      ----- ------------  ---------------
     9      1.199362  1 H  py                44     -1.199362  2 H  py         
     2      0.597064  1 H  s                 37      0.597064  2 H  s          
     4     -0.524176  1 H  s                 39     -0.524176  2 H  s          
    27     -0.495344  1 H  fxxy              34     -0.495344  1 H  fyzz       
    62      0.495344  2 H  fxxy              69      0.495344  2 H  fyzz       

 Vector    7  Occ=0.000000D+00  E=-8.480485D-08
              MO Center= -1.3D-12,  3.0D-09,  8.1D-13, r^2= 3.1D+00
   Bfn.  Coefficient  Atom+Function         Bfn.  Coefficient  Atom+Function  
  ----- ------------  ---------------      ----- ------------  ---------------
     9      1.432538  1 H  py                44      1.432538  2 H  py         
     3     -0.926473  1 H  s                 38      0.926473  2 H  s          
     2      0.845744  1 H  s                 37     -0.845744  2 H  s          
    27     -0.523465  1 H  fxxy              34     -0.523465  1 H  fyzz       
    62     -0.523465  2 H  fxxy              69     -0.523465  2 H  fyzz       

 Vector    8  Occ=0.000000D+00  E=-4.656982D-08
              MO Center= -3.9D-15,  3.4D-09, -2.8D-15, r^2= 4.0D+00
   Bfn.  Coefficient  Atom+Function         Bfn.  Coefficient  Atom+Function  
  ----- ------------  ---------------      ----- ------------  ---------------
     9      3.025502  1 H  py                44     -3.025502  2 H  py         
    27     -1.332979  1 H  fxxy              34     -1.332979  1 H  fyzz       
    62      1.332979  2 H  fxxy              69      1.332979  2 H  fyzz       
    32     -1.032322  1 H  fyyy              67      1.032322  2 H  fyyy       
     6     -0.747735  1 H  py                41      0.747735  2 H  py         

 Vector    9  Occ=0.000000D+00  E=-8.819849D-09
              MO Center= -3.5D-14,  6.0D-12, -5.2D-13, r^2= 3.0D+00
   Bfn.  Coefficient  Atom+Function         Bfn.  Coefficient  Atom+Function  
  ----- ------------  ---------------      ----- ------------  ---------------
    10      1.432184  1 H  pz                45     -1.432184  2 H  pz         
    28     -0.468873  1 H  fxxz              35     -0.468873  1 H  fzzz       
    63      0.468873  2 H  fxxz              70      0.468873  2 H  fzzz       
    24      0.383854  1 H  dyz               59      0.383854  2 H  dyz        
    33     -0.345024  1 H  fyyz              68      0.345024  2 H  fyyz       

 Vector   10  Occ=0.000000D+00  E=-8.819849D-09
              MO Center=  9.7D-13,  5.5D-12, -6.9D-14, r^2= 3.0D+00
   Bfn.  Coefficient  Atom+Function         Bfn.  Coefficient  Atom+Function  
  ----- ------------  ---------------      ----- ------------  ---------------
     8      1.432184  1 H  px                43     -1.432184  2 H  px         
    26     -0.468873  1 H  fxxx              31     -0.468873  1 H  fxzz       
    61      0.468873  2 H  fxxx              66      0.468873  2 H  fxzz       
    21      0.383854  1 H  dxy               56      0.383854  2 H  dxy        
    29     -0.345024  1 H  fxyy              64      0.345024  2 H  fxyy       

 Vector   11  Occ=0.000000D+00  E= 4.201333D-01
              MO Center=  2.5D-12,  1.5D-09, -1.5D-12, r^2= 8.7D+00
   Bfn.  Coefficient  Atom+Function         Bfn.  Coefficient  Atom+Function  
  ----- ------------  ---------------      ----- ------------  ---------------
     3      2.678847  1 H  s                 38     -2.678847  2 H  s          
     4     -1.615620  1 H  s                 39      1.615620  2 H  s          
     9     -1.166104  1 H  py                44     -1.166104  2 H  py         
     2     -0.657362  1 H  s                 37      0.657362  2 H  s          
    12      0.537360  1 H  py                47      0.537360  2 H  py         

 Vector   12  Occ=0.000000D+00  E= 6.228099D-01
              MO Center= -1.0D-12,  3.5D-09,  6.2D-13, r^2= 6.0D+00
   Bfn.  Coefficient  Atom+Function         Bfn.  Coefficient  Atom+Function  
  ----- ------------  ---------------      ----- ------------  ---------------
     3      1.901170  1 H  s                 38     -1.901170  2 H  s          
     9      1.198214  1 H  py                44      1.198214  2 H  py         
     4     -1.113630  1 H  s                 39      1.113630  2 H  s          
    12     -0.887931  1 H  py                47     -0.887931  2 H  py         
     2     -0.510281  1 H  s                 37      0.510281  2 H  s          


 center of mass
 --------------
 x =   0.00000000 y =   0.00000000 z =   0.00000000

 moments of inertia (a.u.)
 ------------------
          22.620632125000           0.000000000000           0.000000000000
           0.000000000000           0.000000000000           0.000000000000
           0.000000000000           0.000000000000          22.620632125000

  Mulliken analysis of the total density
  --------------------------------------

    Atom       Charge   Shell Charges
 -----------   ------   -------------------------------------------------------
    1 H    1     1.00   0.04  0.21  0.47  0.27 -0.00  0.00 -0.00  0.00  0.00 -0.00
    2 H    1     1.00   0.04  0.21  0.47  0.27 -0.00  0.00 -0.00  0.00  0.00 -0.00

       Multipole analysis of the density wrt the origin
       ------------------------------------------------

     L   x y z        total         open         nuclear
     -   - - -        -----         ----         -------
     0   0 0 0     -0.000000      0.000000      2.000000

     1   1 0 0     -0.000000      0.000000      0.000000
     1   0 1 0     -0.000000      0.000000      0.000000
     1   0 0 1      0.000000      0.000000      0.000000

     2   2 0 0     -2.059207      0.000000      0.000000
     2   1 1 0     -0.000000      0.000000      0.000000
     2   1 0 1      0.000000      0.000000      0.000000
     2   0 2 0     -1.572421      0.000000     22.445000
     2   0 1 1      0.000000      0.000000      0.000000
     2   0 0 2     -2.059207      0.000000      0.000000


 Parallel integral file used       8 records with       0 large values

                   NWChem Extensible Many-Electron Theory Module
                   ---------------------------------------------

              ======================================================
                   This portion of the program was automatically
                  generated by a Tensor Contraction Engine (TCE).
                  The development of this portion of the program
                 and TCE was supported by US Department of Energy,
                Office of Science, Office of Basic Energy Science.
                      TCE is a product of Battelle and PNNL.
              Please cite: S.Hirata, J.Phys.Chem.A 107, 9887 (2003).
              ======================================================

                                        H2


            General Information
            -------------------
      Number of processors :     1
         Wavefunction type : Restricted Hartree-Fock
          No. of electrons :     2
           Alpha electrons :     1
            Beta electrons :     1
           No. of orbitals :   140
            Alpha orbitals :    70
             Beta orbitals :    70
        Alpha frozen cores :     0
         Beta frozen cores :     0
     Alpha frozen virtuals :     0
      Beta frozen virtuals :     0
         Spin multiplicity : singlet 
    Number of AO functions :    70
       Number of AO shells :    20
        Use of symmetry is : off
      Symmetry adaption is : off
         Schwarz screening : 0.10D-09

          Correlation Information
          -----------------------
          Calculation type : Coupled-cluster singles & doubles                           
   Perturbative correction : none                                                        
            Max iterations :      300
        Residual threshold : 0.10D-06
     T(0) DIIS level shift : 0.80D+00
     L(0) DIIS level shift : 0.00D+00
     T(1) DIIS level shift : 0.00D+00
     L(1) DIIS level shift : 0.00D+00
     T(R) DIIS level shift : 0.00D+00
     T(I) DIIS level shift : 0.00D+00
   CC-T/L Amplitude update :  5-th order DIIS
                I/O scheme : Global Array Library
        L-threshold :  0.10D-06
        EOM-threshold :  0.10D-06
 no EOMCCSD initial starts read in
 TCE RESTART OPTIONS
 READ_INT:   F
 WRITE_INT:  F
 READ_TA:    F
 WRITE_TA:   F
 READ_XA:    F
 WRITE_XA:   F
 READ_IN3:   F
 WRITE_IN3:  F
 SLICE:      F
 D4D5:       F
 quantumc:   F
 qrotation:  F
 pwtce:      F
 qducc:      T
 nacto:                         0
 nrotv:                         0
 nrot:                          0

            Memory Information
            ------------------
          Available GA space size is    1610607836 doubles
          Available MA space size is    1610610644 doubles

 Maximum block size        32 doubles

 tile_dim =     23

 Block   Spin    Irrep     Size     Offset   Alpha
 -------------------------------------------------
   1    alpha     a      1 doubles       0       1
   2    beta      a      1 doubles       1       1
   3    alpha     a     23 doubles       2       3
   4    alpha     a     23 doubles      25       4
   5    alpha     a     23 doubles      48       5
   6    beta      a     23 doubles      71       3
   7    beta      a     23 doubles      94       4
   8    beta      a     23 doubles     117       5

 Global array virtual files algorithm will be used

 Parallel file system coherency ......... OK

 Integral file          = ./H2.aoints.0
 Record size in doubles =  65536        No. of integs per rec  =  43688
 Max. records in memory =     99        Max. records in file   = 280177
 No. of bits per label  =      8        No. of bits per value  =     64


 #quartets = 1.598D+04 #integrals = 3.720D+05 #direct =  0.0% #cached =100.0%


 Fock matrix recomputed
 1-e file size   =             4900
 1-e file name   = ./H2.f1
 Cpu & wall time / sec            0.0            0.0
 4-electron integrals stored in orbital form

 v2    file size   =          6102085
 4-index algorithm nr.  13 is used
 imaxsize =       30
 imaxsize ichop =        0
 Cpu & wall time / sec            1.9            1.9
 T1-number-of-tasks                    3

 t1 file size   =               69
 t1 file name   = ./H2.t1
 t1 file handle =       -998
 T2-number-of-boxes                   15

 t2 file size   =             7935
 t2 file name   = ./H2.t2
 t2 file handle =       -996
CCSD iterations
 ---------------------------------------------------------
 Iter          Residuum       Correlation     Cpu    Wall 
 ---------------------------------------------------------
NEW TASK SCHEDULING
CCSD_T1_NTS --- OK
CCSD_T2_NTS --- OK
    1   2.8053332867708  -0.6040321031392     0.1     0.1
    2   2.6587720915701  -0.7047755085490     0.1     0.1
    3   1.5833833694657  -0.2140104060263     0.1     0.1
    4   1.8080377414210  -0.4405298867630     0.1     0.1
    5   1.8758334513251  -0.1733621208665     0.1     0.1
 MICROCYCLE DIIS UPDATE:                    5                    5
    6   0.4192712111250  -0.3019833323483     0.1     0.1
    7   0.3691935541911  -0.2947477387646     0.1     0.1
    8   0.3466394889813  -0.2615761862633     0.1     0.1
    9   0.3951039017022  -0.2693046501702     0.1     0.1
   10   0.4424828056782  -0.2356559066739     0.1     0.1
 MICROCYCLE DIIS UPDATE:                   10                    5
   11   0.0478967946366  -0.2385794280138     0.1     0.1
   12   0.0362295845551  -0.2355595920826     0.1     0.1
   13   0.0341803940588  -0.2324167403209     0.1     0.1
   14   0.0375325317703  -0.2307629566707     0.1     0.1
   15   0.0463665099258  -0.2285194114595     0.1     0.1
 MICROCYCLE DIIS UPDATE:                   15                    5
   16   0.0045138014704  -0.2234908475061     0.2     0.2
   17   0.0024989609849  -0.2234352071829     0.1     0.1
   18   0.0016679907764  -0.2232358113757     0.1     0.1
   19   0.0013539031440  -0.2231684788176     0.1     0.1
   20   0.0011427303430  -0.2230498289173     0.1     0.1
 MICROCYCLE DIIS UPDATE:                   20                    5
   21   0.0006632320506  -0.2228908509831     0.1     0.1
   22   0.0004278736704  -0.2228425695653     0.1     0.1
   23   0.0003535742234  -0.2228254038855     0.1     0.1
   24   0.0002959144988  -0.2227954289313     0.1     0.1
   25   0.0003034992227  -0.2227817141689     0.1     0.1
 MICROCYCLE DIIS UPDATE:                   25                    5
   26   0.0000960722825  -0.2227270004495     0.1     0.1
   27   0.0000586155553  -0.2227248280995     0.1     0.1
   28   0.0000422440605  -0.2227189681917     0.1     0.1
   29   0.0000378633310  -0.2227177048934     0.1     0.1
   30   0.0000367705948  -0.2227138759958     0.1     0.1
 MICROCYCLE DIIS UPDATE:                   30                    5
   31   0.0000160577463  -0.2227102365158     0.1     0.1
   32   0.0000105030386  -0.2227091805061     0.1     0.1
   33   0.0000081796265  -0.2227084824735     0.1     0.1
   34   0.0000064678828  -0.2227077987288     0.2     0.2
   35   0.0000056614090  -0.2227073184282     0.1     0.1
 MICROCYCLE DIIS UPDATE:                   35                    5
   36   0.0000022114663  -0.2227057046394     0.1     0.1
   37   0.0000015001335  -0.2227056982357     0.1     0.1
   38   0.0000011416183  -0.2227055338791     0.1     0.1
   39   0.0000010856214  -0.2227055359665     0.1     0.1
   40   0.0000011305636  -0.2227054269362     0.1     0.1
 MICROCYCLE DIIS UPDATE:                   40                    5
   41   0.0000003464694  -0.2227053580616     0.1     0.1
   42   0.0000002299413  -0.2227053373175     0.1     0.1
   43   0.0000001748604  -0.2227053205770     0.1     0.1
   44   0.0000001372927  -0.2227053071899     0.1     0.1
   45   0.0000001139890  -0.2227052957343     0.1     0.1
 MICROCYCLE DIIS UPDATE:                   45                    5
   46   0.0000000171666  -0.2227052527364     0.1     0.1
 -----------------------------------------------------------------
 Iterations converged
 CCSD correlation energy / hartree =        -0.222705252736407
 CCSD total energy / hartree       =        -1.000131862336032

 Singles contributions

 Doubles contributions
     2a   (alpha)     2a   (beta ) ---     1a   (alpha)     1a   (beta )       -0.9335878010
 Ground state specification:
 exp(T)|Ref>~(1+T)|Ref>
 ------- a(p)+/a(q) strings ----------

 singles norm

 doubles norm

 Reference string
  0.73096247922798152      :(1a)+ (1b)+ |0>

 Singles strings

 Doubles strings
 -0.68241765361168838      :(2a)+ (2b)+ (1b)  (1a)  (1a)+ (1b)+ |0>
 -------------------------------------
 enrep_tce =   0.14925373134328357     
  EHF(total)         =        -0.77742661
  Shift (HFtot-HFA)  =         0.00000000
 ALL OCCUPIED ORBITALS ARE ACTIVE IN DUCC --> NO SHIFT
 Number of active orbitals                   10
 Number of active alpha electrons                    1
 Number of active beta electrons                    1
  nos                     2
  nvs                   138
 noas                     1
 nobs                     1
 nvas                    69
 nvbs                    69
 nactv                     9
 DUCC MODEL =                     6
 NONHF =  T
 F-T1 correlation    =    2.0946514945612422E-005
 V-T1-T1 correlation =    8.5631059957843112E-010
 V-T2 correlation    =  -0.22272620010765079     
 Total correlation   =  -0.22270525273639458     
 F-T1(Ext) correlation         =   -2.3354294402549227E-007
 V-T1(Ext)-T1(Ext) correlation =    2.0250750812310973E-011
 V-T2(Ext) correlation         =    2.7663292670336794E-005
 Total Ext correlation         =    2.7429769977062115E-005
1-BODY TIME =   31.043 SECONDS.
  HHHH TIME =   25.116 SECONDS.
  PPPP TIME =   37.345 SECONDS.
  HHHP TIME =    2.613 SECONDS.
  PPPH TIME =    2.761 SECONDS.
  HPHP TIME =    4.191 SECONDS.
  HHPP TIME =    2.295 SECONDS.
 ONE-BODY UNITARY CHECK
 TWO-BODY UNITARY CHECK
 TWO-BODY ANTISYMMETRY CHECK
 TRANSFORMED ~FOCK~ MATRIX
    1    1        -0.2722222937
    1    3         0.0185990750
    1    6         0.0847739124
    1    7         0.0000000001
    1    8        -0.0356355073
    2    2        -0.1075414180
    2    7         0.0803115827
    2    8         0.0000000004
    3    1         0.0185990750
    3    3         0.5083113998
    3    6        -0.1029674929
    3    7         0.0000000008
    3    8        -0.2155911251
    4    4         0.5745547025
    5    5         0.5745547025
    6    1         0.0847739124
    6    3        -0.1029674929
    6    6         0.8558635132
    6    7        -0.0000000026
    6    8         0.3633305608
    7    1         0.0000000001
    7    2         0.0803115827
    7    3         0.0000000008
    7    6        -0.0000000026
    7    7         1.4339069403
    7    8        -0.0000000022
    8    1        -0.0356355073
    8    2         0.0000000004
    8    3        -0.2155911251
    8    6         0.3633305608
    8    7        -0.0000000022
    8    8         2.0749723265
    9    9         1.4023634768
   10   10         1.4023634768
 begin_one_electron_integrals
    1    1        -0.6543921164
    1    3         0.0260596441
    1    6        -0.0004625032
    1    8        -0.0006730442
    2    2        -0.6437567151
    2    7        -0.0019292644
    3    1         0.0260596441
    3    3        -0.0693035046
    3    6        -0.0938498057
    3    7         0.0000000004
    3    8        -0.1330088060
    4    4        -0.0047474997
    5    5        -0.0047474997
    6    1        -0.0004625032
    6    3        -0.0938498057
    6    6         0.2151758061
    6    7        -0.0000000023
    6    8         0.3530585616
    7    2        -0.0019292644
    7    3         0.0000000004
    7    6        -0.0000000023
    7    7         0.7111005060
    7    8        -0.0000000025
    8    1        -0.0006730442
    8    3        -0.1330088060
    8    6         0.3530585616
    8    7        -0.0000000025
    8    8         1.3748811326
    9    9         0.6718451114
   10   10         0.6718451114
 end_one_electron_integrals
 begin_two_electron_integrals
    1    1    1    1        0.3821698227
    1    1    1    3       -0.0074605692
    1    1    1    6        0.0852364156
    1    1    1    7        0.0000000001
    1    1    1    8       -0.0349624631
    1    2    1    2        0.2379751596
    1    2    1    7        0.0736629091
    1    2    1    8        0.0000000003
    1    3    1    1       -0.0074605692
    1    3    1    3        0.0415493136
    1    3    1    6       -0.0038703843
    1    3    1    8       -0.0143475598
    1    4    1    4        0.0406701121
    1    5    1    5        0.0406701121
    1    6    1    1        0.0852364156
    1    6    1    3       -0.0038703843
    1    6    1    6        0.0634057562
    1    6    1    8       -0.0194421437
    1    7    1    1        0.0000000001
    1    7    1    2        0.0736629091
    1    7    1    7        0.0666977504
    1    7    1    8        0.0000000002
    1    8    1    1       -0.0349624631
    1    8    1    2        0.0000000003
    1    8    1    3       -0.0143475598
    1    8    1    6       -0.0194421437
    1    8    1    7        0.0000000002
    1    8    1    8        0.0351199314
    1    9    1    9        0.0578320937
    1   10    1   10        0.0578320937
    1    1    2    2        0.3870761595
    1    1    2    7        0.0780284893
    1    1    2    8        0.0000000003
    1    2    2    1        0.2379370219
    1    2    2    3        0.0199923164
    1    2    2    6        0.0910517600
    1    2    2    7        0.0000000001
    1    2    2    8       -0.0385118174
    1    3    2    2       -0.0049048931
    1    3    2    7       -0.0078060088
    1    3    2    8       -0.0000000002
    1    4    2    9        0.0195943267
    1    4    2   10       -0.0425556345
    1    5    2    9       -0.0425556345
    1    5    2   10       -0.0195943267
    1    6    2    2        0.0887631075
    1    6    2    7        0.0653529608
    1    6    2    8        0.0000000003
    1    7    2    1        0.0738161316
    1    7    2    2        0.0000000001
    1    7    2    3       -0.0061230181
    1    7    2    6        0.0650731695
    1    7    2    8       -0.0192216338
    1    8    2    1        0.0000000003
    1    8    2    2       -0.0371945146
    1    8    2    3       -0.0000000001
    1    8    2    6        0.0000000003
    1    8    2    7       -0.0187094126
    1    9    2    4        0.0183898449
    1    9    2    5       -0.0399396993
    1   10    2    4       -0.0399396993
    1   10    2    5       -0.0183898449
    1    1    3    1       -0.0074605692
    1    1    3    3        0.3094382561
    1    1    3    6       -0.0064754429
    1    1    3    7        0.0000000002
    1    1    3    8       -0.0484714677
    1    2    3    2        0.0199956640
    1    2    3    3       -0.0000000004
    1    2    3    6       -0.0000000001
    1    2    3    7       -0.0239023509
    1    2    3    8       -0.0000000006
    1    3    3    1        0.0412616077
    1    3    3    3       -0.0256666776
    1    3    3    6       -0.0071166303
    1    3    3    8        0.0331455703
    1    4    3    4       -0.0064099252
    1    5    3    5       -0.0064099252
    1    6    3    1       -0.0038331987
    1    6    3    3        0.0343291936
    1    6    3    6       -0.0113137201
    1    6    3    7        0.0000000001
    1    6    3    8       -0.0280203007
    1    7    3    2       -0.0061520844
    1    7    3    7       -0.0133630664
    1    8    3    1       -0.0143606164
    1    8    3    2       -0.0000000001
    1    8    3    3        0.0052631741
    1    8    3    6       -0.0059387508
    1    8    3    8       -0.0051085630
    1    9    3    9       -0.0101985898
    1   10    3   10       -0.0101985898
    1    1    4    4        0.3099255389
    1    2    4    9        0.0676590866
    1    2    4   10       -0.1469443375
    1    3    4    4       -0.0188340860
    1    4    4    1        0.0405488755
    1    4    4    3       -0.0064110175
    1    4    4    6       -0.0152559554
    1    4    4    8       -0.0046225878
    1    6    4    4        0.0326618867
    1    7    4    9        0.0157685858
    1    7    4   10       -0.0342467583
    1    8    4    4       -0.0133652087
    1    8    4   10       -0.0000000002
    1    9    4    2        0.0184056879
    1    9    4    7       -0.0049492728
    1   10    4    2       -0.0399741077
    1   10    4    7        0.0107490014
    1    1    5    5        0.3099255389
    1    2    5    9       -0.1469443375
    1    2    5   10       -0.0676590866
    1    3    5    5       -0.0188340860
    1    5    5    1        0.0405488755
    1    5    5    3       -0.0064110175
    1    5    5    6       -0.0152559554
    1    5    5    8       -0.0046225878
    1    6    5    5        0.0326618867
    1    7    5    9       -0.0342467583
    1    7    5   10       -0.0157685858
    1    8    5    5       -0.0133652087
    1    8    5    9       -0.0000000002
    1    9    5    2       -0.0399741077
    1    9    5    7        0.0107490014
    1   10    5    2       -0.0184056879
    1   10    5    7        0.0049492728
    1    1    6    1        0.0852364156
    1    1    6    3       -0.0064754429
    1    1    6    6        0.3520514541
    1    1    6    7       -0.0000000001
    1    1    6    8       -0.0046120240
    1    2    6    2        0.0910495722
    1    2    6    3       -0.0000000001
    1    2    6    6        0.0000000001
    1    2    6    7        0.2049056871
    1    2    6    8        0.0000000010
    1    3    6    1       -0.0038331987
    1    3    6    3       -0.0071167455
    1    3    6    6       -0.0283330262
    1    3    6    7        0.0000000001
    1    3    6    8       -0.0284829380
    1    4    6    4       -0.0152579085
    1    5    6    5       -0.0152579085
    1    6    6    1        0.0634152010
    1    6    6    3       -0.0113176420
    1    6    6    6        0.0805183339
    1    6    6    8       -0.0092728735
    1    7    6    2        0.0650810425
    1    7    6    6        0.0000000001
    1    7    6    7        0.0852819958
    1    7    6    8        0.0000000003
    1    8    6    1       -0.0194960473
    1    8    6    2        0.0000000003
    1    8    6    3       -0.0059382112
    1    8    6    6       -0.0234667109
    1    8    6    7        0.0000000003
    1    8    6    8        0.0272589591
    1    9    6    9        0.0167132320
    1   10    6   10        0.0167132320
    1    1    7    1        0.0000000001
    1    1    7    2        0.0780284893
    1    1    7    3        0.0000000002
    1    1    7    6       -0.0000000001
    1    1    7    7        0.3947231630
    1    1    7    8        0.0000000002
    1    2    7    1        0.0738161316
    1    2    7    2        0.0000000001
    1    2    7    3       -0.0239214705
    1    2    7    6        0.2049078182
    1    2    7    7       -0.0000000005
    1    2    7    8       -0.0178374481
    1    3    7    2       -0.0078541539
    1    3    7    6        0.0000000001
    1    3    7    7       -0.0315602539
    1    4    7    9       -0.0002121770
    1    4    7   10        0.0004608134
    1    5    7    9        0.0004608134
    1    5    7   10        0.0002121770
    1    6    7    2        0.0653629486
    1    6    7    3        0.0000000001
    1    6    7    7        0.1064286800
    1    6    7    8        0.0000000002
    1    7    7    1        0.0666398917
    1    7    7    3       -0.0133518240
    1    7    7    6        0.0852904504
    1    7    7    8       -0.0113932730
    1    8    7    1        0.0000000002
    1    8    7    2       -0.0186843326
    1    8    7    6        0.0000000003
    1    8    7    7       -0.0309368403
    1    9    7    4       -0.0049537496
    1    9    7    5        0.0107587243
    1   10    7    4        0.0107587243
    1   10    7    5        0.0049537496
    1    1    8    1       -0.0349624631
    1    1    8    2        0.0000000003
    1    1    8    3       -0.0484714677
    1    1    8    6       -0.0046120240
    1    1    8    7        0.0000000002
    1    1    8    8        0.3675898891
    1    2    8    1        0.0000000003
    1    2    8    2       -0.0385203420
    1    2    8    3       -0.0000000006
    1    2    8    6        0.0000000010
    1    2    8    7       -0.0178461805
    1    2    8    8        0.0000000002
    1    3    8    1       -0.0143606164
    1    3    8    2       -0.0000000002
    1    3    8    3        0.0331435791
    1    3    8    6       -0.0284833040
    1    3    8    8       -0.0296314635
    1    4    8    4       -0.0046228791
    1    5    8    5       -0.0046228791
    1    6    8    1       -0.0194960473
    1    6    8    2        0.0000000003
    1    6    8    3       -0.0280201270
    1    6    8    6       -0.0092723669
    1    6    8    7        0.0000000002
    1    6    8    8        0.0823875511
    1    7    8    1        0.0000000002
    1    7    8    2       -0.0192052858
    1    7    8    6        0.0000000003
    1    7    8    7       -0.0113829116
    1    7    8    8        0.0000000001
    1    8    8    1        0.0350885844
    1    8    8    3       -0.0051101390
    1    8    8    6        0.0272587597
    1    8    8    7       -0.0000000001
    1    8    8    8       -0.0011515589
    1    9    8    9       -0.0120661171
    1   10    8   10       -0.0120661171
    1    1    9    9        0.3946474913
    1    2    9    4        0.0676604985
    1    2    9    5       -0.1469474039
    1    3    9    9       -0.0292742009
    1    4    9    2        0.0196115699
    1    4    9    7       -0.0002161010
    1    5    9    2       -0.0425930839
    1    5    9    7        0.0004693356
    1    6    9    9        0.0855167400
    1    7    9    4        0.0157601899
    1    7    9    5       -0.0342285240
    1    8    9    5       -0.0000000002
    1    8    9    9       -0.0282847617
    1    9    9    1        0.0587766172
    1    9    9    3       -0.0101946204
    1    9    9    6        0.0166962688
    1    9    9    8       -0.0120605011
    1    1   10   10        0.3946474913
    1    2   10    4       -0.1469474039
    1    2   10    5       -0.0676604985
    1    3   10   10       -0.0292742009
    1    4   10    2       -0.0425930839
    1    4   10    7        0.0004693356
    1    5   10    2       -0.0196115699
    1    5   10    7        0.0002161010
    1    6   10   10        0.0855167400
    1    7   10    4       -0.0342285240
    1    7   10    5       -0.0157601899
    1    8   10    4       -0.0000000002
    1    8   10   10       -0.0282847617
    1   10   10    1        0.0587766172
    1   10   10    3       -0.0101946204
    1   10   10    6        0.0166962688
    1   10   10    8       -0.0120605011
    2    1    1    2        0.2379370219
    2    1    1    7        0.0738161316
    2    1    1    8        0.0000000003
    2    2    1    1        0.3870761595
    2    2    1    3       -0.0049048931
    2    2    1    6        0.0887631075
    2    2    1    7        0.0000000001
    2    2    1    8       -0.0371945146
    2    3    1    2        0.0199923164
    2    3    1    7       -0.0061230181
    2    3    1    8       -0.0000000001
    2    4    1    9        0.0183898449
    2    4    1   10       -0.0399396993
    2    5    1    9       -0.0399396993
    2    5    1   10       -0.0183898449
    2    6    1    2        0.0910517600
    2    6    1    7        0.0650731695
    2    6    1    8        0.0000000003
    2    7    1    1        0.0780284893
    2    7    1    2        0.0000000001
    2    7    1    3       -0.0078060088
    2    7    1    6        0.0653529608
    2    7    1    8       -0.0187094126
    2    8    1    1        0.0000000003
    2    8    1    2       -0.0385118174
    2    8    1    3       -0.0000000002
    2    8    1    6        0.0000000003
    2    8    1    7       -0.0192216338
    2    9    1    4        0.0195943267
    2    9    1    5       -0.0425556345
    2   10    1    4       -0.0425556345
    2   10    1    5       -0.0195943267
    2    1    2    1        0.2379751596
    2    1    2    3        0.0199956640
    2    1    2    6        0.0910495722
    2    1    2    7        0.0000000001
    2    1    2    8       -0.0385203420
    2    2    2    2        0.3925008403
    2    2    2    7        0.0811397116
    2    2    2    8        0.0000000003
    2    3    2    1        0.0199956640
    2    3    2    3        0.0335038970
    2    3    2    6       -0.0033594647
    2    3    2    8       -0.0139537136
    2    4    2    4        0.0374602948
    2    5    2    5        0.0374602948
    2    6    2    1        0.0910495722
    2    6    2    3       -0.0033594647
    2    6    2    6        0.0667478481
    2    6    2    8       -0.0211628638
    2    7    2    1        0.0000000001
    2    7    2    2        0.0811397116
    2    7    2    7        0.0701188216
    2    7    2    8        0.0000000002
    2    8    2    1       -0.0385203420
    2    8    2    2        0.0000000003
    2    8    2    3       -0.0139537136
    2    8    2    6       -0.0211628638
    2    8    2    7        0.0000000002
    2    8    2    8        0.0362393013
    2    9    2    9        0.0625784363
    2   10    2   10        0.0625784363
    2    1    3    2        0.0199923164
    2    1    3    3       -0.0000000004
    2    1    3    6       -0.0000000001
    2    1    3    7       -0.0239214705
    2    1    3    8       -0.0000000006
    2    2    3    1       -0.0049048931
    2    2    3    3        0.3094477218
    2    2    3    6       -0.0080524184
    2    2    3    7        0.0000000002
    2    2    3    8       -0.0481787981
    2    3    3    2        0.0335038982
    2    3    3    7       -0.0065361011
    2    3    3    8       -0.0000000001
    2    4    3    9       -0.0030996863
    2    4    3   10        0.0067320057
    2    5    3    9        0.0067320057
    2    5    3   10        0.0030996863
    2    6    3    2       -0.0033594649
    2    6    3    7       -0.0133139180
    2    6    3    8       -0.0000000002
    2    7    3    1       -0.0078541539
    2    7    3    3        0.0282757761
    2    7    3    6       -0.0110063162
    2    7    3    7        0.0000000002
    2    7    3    8       -0.0280609994
    2    8    3    1       -0.0000000002
    2    8    3    2       -0.0139537139
    2    8    3    3        0.0000000002
    2    8    3    7       -0.0021451709
    2    8    3    8       -0.0000000003
    2    9    3    4       -0.0033618175
    2    9    3    5        0.0073013112
    2   10    3    4        0.0073013112
    2   10    3    5        0.0033618175
    2    1    4    9        0.0676604985
    2    1    4   10       -0.1469474039
    2    2    4    4        0.3114984110
    2    3    4    9        0.0002273438
    2    3    4   10       -0.0004937531
    2    4    4    2        0.0374602953
    2    4    4    7       -0.0169628453
    2    6    4    9        0.0214491994
    2    6    4   10       -0.0465841109
    2    7    4    4        0.0256186146
    2    8    4    4        0.0000000002
    2    8    4    9       -0.0077179791
    2    8    4   10        0.0167621731
    2    9    4    1        0.0196115699
    2    9    4    3       -0.0033618178
    2    9    4    6       -0.0034601363
    2    9    4    8       -0.0028756218
    2   10    4    1       -0.0425930839
    2   10    4    3        0.0073013119
    2   10    4    6        0.0075148433
    2   10    4    8        0.0062453746
    2    1    5    9       -0.1469474039
    2    1    5   10       -0.0676604985
    2    2    5    5        0.3114984110
    2    3    5    9       -0.0004937531
    2    3    5   10       -0.0002273438
    2    5    5    2        0.0374602953
    2    5    5    7       -0.0169628453
    2    6    5    9       -0.0465841109
    2    6    5   10       -0.0214491994
    2    7    5    5        0.0256186146
    2    8    5    5        0.0000000002
    2    8    5    9        0.0167621731
    2    8    5   10        0.0077179791
    2    9    5    1       -0.0425930839
    2    9    5    3        0.0073013119
    2    9    5    6        0.0075148433
    2    9    5    8        0.0062453746
    2   10    5    1       -0.0196115699
    2   10    5    3        0.0033618178
    2   10    5    6        0.0034601363
    2   10    5    8        0.0028756218
    2    1    6    2        0.0910517600
    2    1    6    3       -0.0000000001
    2    1    6    6        0.0000000001
    2    1    6    7        0.2049078182
    2    1    6    8        0.0000000010
    2    2    6    1        0.0887631075
    2    2    6    3       -0.0080524184
    2    2    6    6        0.3548939640
    2    2    6    7       -0.0000000001
    2    2    6    8       -0.0068704188
    2    3    6    2       -0.0033594649
    2    3    6    7       -0.0016402807
    2    4    6    9        0.0028617643
    2    4    6   10       -0.0062152784
    2    5    6    9       -0.0062152784
    2    5    6   10       -0.0028617643
    2    6    6    2        0.0667478486
    2    6    6    6        0.0000000001
    2    6    6    7        0.0947074912
    2    6    6    8        0.0000000005
    2    7    6    1        0.0653629486
    2    7    6    3       -0.0110063167
    2    7    6    6        0.0806792636
    2    7    6    8       -0.0088454314
    2    8    6    1        0.0000000003
    2    8    6    2       -0.0211628637
    2    8    6    6        0.0000000004
    2    8    6    7       -0.0288015041
    2    9    6    4       -0.0034601359
    2    9    6    5        0.0075148426
    2   10    6    4        0.0075148426
    2   10    6    5        0.0034601359
    2    1    7    1        0.0736629091
    2    1    7    2        0.0000000001
    2    1    7    3       -0.0239023509
    2    1    7    6        0.2049056871
    2    1    7    7       -0.0000000005
    2    1    7    8       -0.0178461805
    2    2    7    1        0.0000000001
    2    2    7    2        0.0811397116
    2    2    7    3        0.0000000002
    2    2    7    6       -0.0000000001
    2    2    7    7        0.3991452188
    2    2    7    8        0.0000000003
    2    3    7    1       -0.0061520844
    2    3    7    3       -0.0065360981
    2    3    7    6       -0.0016402805
    2    3    7    7        0.0000000002
    2    3    7    8       -0.0191302308
    2    4    7    4       -0.0169628441
    2    5    7    5       -0.0169628441
    2    6    7    1        0.0650810425
    2    6    7    3       -0.0133139182
    2    6    7    6        0.0947074920
    2    6    7    7       -0.0000000001
    2    6    7    8       -0.0115153024
    2    7    7    2        0.0701188264
    2    7    7    3        0.0000000002
    2    7    7    7        0.1072400812
    2    7    7    8        0.0000000001
    2    8    7    1       -0.0192052858
    2    8    7    2        0.0000000002
    2    8    7    3       -0.0021451724
    2    8    7    6       -0.0288015032
    2    8    7    7        0.0000000004
    2    8    7    8        0.0254452425
    2    9    7    9        0.0093364241
    2   10    7   10        0.0093364241
    2    1    8    1        0.0000000003
    2    1    8    2       -0.0385118174
    2    1    8    3       -0.0000000006
    2    1    8    6        0.0000000010
    2    1    8    7       -0.0178374481
    2    1    8    8        0.0000000002
    2    2    8    1       -0.0371945146
    2    2    8    2        0.0000000003
    2    2    8    3       -0.0481787981
    2    2    8    6       -0.0068704188
    2    2    8    7        0.0000000003
    2    2    8    8        0.3706091129
    2    3    8    1       -0.0000000001
    2    3    8    2       -0.0139537139
    2    3    8    3       -0.0000000001
    2    3    8    7       -0.0191302279
    2    3    8    8       -0.0000000003
    2    4    8    9       -0.0036824326
    2    4    8   10        0.0079976341
    2    5    8    9        0.0079976341
    2    5    8   10        0.0036824326
    2    6    8    1        0.0000000003
    2    6    8    2       -0.0211628637
    2    6    8    3       -0.0000000002
    2    6    8    6        0.0000000005
    2    6    8    7       -0.0115153036
    2    6    8    8        0.0000000002
    2    7    8    1       -0.0186843326
    2    7    8    2        0.0000000002
    2    7    8    3       -0.0280609981
    2    7    8    6       -0.0088454316
    2    7    8    7        0.0000000001
    2    7    8    8        0.0766121649
    2    8    8    2        0.0362393026
    2    8    8    3       -0.0000000003
    2    8    8    7        0.0254452401
    2    8    8    8        0.0000000007
    2    9    8    4       -0.0028756230
    2    9    8    5        0.0062453772
    2    9    8    9        0.0000000001
    2   10    8    4        0.0062453772
    2   10    8    5        0.0028756230
    2   10    8   10        0.0000000001
    2    1    9    4        0.0676590866
    2    1    9    5       -0.1469443375
    2    2    9    9        0.3989196332
    2    3    9    4        0.0002273435
    2    3    9    5       -0.0004937526
    2    4    9    1        0.0184056879
    2    4    9    3       -0.0030996869
    2    4    9    6        0.0028617640
    2    4    9    8       -0.0036824316
    2    5    9    1       -0.0399741077
    2    5    9    3        0.0067320070
    2    5    9    6       -0.0062152778
    2    5    9    8        0.0079976318
    2    6    9    4        0.0214491995
    2    6    9    5       -0.0465841111
    2    7    9    9        0.0775679559
    2    8    9    4       -0.0077179792
    2    8    9    5        0.0167621734
    2    8    9    9        0.0000000004
    2    9    9    2        0.0625784420
    2    9    9    7        0.0093364223
    2    9    9    8        0.0000000001
    2    1   10    4       -0.1469443375
    2    1   10    5       -0.0676590866
    2    2   10   10        0.3989196332
    2    3   10    4       -0.0004937526
    2    3   10    5       -0.0002273435
    2    4   10    1       -0.0399741077
    2    4   10    3        0.0067320070
    2    4   10    6       -0.0062152778
    2    4   10    8        0.0079976318
    2    5   10    1       -0.0184056879
    2    5   10    3        0.0030996869
    2    5   10    6       -0.0028617640
    2    5   10    8        0.0036824316
[...]
    9    5    3    3        0.0000000002
    9    5    3    7        0.0116589778
    9    5    3    8        0.0000000004
    9    6    3    9       -0.0040422455
    9    7    3    4       -0.0002106972
    9    7    3    5        0.0004575993
    9    8    3    9       -0.0070857837
    9    9    3    1       -0.0292742009
    9    9    3    3        0.3222754234
    9    9    3    6       -0.0074400470
    9    9    3    7        0.0000000003
    9    9    3    8       -0.0664925861
    9    1    4    2        0.0183898449
    9    1    4    7       -0.0049537496
    9    2    4    1        0.0195943267
    9    2    4    3       -0.0033618175
    9    2    4    6       -0.0034601359
    9    2    4    8       -0.0028756230
    9    3    4    2       -0.0030996863
    9    3    4    7        0.0008409920
    9    4    4    9        0.0333546582
    9    4    4   10       -0.0482399901
    9    5    4    9       -0.0482399901
    9    5    4   10        0.0936262351
    9    6    4    2        0.0028617643
    9    6    4    7        0.0035190313
    9    7    4    1       -0.0002121770
    9    7    4    3       -0.0002107013
    9    7    4    6        0.0050133803
    9    7    4    8        0.0003424661
    9    8    4    2       -0.0036824326
    9    8    4    7        0.0013767385
    9    9    4    4        0.3251975927
    9    9    4    5       -0.0102396149
    9   10    4    4       -0.0102396149
    9   10    4    5        0.0087620023
    9    1    5    2       -0.0399396993
    9    1    5    7        0.0107587243
    9    2    5    1       -0.0425556345
    9    2    5    3        0.0073013112
    9    2    5    6        0.0075148426
    9    2    5    8        0.0062453772
    9    3    5    2        0.0067320057
    9    3    5    7       -0.0018264955
    9    4    5    9       -0.0482399901
    9    4    5   10       -0.0110685939
    9    5    5    9        0.1159122995
    9    5    5   10        0.0482399901
    9    6    5    2       -0.0062152784
    9    6    5    7       -0.0076427535
    9    7    5    1        0.0004608134
    9    7    5    3        0.0004576084
    9    7    5    6       -0.0108882321
    9    7    5    8       -0.0007437796
    9    8    5    2        0.0079976341
    9    8    5    7       -0.0029900481
    9    9    5    4       -0.0102396149
    9    9    5    5        0.3427216107
    9   10    5    4        0.0087620157
    9   10    5    5        0.0102396149
    9    1    6    9        0.0166962688
    9    2    6    4       -0.0034601363
    9    2    6    5        0.0075148433
    9    3    6    9       -0.0040422455
    9    4    6    2        0.0214491994
    9    4    6    7        0.0581713829
    9    4    6    8        0.0000000003
    9    5    6    2       -0.0465841109
    9    5    6    7       -0.1263386156
    9    5    6    8       -0.0000000006
    9    6    6    9        0.0149167359
    9    7    6    4        0.0050133791
    9    7    6    5       -0.0108882295
    9    8    6    9       -0.0013377367
    9    9    6    1        0.0855167400
    9    9    6    3       -0.0074400470
    9    9    6    6        0.3655265211
    9    9    6    7       -0.0000000002
    9    9    6    8        0.0134812524
    9    1    7    4       -0.0049492728
    9    1    7    5        0.0107490014
    9    2    7    9        0.0093364223
    9    3    7    4        0.0008409970
    9    3    7    5       -0.0018265064
    9    4    7    1        0.0157685858
    9    4    7    3       -0.0053682617
    9    4    7    6        0.0581713834
    9    4    7    7       -0.0000000002
    9    4    7    8        0.0005368316
    9    5    7    1       -0.0342467583
    9    5    7    3        0.0116589760
    9    5    7    6       -0.1263386165
    9    5    7    7        0.0000000004
    9    5    7    8       -0.0011659093
    9    6    7    4        0.0035190305
    9    6    7    5       -0.0076427517
    9    7    7    9        0.0173687985
    9    8    7    4        0.0013767381
    9    8    7    5       -0.0029900474
    9    9    7    2        0.0775679559
    9    9    7    3        0.0000000003
    9    9    7    6       -0.0000000002
    9    9    7    7        0.4109593860
    9    9    7    8        0.0000000002
    9    1    8    9       -0.0120605011
    9    2    8    4       -0.0028756218
    9    2    8    5        0.0062453746
    9    2    8    9        0.0000000001
    9    3    8    9       -0.0070857837
    9    4    8    2       -0.0077179791
    9    4    8    3       -0.0000000002
    9    4    8    6        0.0000000003
    9    4    8    7        0.0005368309
    9    4    8    8        0.0000000001
    9    5    8    1       -0.0000000002
    9    5    8    2        0.0167621731
    9    5    8    3        0.0000000004
    9    5    8    6       -0.0000000006
    9    5    8    7       -0.0011659079
    9    5    8    8       -0.0000000003
    9    6    8    9       -0.0013377367
    9    7    8    4        0.0003424651
    9    7    8    5       -0.0007437775
    9    8    8    9        0.0156977240
    9    9    8    1       -0.0282847617
    9    9    8    2        0.0000000004
    9    9    8    3       -0.0664925861
    9    9    8    6        0.0134812524
    9    9    8    7        0.0000000002
    9    9    8    8        0.3847143775
    9    1    9    1        0.0578320937
    9    1    9    3       -0.0101985898
    9    1    9    6        0.0167132320
    9    1    9    8       -0.0120661171
    9    2    9    2        0.0625784363
    9    2    9    7        0.0093364241
    9    2    9    8        0.0000000001
    9    3    9    1       -0.0101985898
    9    3    9    3        0.0114569008
    9    3    9    6       -0.0040422453
    9    3    9    8       -0.0070857849
    9    4    9    4        0.0333546489
    9    4    9    5       -0.0482399824
    9    5    9    4       -0.0482399824
    9    5    9    5        0.1159122770
    9    6    9    1        0.0167132320
    9    6    9    3       -0.0040422453
    9    6    9    6        0.0149167279
    9    6    9    8       -0.0013377370
    9    7    9    2        0.0093364241
    9    7    9    7        0.0173687830
    9    8    9    1       -0.0120661171
    9    8    9    2        0.0000000001
    9    8    9    3       -0.0070857849
    9    8    9    6       -0.0013377370
    9    8    9    8        0.0156977223
    9    9    9    9        0.4572471114
    9   10    9   10        0.0220727746
    9    4   10    4       -0.0482399824
    9    4   10    5       -0.0110686072
    9    5   10    4        0.0936262353
    9    5   10    5        0.0482399824
    9    9   10   10        0.4131015779
    9   10   10    9        0.0220727589
   10    1    1   10        0.0587766172
   10    2    1    4       -0.0425930839
   10    2    1    5       -0.0196115699
   10    3    1   10       -0.0101946204
   10    4    1    2       -0.1469474039
   10    4    1    7       -0.0342285240
   10    4    1    8       -0.0000000002
   10    5    1    2       -0.0676604985
   10    5    1    7       -0.0157601899
   10    6    1   10        0.0166962688
   10    7    1    4        0.0004693356
   10    7    1    5        0.0002161010
   10    8    1   10       -0.0120605011
   10   10    1    1        0.3946474913
   10   10    1    3       -0.0292742009
   10   10    1    6        0.0855167400
   10   10    1    8       -0.0282847617
   10    1    2    4       -0.0399741077
   10    1    2    5       -0.0184056879
   10    2    2   10        0.0625784420
   10    3    2    4        0.0067320070
   10    3    2    5        0.0030996869
   10    4    2    1       -0.1469443375
   10    4    2    3       -0.0004937526
   10    4    2    6       -0.0465841111
   10    4    2    8        0.0167621734
   10    5    2    1       -0.0676590866
   10    5    2    3       -0.0002273435
   10    5    2    6       -0.0214491995
   10    5    2    8        0.0077179792
   10    6    2    4       -0.0062152778
   10    6    2    5       -0.0028617640
   10    7    2   10        0.0093364223
   10    8    2    4        0.0079976318
   10    8    2    5        0.0036824316
   10    8    2   10        0.0000000001
   10   10    2    2        0.3989196332
   10   10    2    7        0.0775679559
   10   10    2    8        0.0000000004
   10    1    3   10       -0.0101946204
   10    2    3    4        0.0073013119
   10    2    3    5        0.0033618178
   10    3    3   10        0.0114569040
   10    4    3    2       -0.0004937531
   10    4    3    3        0.0000000002
   10    4    3    7        0.0116589778
   10    4    3    8        0.0000000004
   10    5    3    2       -0.0002273438
   10    5    3    3        0.0000000001
   10    5    3    7        0.0053682626
   10    5    3    8        0.0000000002
   10    6    3   10       -0.0040422455
   10    7    3    4        0.0004575993
   10    7    3    5        0.0002106972
   10    8    3   10       -0.0070857837
   10   10    3    1       -0.0292742009
   10   10    3    3        0.3222754234
   10   10    3    6       -0.0074400470
   10   10    3    7        0.0000000003
   10   10    3    8       -0.0664925861
   10    1    4    2       -0.0399396993
   10    1    4    7        0.0107587243
   10    2    4    1       -0.0425556345
   10    2    4    3        0.0073013112
   10    2    4    6        0.0075148426
   10    2    4    8        0.0062453772
   10    3    4    2        0.0067320057
   10    3    4    7       -0.0018264955
   10    4    4    9       -0.0482399901
   10    4    4   10        0.1159122995
   10    5    4    9       -0.0110685939
   10    5    4   10        0.0482399901
   10    6    4    2       -0.0062152784
   10    6    4    7       -0.0076427535
   10    7    4    1        0.0004608134
   10    7    4    3        0.0004576084
   10    7    4    6       -0.0108882321
   10    7    4    8       -0.0007437796
   10    8    4    2        0.0079976341
   10    8    4    7       -0.0029900481
   10    9    4    4       -0.0102396149
   10    9    4    5        0.0087620157
   10   10    4    4        0.3427216107
   10   10    4    5        0.0102396149
   10    1    5    2       -0.0183898449
   10    1    5    7        0.0049537496
   10    2    5    1       -0.0195943267
   10    2    5    3        0.0033618175
   10    2    5    6        0.0034601359
   10    2    5    8        0.0028756230
   10    3    5    2        0.0030996863
   10    3    5    7       -0.0008409920
   10    4    5    9        0.0936262351
   10    4    5   10        0.0482399901
   10    5    5    9        0.0482399901
   10    5    5   10        0.0333546582
   10    6    5    2       -0.0028617643
   10    6    5    7       -0.0035190313
   10    7    5    1        0.0002121770
   10    7    5    3        0.0002107013
   10    7    5    6       -0.0050133803
   10    7    5    8       -0.0003424661
   10    8    5    2        0.0036824326
   10    8    5    7       -0.0013767385
   10    9    5    4        0.0087620023
   10    9    5    5        0.0102396149
   10   10    5    4        0.0102396149
   10   10    5    5        0.3251975927
   10    1    6   10        0.0166962688
   10    2    6    4        0.0075148433
   10    2    6    5        0.0034601363
   10    3    6   10       -0.0040422455
   10    4    6    2       -0.0465841109
   10    4    6    7       -0.1263386156
   10    4    6    8       -0.0000000006
   10    5    6    2       -0.0214491994
   10    5    6    7       -0.0581713829
   10    5    6    8       -0.0000000003
   10    6    6   10        0.0149167359
   10    7    6    4       -0.0108882295
   10    7    6    5       -0.0050133791
   10    8    6   10       -0.0013377367
   10   10    6    1        0.0855167400
   10   10    6    3       -0.0074400470
   10   10    6    6        0.3655265211
   10   10    6    7       -0.0000000002
   10   10    6    8        0.0134812524
   10    1    7    4        0.0107490014
   10    1    7    5        0.0049492728
   10    2    7   10        0.0093364223
   10    3    7    4       -0.0018265064
   10    3    7    5       -0.0008409970
   10    4    7    1       -0.0342467583
   10    4    7    3        0.0116589760
   10    4    7    6       -0.1263386165
   10    4    7    7        0.0000000004
   10    4    7    8       -0.0011659093
   10    5    7    1       -0.0157685858
   10    5    7    3        0.0053682617
   10    5    7    6       -0.0581713834
   10    5    7    7        0.0000000002
   10    5    7    8       -0.0005368316
   10    6    7    4       -0.0076427517
   10    6    7    5       -0.0035190305
   10    7    7   10        0.0173687985
   10    8    7    4       -0.0029900474
   10    8    7    5       -0.0013767381
   10   10    7    2        0.0775679559
   10   10    7    3        0.0000000003
   10   10    7    6       -0.0000000002
   10   10    7    7        0.4109593860
   10   10    7    8        0.0000000002
   10    1    8   10       -0.0120605011
   10    2    8    4        0.0062453746
   10    2    8    5        0.0028756218
   10    2    8   10        0.0000000001
   10    3    8   10       -0.0070857837
   10    4    8    1       -0.0000000002
   10    4    8    2        0.0167621731
   10    4    8    3        0.0000000004
   10    4    8    6       -0.0000000006
   10    4    8    7       -0.0011659079
   10    4    8    8       -0.0000000003
   10    5    8    2        0.0077179791
   10    5    8    3        0.0000000002
   10    5    8    6       -0.0000000003
   10    5    8    7       -0.0005368309
   10    5    8    8       -0.0000000001
   10    6    8   10       -0.0013377367
   10    7    8    4       -0.0007437775
   10    7    8    5       -0.0003424651
   10    8    8   10        0.0156977240
   10   10    8    1       -0.0282847617
   10   10    8    2        0.0000000004
   10   10    8    3       -0.0664925861
   10   10    8    6        0.0134812524
   10   10    8    7        0.0000000002
   10   10    8    8        0.3847143775
   10    4    9    4       -0.0482399824
   10    4    9    5        0.0936262353
   10    5    9    4       -0.0110686072
   10    5    9    5        0.0482399824
   10    9    9   10        0.0220727589
   10   10    9    9        0.4131015779
   10    1   10    1        0.0578320937
   10    1   10    3       -0.0101985898
   10    1   10    6        0.0167132320
   10    1   10    8       -0.0120661171
   10    2   10    2        0.0625784363
   10    2   10    7        0.0093364241
   10    2   10    8        0.0000000001
   10    3   10    1       -0.0101985898
   10    3   10    3        0.0114569008
   10    3   10    6       -0.0040422453
   10    3   10    8       -0.0070857849
   10    4   10    4        0.1159122770
   10    4   10    5        0.0482399824
   10    5   10    4        0.0482399824
   10    5   10    5        0.0333546489
   10    6   10    1        0.0167132320
   10    6   10    3       -0.0040422453
   10    6   10    6        0.0149167279
   10    6   10    8       -0.0013377370
   10    7   10    2        0.0093364241
   10    7   10    7        0.0173687830
   10    8   10    1       -0.0120661171
   10    8   10    2        0.0000000001
   10    8   10    3       -0.0070857849
   10    8   10    6       -0.0013377370
   10    8   10    8        0.0156977223
   10    9   10    9        0.0220727746
   10   10   10   10        0.4572471114
 end_two_electron_integrals

 Parallel integral file used       9 records with       0 large values


 Task  times  cpu:      139.8s     wall:      141.6s


                                NWChem Input Module
                                -------------------


 Summary of allocated global arrays
-----------------------------------
  No active global arrays


MA_summarize_allocated_blocks: starting scan ...
MA_summarize_allocated_blocks: scan completed: 0 heap blocks, 0 stack blocks
MA usage statistics:

	allocation statistics:
					      heap	     stack
					      ----	     -----
	current number of blocks	         0	         0
	maximum number of blocks	        18	        42
	current total bytes		         0	         0
	maximum total bytes		  51983048	9994007128
	maximum total K-bytes		     51984	   9994008
	maximum total M-bytes		        52	      9995


                                     CITATION
                                     --------
                Please cite the following reference when publishing
                           results obtained with NWChem:

          E. Apra, E. J. Bylaska, W. A. de Jong, N. Govind, K. Kowalski,
       T. P. Straatsma, M. Valiev, H. J. J. van Dam, Y. Alexeev, J. Anchell,
       V. Anisimov, F. W. Aquino, R. Atta-Fynn, J. Autschbach, N. P. Bauman,
     J. C. Becca, D. E. Bernholdt, K. Bhaskaran-Nair, S. Bogatko, P. Borowski,
         J. Boschen, J. Brabec, A. Bruner, E. Cauet, Y. Chen, G. N. Chuev,
      C. J. Cramer, J. Daily, M. J. O. Deegan, T. H. Dunning Jr., M. Dupuis,
   K. G. Dyall, G. I. Fann, S. A. Fischer, A. Fonari, H. Fruchtl, L. Gagliardi,
      J. Garza, N. Gawande, S. Ghosh, K. Glaesemann, A. W. Gotz, J. Hammond,
       V. Helms, E. D. Hermes, K. Hirao, S. Hirata, M. Jacquelin, L. Jensen,
   B. G. Johnson, H. Jonsson, R. A. Kendall, M. Klemm, R. Kobayashi, V. Konkov,
      S. Krishnamoorthy, M. Krishnan, Z. Lin, R. D. Lins, R. J. Littlefield,
      A. J. Logsdail, K. Lopata, W. Ma, A. V. Marenich, J. Martin del Campo,
   D. Mejia-Rodriguez, J. E. Moore, J. M. Mullin, T. Nakajima, D. R. Nascimento,
    J. A. Nichols, P. J. Nichols, J. Nieplocha, A. Otero-de-la-Roza, B. Palmer,
    A. Panyala, T. Pirojsirikul, B. Peng, R. Peverati, J. Pittner, L. Pollack,
   R. M. Richard, P. Sadayappan, G. C. Schatz, W. A. Shelton, D. W. Silverstein,
   D. M. A. Smith, T. A. Soares, D. Song, M. Swart, H. L. Taylor, G. S. Thomas,
            V. Tipparaju, D. G. Truhlar, K. Tsemekhman, T. Van Voorhis,
      A. Vazquez-Mayagoitia, P. Verma, O. Villa, A. Vishnu, K. D. Vogiatzis,
        D. Wang, J. H. Weare, M. J. Williamson, T. L. Windus, K. Wolinski,
        A. T. Wong, Q. Wu, C. Yang, Q. Yu, M. Zacharias, Z. Zhang, Y. Zhao,
                                and R. J. Harrison
                        "NWChem: Past, present, and future
                         J. Chem. Phys. 152, 184102 (2020)
                               doi:10.1063/5.0004997

                                      AUTHORS
                                      -------
  E. Apra, E. J. Bylaska, N. Govind, K. Kowalski, M. Valiev, D. Mejia-Rodriguez,
       A. Kunitsa, N. P. Bauman, A. Panyala, W. A. de Jong, T. P. Straatsma,
        H. J. J. van Dam, D. Wang, T. L. Windus, J. Hammond, J. Autschbach,
    K. Bhaskaran-Nair, J. Brabec, K. Lopata, S. A. Fischer, S. Krishnamoorthy,
     M. Jacquelin, W. Ma, M. Klemm, O. Villa, Y. Chen, V. Anisimov, F. Aquino,
    S. Hirata, M. T. Hackler, Eric Hermes, L. Jensen, J. E. Moore, J. C. Becca,
      V. Konjkov, T. Risthaus, M. Malagoli, A. Marenich, A. Otero-de-la-Roza,
        J. Mullin, P. Nichols, R. Peverati, J. Pittner, Y. Zhao, P.-D. Fan,
        A. Fonari, M. J. Williamson, R. J. Harrison, J. R. Rehr, M. Dupuis,
     D. Silverstein, D. M. A. Smith, J. Nieplocha, V. Tipparaju, M. Krishnan,
     B. E. Van Kuiken, A. Vazquez-Mayagoitia, M. Swart, Q. Wu, T. Van Voorhis,
     A. A. Auer, M. Nooijen, L. D. Crosby, E. Brown, G. Cisneros, G. I. Fann,
   H. Fruchtl, J. Garza, K. Hirao, R. A. Kendall, J. A. Nichols, K. Tsemekhman,
    K. Wolinski, J. Anchell, D. E. Bernholdt, P. Borowski, T. Clark, D. Clerc,
   H. Dachsel, M. J. O. Deegan, K. Dyall, D. Elwood, E. Glendening, M. Gutowski,
   A. C. Hess, J. Jaffe, B. G. Johnson, J. Ju, R. Kobayashi, R. Kutteh, Z. Lin,
   R. Littlefield, X. Long, B. Meng, T. Nakajima, S. Niu, L. Pollack, M. Rosing,
   K. Glaesemann, G. Sandrone, M. Stave, H. Taylor, G. Thomas, J. H. van Lenthe,
                               A. T. Wong, Z. Zhang.

 Total times  cpu:      141.2s     wall:      143.2s
