 argument  1 = input.nw
  NWChem w/ OpenMP: maximum threads =    1



============================== echo of input deck ==============================
 echo
 start H2
 title "H2"

 memory total 24 gb

 geometry units bohr
 symmetry c1
        H  0.00000000  0.00000000  0.00000000
        H  0.00000000  2.00  0.00000000
 end

 basis
   * library cc-pVQZ
 end

 mcscf
   active  10
   actelec 2
   multiplicity 1
   maxiter 40
   vectors input H2.mos
   vectors output H2.mos
 end

 task mcscf

 scf
   vectors input H2.mos
   vectors output H2-2.00.mos
   noscf
 end

 tce
   2eorb
   2emet 13
   ccsd
   maxiter 300
   lshift 0.8
 end

# set tce:print_integrals T
# set tce:qorb 10
# set tce:qela 1
# set tce:qelb 1

 set tce:qducc T
 set tce:nactv 9
 set tce:nonhf T
 set tce:ducc_model 3

 set tce:printtol 0.02

 task tce
================================================================================


                                         
                                         


             Northwest Computational Chemistry Package (NWChem) 7.0.1
             --------------------------------------------------------


                    Environmental Molecular Sciences Laboratory
                       Pacific Northwest National Laboratory
                                Richland, WA 99352

                              Copyright (c) 1994-2020
                       Pacific Northwest National Laboratory
                            Battelle Memorial Institute

             NWChem is an open-source computational chemistry package
                        distributed under the terms of the
                      Educational Community License (ECL) 2.0
             A copy of the license is included with this distribution
                              in the LICENSE.TXT file

                                  ACKNOWLEDGMENT
                                  --------------

            This software and its documentation were developed at the
            EMSL at Pacific Northwest National Laboratory, a multiprogram
            national laboratory, operated for the U.S. Department of Energy
            by Battelle under Contract Number DE-AC05-76RL01830. Support
            for this work was provided by the Department of Energy Office
            of Biological and Environmental Research, Office of Basic
            Energy Sciences, and the Office of Advanced Scientific Computing.


           Job information
           ---------------

    hostname        = WE46210
    program         = /home/baum612/code/nwchem/bin/LINUX64/nwchem
    date            = Fri Nov 10 21:53:20 2023

    compiled        = Mon_Nov_06_10:06:57_2023
    source          = /home/baum612/code/nwchem
    nwchem branch   = 7.0.0
    nwchem revision = nwchem_on_git-4191-g39d87d64de
    ga revision     = 5.8.1
    use scalapack   = F
    input           = input.nw
    prefix          = H2.
    data base       = ./H2.db
    status          = startup
    nproc           =        1
    time left       =     -1s



           Memory information
           ------------------

    heap     =  805306362 doubles =   6144.0 Mbytes
    stack    =  805306367 doubles =   6144.0 Mbytes
    global   = 1610612736 doubles =  12288.0 Mbytes (distinct from heap & stack)
    total    = 3221225465 doubles =  24576.0 Mbytes
    verify   = yes
    hardfail = no 


           Directory information
           ---------------------

  0 permanent = .
  0 scratch   = .




                                NWChem Input Module
                                -------------------


                                        H2
                                        --
 Turning off AUTOSYM since
 SYMMETRY directive was detected!


          ------
          auto-z
          ------
     1 autoz failed with cvr_scaling = 1.2 changing to 1.3
     2 autoz failed with cvr_scaling = 1.3 changing to 1.4
  no constraints, skipping    0.0000000000000000     
  no constraints, skipping    0.0000000000000000     


                             Geometry "geometry" -> ""
                             -------------------------

 Output coordinates in a.u. (scale by  1.000000000 to convert to a.u.)

  No.       Tag          Charge          X              Y              Z
 ---- ---------------- ---------- -------------- -------------- --------------
    1 H                    1.0000     0.00000000    -1.00000000     0.00000000
    2 H                    1.0000     0.00000000     1.00000000     0.00000000

      Atomic Mass 
      ----------- 

      H                  1.007825


 Effective nuclear repulsion energy (a.u.)       0.5000000000

            Nuclear Dipole moment (a.u.) 
            ----------------------------
        X                 Y               Z
 ---------------- ---------------- ----------------
     0.0000000000     0.0000000000     0.0000000000



                                Z-matrix (autoz)
                                -------- 

 Units are Angstrom for bonds and degrees for angles

      Type          Name      I     J     K     L     M      Value
      ----------- --------  ----- ----- ----- ----- ----- ----------
    1 Stretch                  1     2                       1.05835


            XYZ format geometry
            -------------------
     2
 geometry
 H                     0.00000000    -0.52917725     0.00000000
 H                     0.00000000     0.52917725     0.00000000



 Summary of "ao basis" -> "" (cartesian)
 ------------------------------------------------------------------------------
       Tag                 Description            Shells   Functions and Types
 ---------------- ------------------------------  ------  ---------------------
 *                          cc-pVQZ                   on all atoms 


                      Basis "ao basis" -> "ao basis" (cartesian)
                      -----
  H (Hydrogen)
  ------------
            Exponent  Coefficients 
       -------------- ---------------------------------------------------------
  1 S  8.26400000E+01  0.002006
  1 S  1.24100000E+01  0.015343
  1 S  2.82400000E+00  0.075579

  2 S  7.97700000E-01  1.000000

  3 S  2.58100000E-01  1.000000

  4 S  8.98900000E-02  1.000000

  5 P  2.29200000E+00  1.000000

  6 P  8.38000000E-01  1.000000

  7 P  2.92000000E-01  1.000000

  8 D  2.06200000E+00  1.000000

  9 D  6.62000000E-01  1.000000

 10 F  1.39700000E+00  1.000000



 Summary of "ao basis" -> "ao basis" (cartesian)
 ------------------------------------------------------------------------------
       Tag                 Description            Shells   Functions and Types
 ---------------- ------------------------------  ------  ---------------------
 H                          cc-pVQZ                 10       35   4s3p2d1f



                            NWChem Direct MCSCF Module
                            --------------------------


                                        H2


     -----------------------------------
       Basis functions:             70
       Inactive shells:              0
       Active shells:               10
       Active electrons:             2
       Symmetry:                    a       
       Multiplicity:                 1
       Orbital rotations:          600
     -----------------------------------

     -----------------------------------
       E2 extrapolation:             F
       Conjugacy:                    T
       Micro CI relax:               T
       Canonical orbitals:           T
       Maximum iterations:          40
       Converge threshold:    1.00E-04
       Conjugacy resets:            20
       Initial levelshift:        0.10
     -----------------------------------

 Loading old vectors from job with title :

H2


   input molecular orbitals = ./H2.mos
  output molecular orbtials = ./H2.mos

       No. of determinants:           100


  Starting Orbital Energies
    -0.542808    -0.024742    -0.003945    -0.003169    -0.003169    -0.000330
    -0.000258    -0.000210    -0.000210    -0.000114     0.416072     0.880398
     1.082364     1.317286     1.317286     1.411251     1.411251     1.921574
     1.921574     1.988098     2.012330     2.250278     2.250278     2.422373
     2.422373     2.945712     2.968163     3.059298     3.059298     3.747705
     4.359549     4.359549     4.385555     4.385555     4.428322     5.686418
     5.686418     5.849045     5.849045     5.881419     6.368189     6.368189
     6.396495     6.396495     7.208403     7.402127     7.402127     8.100356
     8.100356     8.104586     8.104586     8.313067     8.313067     8.436850
     8.436850     8.746948     8.916171     9.421332     9.421332     9.484395
     9.622312     9.752507     9.752507    10.082454    10.126370    10.126370
    10.753625    12.985196    22.514441    26.214224

  Orbital Symmetry Irreps
a    a    a    a    a    a    a    a    a    a    a    a    a    a    a   
a    a    a    a    a    a    a    a    a    a    a    a    a    a    a   
a    a    a    a    a    a    a    a    a    a    a    a    a    a    a   
a    a    a    a    a    a    a    a    a    a    a    a    a    a    a   
a    a    a    a    a    a    a    a    a    a   

 Integral file          = ./H2.aoints.0
 Record size in doubles =  65536        No. of integs per rec  =  43688
 Max. records in memory =     99        Max. records in file   = 280203
 No. of bits per label  =      8        No. of bits per value  =     64


 #quartets = 2.216D+04 #integrals = 8.606D+05 #direct =  0.0% #cached =100.0%




          %%%%% MacroIteration   1 %%%%%


          Number of sigma calls:       17
                       o<<<<< (aa):             0.00
                       o<<<<< (bb):             0.00
                       o<<<<< (ab):             0.02
                       o<<<<< (total)           0.02
                       o<<<<< (aa) ff           0.00
                       o<<<<< (aa) gop          0.00
                       o<<<<< (aa) dot          0.00
                       o<<<<< (ab) str          0.00
                       o<<<<< (ab) gath         0.00
                       o<<<<< (ab) dotab        0.00
                       o<<<<< (ab) scat         0.00
                       o<<<<< (ab) sync         0.00
                       o<<<<< Density           0.00
                       o<<<<< Density one       0.00
                       o<<<<< Density two       0.00
                       o<<<<< Density ab        0.00
                       o<<<<< Spin adapt        0.00
                       o<<<<< Symm adapt        0.00

                       o<<<<< (ab) max sync:      0.00

           >>>| Valence CI:             -1.636133220902
           >>>| MCSCF energy:           -1.136133220902
           >>>| Gradient norm:          0.105695859D-01
     --- Warning:  300 Hessian diagonals < 0.05 ---

                              ----- Line search ------

        step       energy         lsg     num-lsg   num-lsh   lsrat    time
      ------- ---------------- --------- --------- --------- ------- --------
       0.0000      -1.13613322 -6.87D-06  0.00D+00  0.00D+00 0.0D+00      0.2

          Number of sigma calls:       15
                       o<<<<< (aa):             0.00
                       o<<<<< (bb):             0.00
                       o<<<<< (ab):             0.02
                       o<<<<< (total)           0.02
                       o<<<<< (aa) ff           0.00
                       o<<<<< (aa) gop          0.00
                       o<<<<< (aa) dot          0.00
                       o<<<<< (ab) str          0.00
                       o<<<<< (ab) gath         0.00
                       o<<<<< (ab) dotab        0.00
                       o<<<<< (ab) scat         0.00
                       o<<<<< (ab) sync         0.00
                       o<<<<< Density           0.00
                       o<<<<< Density one       0.00
                       o<<<<< Density two       0.00
                       o<<<<< Density ab        0.00
                       o<<<<< Spin adapt        0.00
                       o<<<<< Symm adapt        0.00

                       o<<<<< (ab) max sync:      0.00
       1.0000      -1.13613747 -1.62D-06 -1.62D-06  5.26D-06 2.3D-01      0.4

          Number of sigma calls:       14
                       o<<<<< (aa):             0.00
                       o<<<<< (bb):             0.00
                       o<<<<< (ab):             0.01
                       o<<<<< (total)           0.02
                       o<<<<< (aa) ff           0.00
                       o<<<<< (aa) gop          0.00
                       o<<<<< (aa) dot          0.00
                       o<<<<< (ab) str          0.00
                       o<<<<< (ab) gath         0.00
                       o<<<<< (ab) dotab        0.00
                       o<<<<< (ab) scat         0.00
                       o<<<<< (ab) sync         0.00
                       o<<<<< Density           0.00
                       o<<<<< Density one       0.00
                       o<<<<< Density two       0.00
                       o<<<<< Density ab        0.00
                       o<<<<< Spin adapt        0.00
                       o<<<<< Symm adapt        0.00

                       o<<<<< (ab) max sync:      0.00
       1.3072      -1.13613771  2.01D-09  1.93D-09  5.26D-06 2.9D-04      0.6
     --- Orbitals canonicalized ---



          %%%%% MacroIteration   2 %%%%%


          Number of sigma calls:       16
                       o<<<<< (aa):             0.00
                       o<<<<< (bb):             0.00
                       o<<<<< (ab):             0.02
                       o<<<<< (total)           0.02
                       o<<<<< (aa) ff           0.00
                       o<<<<< (aa) gop          0.00
                       o<<<<< (aa) dot          0.00
                       o<<<<< (ab) str          0.00
                       o<<<<< (ab) gath         0.00
                       o<<<<< (ab) dotab        0.00
                       o<<<<< (ab) scat         0.00
                       o<<<<< (ab) sync         0.00
                       o<<<<< Density           0.00
                       o<<<<< Density one       0.00
                       o<<<<< Density two       0.00
                       o<<<<< Density ab        0.00
                       o<<<<< Spin adapt        0.00
                       o<<<<< Symm adapt        0.00

                       o<<<<< (ab) max sync:      0.00

           >>>| Valence CI:             -1.636137713675
           >>>| MCSCF energy:           -1.136137713675
           >>>| Gradient norm:          0.292929288D-02
     --- Warning:  316 Hessian diagonals < 0.05 ---
     --- Conjugacy reset ---

                              ----- Line search ------

        step       energy         lsg     num-lsg   num-lsh   lsrat    time
      ------- ---------------- --------- --------- --------- ------- --------
       0.0000      -1.13613771 -7.08D-07  0.00D+00  0.00D+00 0.0D+00      0.9

          Number of sigma calls:       12
                       o<<<<< (aa):             0.00
                       o<<<<< (bb):             0.00
                       o<<<<< (ab):             0.01
                       o<<<<< (total)           0.01
                       o<<<<< (aa) ff           0.00
                       o<<<<< (aa) gop          0.00
                       o<<<<< (aa) dot          0.00
                       o<<<<< (ab) str          0.00
                       o<<<<< (ab) gath         0.00
                       o<<<<< (ab) dotab        0.00
                       o<<<<< (ab) scat         0.00
                       o<<<<< (ab) sync         0.00
                       o<<<<< Density           0.00
                       o<<<<< Density one       0.00
                       o<<<<< Density two       0.00
                       o<<<<< Density ab        0.00
                       o<<<<< Spin adapt        0.00
                       o<<<<< Symm adapt        0.00

                       o<<<<< (ab) max sync:      0.00
       1.0000      -1.13613819 -2.45D-07 -2.45D-07  4.63D-07 3.5D-01      1.1

          Number of sigma calls:       12
                       o<<<<< (aa):             0.00
                       o<<<<< (bb):             0.00
                       o<<<<< (ab):             0.02
                       o<<<<< (total)           0.02
                       o<<<<< (aa) ff           0.00
                       o<<<<< (aa) gop          0.00
                       o<<<<< (aa) dot          0.00
                       o<<<<< (ab) str          0.00
                       o<<<<< (ab) gath         0.00
                       o<<<<< (ab) dotab        0.00
                       o<<<<< (ab) scat         0.00
                       o<<<<< (ab) sync         0.00
                       o<<<<< Density           0.00
                       o<<<<< Density one       0.00
                       o<<<<< Density two       0.00
                       o<<<<< Density ab        0.00
                       o<<<<< Spin adapt        0.00
                       o<<<<< Symm adapt        0.00

                       o<<<<< (ab) max sync:      0.00
       1.5295      -1.13613826  2.57D-10  2.44D-10  4.64D-07 3.6D-04      1.4



          %%%%% MacroIteration   3 %%%%%


          Number of sigma calls:        1
                       o<<<<< (aa):             0.00
                       o<<<<< (bb):             0.00
                       o<<<<< (ab):             0.00
                       o<<<<< (total)           0.00
                       o<<<<< (aa) ff           0.00
                       o<<<<< (aa) gop          0.00
                       o<<<<< (aa) dot          0.00
                       o<<<<< (ab) str          0.00
                       o<<<<< (ab) gath         0.00
                       o<<<<< (ab) dotab        0.00
                       o<<<<< (ab) scat         0.00
                       o<<<<< (ab) sync         0.00
                       o<<<<< Density           0.00
                       o<<<<< Density one       0.00
                       o<<<<< Density two       0.00
                       o<<<<< Density ab        0.00
                       o<<<<< Spin adapt        0.00
                       o<<<<< Symm adapt        0.00

                       o<<<<< (ab) max sync:      0.00

           >>>| Valence CI:             -1.636138255350
           >>>| MCSCF energy:           -1.136138255350
           >>>| Gradient norm:          0.144936407D-02
     --- Warning:  312 Hessian diagonals < 0.05 ---

                              ----- Line search ------

        step       energy         lsg     num-lsg   num-lsh   lsrat    time
      ------- ---------------- --------- --------- --------- ------- --------
       0.0000      -1.13613826 -1.31D-07  0.00D+00  0.00D+00 0.0D+00      1.5

          Number of sigma calls:       12
                       o<<<<< (aa):             0.00
                       o<<<<< (bb):             0.00
                       o<<<<< (ab):             0.01
                       o<<<<< (total)           0.01
                       o<<<<< (aa) ff           0.00
                       o<<<<< (aa) gop          0.00
                       o<<<<< (aa) dot          0.00
                       o<<<<< (ab) str          0.00
                       o<<<<< (ab) gath         0.00
                       o<<<<< (ab) dotab        0.00
                       o<<<<< (ab) scat         0.00
                       o<<<<< (ab) sync         0.00
                       o<<<<< Density           0.00
                       o<<<<< Density one       0.00
                       o<<<<< Density two       0.00
                       o<<<<< Density ab        0.00
                       o<<<<< Spin adapt        0.00
                       o<<<<< Symm adapt        0.00

                       o<<<<< (ab) max sync:      0.00
       1.0000      -1.13613834 -4.43D-08 -4.43D-08  8.68D-08 3.4D-01      1.7

          Number of sigma calls:       11
                       o<<<<< (aa):             0.00
                       o<<<<< (bb):             0.00
                       o<<<<< (ab):             0.01
                       o<<<<< (total)           0.01
                       o<<<<< (aa) ff           0.00
                       o<<<<< (aa) gop          0.00
                       o<<<<< (aa) dot          0.00
                       o<<<<< (ab) str          0.00
                       o<<<<< (ab) gath         0.00
                       o<<<<< (ab) dotab        0.00
                       o<<<<< (ab) scat         0.00
                       o<<<<< (ab) sync         0.00
                       o<<<<< Density           0.00
                       o<<<<< Density one       0.00
                       o<<<<< Density two       0.00
                       o<<<<< Density ab        0.00
                       o<<<<< Spin adapt        0.00
                       o<<<<< Symm adapt        0.00

                       o<<<<< (ab) max sync:      0.00
       1.5105      -1.13613835  1.50D-11  1.41D-11  8.68D-08 1.1D-04      1.9



          %%%%% MacroIteration   4 %%%%%


          Number of sigma calls:        1
                       o<<<<< (aa):             0.00
                       o<<<<< (bb):             0.00
                       o<<<<< (ab):             0.00
                       o<<<<< (total)           0.00
                       o<<<<< (aa) ff           0.00
                       o<<<<< (aa) gop          0.00
                       o<<<<< (aa) dot          0.00
                       o<<<<< (ab) str          0.00
                       o<<<<< (ab) gath         0.00
                       o<<<<< (ab) dotab        0.00
                       o<<<<< (ab) scat         0.00
                       o<<<<< (ab) sync         0.00
                       o<<<<< Density           0.00
                       o<<<<< Density one       0.00
                       o<<<<< Density two       0.00
                       o<<<<< Density ab        0.00
                       o<<<<< Spin adapt        0.00
                       o<<<<< Symm adapt        0.00

                       o<<<<< (ab) max sync:      0.00

           >>>| Valence CI:             -1.636138354387
           >>>| MCSCF energy:           -1.136138354387
           >>>| Gradient norm:          0.747918744D-03
     --- Warning:  312 Hessian diagonals < 0.05 ---

                              ----- Line search ------

        step       energy         lsg     num-lsg   num-lsh   lsrat    time
      ------- ---------------- --------- --------- --------- ------- --------
       0.0000      -1.13613835 -4.22D-08  0.00D+00  0.00D+00 0.0D+00      2.0

          Number of sigma calls:       11
                       o<<<<< (aa):             0.00
                       o<<<<< (bb):             0.00
                       o<<<<< (ab):             0.01
                       o<<<<< (total)           0.01
                       o<<<<< (aa) ff           0.00
                       o<<<<< (aa) gop          0.00
                       o<<<<< (aa) dot          0.00
                       o<<<<< (ab) str          0.00
                       o<<<<< (ab) gath         0.00
                       o<<<<< (ab) dotab        0.00
                       o<<<<< (ab) scat         0.00
                       o<<<<< (ab) sync         0.00
                       o<<<<< Density           0.00
                       o<<<<< Density one       0.00
                       o<<<<< Density two       0.00
                       o<<<<< Density ab        0.00
                       o<<<<< Spin adapt        0.00
                       o<<<<< Symm adapt        0.00

                       o<<<<< (ab) max sync:      0.00
       1.0000      -1.13613839 -3.16D-08 -3.16D-08  1.06D-08 7.5D-01      2.2

          Number of sigma calls:       13
                       o<<<<< (aa):             0.00
                       o<<<<< (bb):             0.00
                       o<<<<< (ab):             0.01
                       o<<<<< (total)           0.02
                       o<<<<< (aa) ff           0.00
                       o<<<<< (aa) gop          0.00
                       o<<<<< (aa) dot          0.00
                       o<<<<< (ab) str          0.00
                       o<<<<< (ab) gath         0.00
                       o<<<<< (ab) dotab        0.00
                       o<<<<< (ab) scat         0.00
                       o<<<<< (ab) sync         0.00
                       o<<<<< Density           0.00
                       o<<<<< Density one       0.00
                       o<<<<< Density two       0.00
                       o<<<<< Density ab        0.00
                       o<<<<< Spin adapt        0.00
                       o<<<<< Symm adapt        0.00

                       o<<<<< (ab) max sync:      0.00
       3.9857      -1.13613844  4.20D-11  3.67D-11  1.06D-08 1.0D-03      2.4



          %%%%% MacroIteration   5 %%%%%


          Number of sigma calls:        1
                       o<<<<< (aa):             0.00
                       o<<<<< (bb):             0.00
                       o<<<<< (ab):             0.00
                       o<<<<< (total)           0.00
                       o<<<<< (aa) ff           0.00
                       o<<<<< (aa) gop          0.00
                       o<<<<< (aa) dot          0.00
                       o<<<<< (ab) str          0.00
                       o<<<<< (ab) gath         0.00
                       o<<<<< (ab) dotab        0.00
                       o<<<<< (ab) scat         0.00
                       o<<<<< (ab) sync         0.00
                       o<<<<< Density           0.00
                       o<<<<< Density one       0.00
                       o<<<<< Density two       0.00
                       o<<<<< Density ab        0.00
                       o<<<<< Spin adapt        0.00
                       o<<<<< Symm adapt        0.00

                       o<<<<< (ab) max sync:      0.00

           >>>| Valence CI:             -1.636138438403
           >>>| MCSCF energy:           -1.136138438403
           >>>| Gradient norm:          0.320220938D-03
     --- Warning:  312 Hessian diagonals < 0.05 ---

                              ----- Line search ------

        step       energy         lsg     num-lsg   num-lsh   lsrat    time
      ------- ---------------- --------- --------- --------- ------- --------
       0.0000      -1.13613844 -2.12D-07  0.00D+00  0.00D+00 0.0D+00      2.7

          Number of sigma calls:       12
                       o<<<<< (aa):             0.00
                       o<<<<< (bb):             0.00
                       o<<<<< (ab):             0.01
                       o<<<<< (total)           0.01
                       o<<<<< (aa) ff           0.00
                       o<<<<< (aa) gop          0.00
                       o<<<<< (aa) dot          0.00
                       o<<<<< (ab) str          0.00
                       o<<<<< (ab) gath         0.00
                       o<<<<< (ab) dotab        0.00
                       o<<<<< (ab) scat         0.00
                       o<<<<< (ab) sync         0.00
                       o<<<<< Density           0.00
                       o<<<<< Density one       0.00
                       o<<<<< Density two       0.00
                       o<<<<< Density ab        0.00
                       o<<<<< Spin adapt        0.00
                       o<<<<< Symm adapt        0.00

                       o<<<<< (ab) max sync:      0.00
       1.0000      -1.13613859 -9.64D-08 -9.65D-08  1.15D-07 4.6D-01      2.9

          Number of sigma calls:       11
                       o<<<<< (aa):             0.00
                       o<<<<< (bb):             0.00
                       o<<<<< (ab):             0.00
                       o<<<<< (total)           0.00
                       o<<<<< (aa) ff           0.00
                       o<<<<< (aa) gop          0.00
                       o<<<<< (aa) dot          0.00
                       o<<<<< (ab) str          0.00
                       o<<<<< (ab) gath         0.00
                       o<<<<< (ab) dotab        0.00
                       o<<<<< (ab) scat         0.00
                       o<<<<< (ab) sync         0.00
                       o<<<<< Density           0.00
                       o<<<<< Density one       0.00
                       o<<<<< Density two       0.00
                       o<<<<< Density ab        0.00
                       o<<<<< Spin adapt        0.00
                       o<<<<< Symm adapt        0.00

                       o<<<<< (ab) max sync:      0.00
       1.8371      -1.13613863  8.14D-10  7.53D-10  1.16D-07 3.8D-03      3.0



          %%%%% MacroIteration   6 %%%%%


          Number of sigma calls:        1
                       o<<<<< (aa):             0.00
                       o<<<<< (bb):             0.00
                       o<<<<< (ab):             0.00
                       o<<<<< (total)           0.00
                       o<<<<< (aa) ff           0.00
                       o<<<<< (aa) gop          0.00
                       o<<<<< (aa) dot          0.00
                       o<<<<< (ab) str          0.00
                       o<<<<< (ab) gath         0.00
                       o<<<<< (ab) dotab        0.00
                       o<<<<< (ab) scat         0.00
                       o<<<<< (ab) sync         0.00
                       o<<<<< Density           0.00
                       o<<<<< Density one       0.00
                       o<<<<< Density two       0.00
                       o<<<<< Density ab        0.00
                       o<<<<< Spin adapt        0.00
                       o<<<<< Symm adapt        0.00

                       o<<<<< (ab) max sync:      0.00

           >>>| Valence CI:             -1.636138632632
           >>>| MCSCF energy:           -1.136138632632
           >>>| Gradient norm:          0.186829008D-03
     --- Warning:  312 Hessian diagonals < 0.05 ---

                              ----- Line search ------

        step       energy         lsg     num-lsg   num-lsh   lsrat    time
      ------- ---------------- --------- --------- --------- ------- --------
       0.0000      -1.13613863 -3.04D-08  0.00D+00  0.00D+00 0.0D+00      3.1

          Number of sigma calls:        9
                       o<<<<< (aa):             0.00
                       o<<<<< (bb):             0.00
                       o<<<<< (ab):             0.01
                       o<<<<< (total)           0.02
                       o<<<<< (aa) ff           0.00
                       o<<<<< (aa) gop          0.00
                       o<<<<< (aa) dot          0.00
                       o<<<<< (ab) str          0.00
                       o<<<<< (ab) gath         0.00
                       o<<<<< (ab) dotab        0.00
                       o<<<<< (ab) scat         0.00
                       o<<<<< (ab) sync         0.00
                       o<<<<< Density           0.00
                       o<<<<< Density one       0.00
                       o<<<<< Density two       0.00
                       o<<<<< Density ab        0.00
                       o<<<<< Spin adapt        0.00
                       o<<<<< Symm adapt        0.00

                       o<<<<< (ab) max sync:      0.00
       1.0000      -1.13613866 -1.79D-08 -1.79D-08  1.25D-08 5.9D-01      3.3

          Number of sigma calls:       10
                       o<<<<< (aa):             0.00
                       o<<<<< (bb):             0.00
                       o<<<<< (ab):             0.00
                       o<<<<< (total)           0.00
                       o<<<<< (aa) ff           0.00
                       o<<<<< (aa) gop          0.00
                       o<<<<< (aa) dot          0.00
                       o<<<<< (ab) str          0.00
                       o<<<<< (ab) gath         0.00
                       o<<<<< (ab) dotab        0.00
                       o<<<<< (ab) scat         0.00
                       o<<<<< (ab) sync         0.00
                       o<<<<< Density           0.00
                       o<<<<< Density one       0.00
                       o<<<<< Density two       0.00
                       o<<<<< Density ab        0.00
                       o<<<<< Spin adapt        0.00
                       o<<<<< Symm adapt        0.00

                       o<<<<< (ab) max sync:      0.00
       2.4285      -1.13613867  3.62D-11  3.26D-11  1.25D-08 1.2D-03      3.4



          %%%%% MacroIteration   7 %%%%%


          Number of sigma calls:        1
                       o<<<<< (aa):             0.00
                       o<<<<< (bb):             0.00
                       o<<<<< (ab):             0.00
                       o<<<<< (total)           0.00
                       o<<<<< (aa) ff           0.00
                       o<<<<< (aa) gop          0.00
                       o<<<<< (aa) dot          0.00
                       o<<<<< (ab) str          0.00
                       o<<<<< (ab) gath         0.00
                       o<<<<< (ab) dotab        0.00
                       o<<<<< (ab) scat         0.00
                       o<<<<< (ab) sync         0.00
                       o<<<<< Density           0.00
                       o<<<<< Density one       0.00
                       o<<<<< Density two       0.00
                       o<<<<< Density ab        0.00
                       o<<<<< Spin adapt        0.00
                       o<<<<< Symm adapt        0.00

                       o<<<<< (ab) max sync:      0.00

           >>>| Valence CI:             -1.636138669489
           >>>| MCSCF energy:           -1.136138669489
           >>>| Gradient norm:          0.275986181D-03
     --- Warning:  312 Hessian diagonals < 0.05 ---

                              ----- Line search ------

        step       energy         lsg     num-lsg   num-lsh   lsrat    time
      ------- ---------------- --------- --------- --------- ------- --------
       0.0000      -1.13613867 -5.75D-09  0.00D+00  0.00D+00 0.0D+00      3.5

          Number of sigma calls:        9
                       o<<<<< (aa):             0.00
                       o<<<<< (bb):             0.00
                       o<<<<< (ab):             0.00
                       o<<<<< (total)           0.00
                       o<<<<< (aa) ff           0.00
                       o<<<<< (aa) gop          0.00
                       o<<<<< (aa) dot          0.00
                       o<<<<< (ab) str          0.00
                       o<<<<< (ab) gath         0.00
                       o<<<<< (ab) dotab        0.00
                       o<<<<< (ab) scat         0.00
                       o<<<<< (ab) sync         0.00
                       o<<<<< Density           0.00
                       o<<<<< Density one       0.00
                       o<<<<< Density two       0.00
                       o<<<<< Density ab        0.00
                       o<<<<< Spin adapt        0.00
                       o<<<<< Symm adapt        0.00

                       o<<<<< (ab) max sync:      0.00
       1.0000      -1.13613867 -3.16D-09 -3.16D-09  2.59D-09 5.5D-01      3.6

          Number of sigma calls:       10
                       o<<<<< (aa):             0.00
                       o<<<<< (bb):             0.00
                       o<<<<< (ab):             0.01
                       o<<<<< (total)           0.01
                       o<<<<< (aa) ff           0.00
                       o<<<<< (aa) gop          0.00
                       o<<<<< (aa) dot          0.00
                       o<<<<< (ab) str          0.00
                       o<<<<< (ab) gath         0.00
                       o<<<<< (ab) dotab        0.00
                       o<<<<< (ab) scat         0.00
                       o<<<<< (ab) sync         0.00
                       o<<<<< Density           0.00
                       o<<<<< Density one       0.00
                       o<<<<< Density two       0.00
                       o<<<<< Density ab        0.00
                       o<<<<< Spin adapt        0.00
                       o<<<<< Symm adapt        0.00

                       o<<<<< (ab) max sync:      0.00
       2.2239      -1.13613868  5.34D-13  4.83D-13  2.59D-09 9.3D-05      3.7



          %%%%% MacroIteration   8 %%%%%


          Number of sigma calls:        1
                       o<<<<< (aa):             0.00
                       o<<<<< (bb):             0.00
                       o<<<<< (ab):             0.00
                       o<<<<< (total)           0.00
                       o<<<<< (aa) ff           0.00
                       o<<<<< (aa) gop          0.00
                       o<<<<< (aa) dot          0.00
                       o<<<<< (ab) str          0.00
                       o<<<<< (ab) gath         0.00
                       o<<<<< (ab) dotab        0.00
                       o<<<<< (ab) scat         0.00
                       o<<<<< (ab) sync         0.00
                       o<<<<< Density           0.00
                       o<<<<< Density one       0.00
                       o<<<<< Density two       0.00
                       o<<<<< Density ab        0.00
                       o<<<<< Spin adapt        0.00
                       o<<<<< Symm adapt        0.00

                       o<<<<< (ab) max sync:      0.00

           >>>| Valence CI:             -1.636138675881
           >>>| MCSCF energy:           -1.136138675881
           >>>| Gradient norm:          0.216869362D-03
     --- Warning:  312 Hessian diagonals < 0.05 ---

                              ----- Line search ------

        step       energy         lsg     num-lsg   num-lsh   lsrat    time
      ------- ---------------- --------- --------- --------- ------- --------
       0.0000      -1.13613868 -3.44D-09  0.00D+00  0.00D+00 0.0D+00      3.7

          Number of sigma calls:        8
                       o<<<<< (aa):             0.00
                       o<<<<< (bb):             0.00
                       o<<<<< (ab):             0.01
                       o<<<<< (total)           0.01
                       o<<<<< (aa) ff           0.00
                       o<<<<< (aa) gop          0.00
                       o<<<<< (aa) dot          0.00
                       o<<<<< (ab) str          0.00
                       o<<<<< (ab) gath         0.00
                       o<<<<< (ab) dotab        0.00
                       o<<<<< (ab) scat         0.00
                       o<<<<< (ab) sync         0.00
                       o<<<<< Density           0.00
                       o<<<<< Density one       0.00
                       o<<<<< Density two       0.00
                       o<<<<< Density ab        0.00
                       o<<<<< Spin adapt        0.00
                       o<<<<< Symm adapt        0.00

                       o<<<<< (ab) max sync:      0.00
       1.0000      -1.13613868 -2.33D-09 -2.33D-09  1.12D-09 6.8D-01      3.9

          Number of sigma calls:        9
                       o<<<<< (aa):             0.00
                       o<<<<< (bb):             0.00
                       o<<<<< (ab):             0.00
                       o<<<<< (total)           0.00
                       o<<<<< (aa) ff           0.00
                       o<<<<< (aa) gop          0.00
                       o<<<<< (aa) dot          0.00
                       o<<<<< (ab) str          0.00
                       o<<<<< (ab) gath         0.00
                       o<<<<< (ab) dotab        0.00
                       o<<<<< (ab) scat         0.00
                       o<<<<< (ab) sync         0.00
                       o<<<<< Density           0.00
                       o<<<<< Density one       0.00
                       o<<<<< Density two       0.00
                       o<<<<< Density ab        0.00
                       o<<<<< Spin adapt        0.00
                       o<<<<< Symm adapt        0.00

                       o<<<<< (ab) max sync:      0.00
       3.0847      -1.13613868 -1.72D-13 -1.57D-13  1.12D-09 5.0D-05      4.0



          %%%%% MacroIteration   9 %%%%%


          Number of sigma calls:        1
                       o<<<<< (aa):             0.00
                       o<<<<< (bb):             0.00
                       o<<<<< (ab):             0.00
                       o<<<<< (total)           0.00
                       o<<<<< (aa) ff           0.00
                       o<<<<< (aa) gop          0.00
                       o<<<<< (aa) dot          0.00
                       o<<<<< (ab) str          0.00
                       o<<<<< (ab) gath         0.00
                       o<<<<< (ab) dotab        0.00
                       o<<<<< (ab) scat         0.00
                       o<<<<< (ab) sync         0.00
                       o<<<<< Density           0.00
                       o<<<<< Density one       0.00
                       o<<<<< Density two       0.00
                       o<<<<< Density ab        0.00
                       o<<<<< Spin adapt        0.00
                       o<<<<< Symm adapt        0.00

                       o<<<<< (ab) max sync:      0.00

           >>>| Valence CI:             -1.636138681190
           >>>| MCSCF energy:           -1.136138681190
           >>>| Gradient norm:          0.737976134D-04




     ==============================
            MCSCF Converged
     ==============================



          Canonical Eigenvalues

              1      
    1   -0.5369
    2   -0.0260
    3   -0.0038
    4   -0.0031
    5   -0.0031
    6   -0.0003
    7   -0.0003
    8   -0.0002
    9   -0.0002
   10   -0.0001
   11    0.4191
   12    0.8815
   13    1.0818
   14    1.3199
   15    1.3199
   16    1.4210
   17    1.4210
   18    1.9221
   19    1.9221
   20    2.0179
   21    2.0256
   22    2.2302
   23    2.2302
   24    2.4094
   25    2.4094
   26    2.9469
   27    2.9478
   28    3.0442
   29    3.0442
   30    3.7529
   31    4.3706
   32    4.3706
   33    4.3852
   34    4.3852
   35    4.3917
   36    5.6651
   37    5.6651
   38    5.7285
   39    5.8666
   40    5.8666
   41    6.3022
   42    6.3022
   43    6.3414
   44    6.3414
   45    7.1298
   46    7.3233
   47    7.3233
   48    8.1085
   49    8.1085
   50    8.1769
   51    8.1769
   52    8.3028
   53    8.3028
   54    8.4368
   55    8.4368
   56    8.6947
   57    8.9501
   58    9.2967
   59    9.2967
   60    9.5040
   61    9.6485
   62    9.7402
   63    9.7402
   64    9.9850
   65   10.0307
   66   10.0307
   67   10.6795
   68   12.7614
   69   22.5155
   70   26.0910


          Converged CI vector

   Index           Coefficient          Config. Occupation
         1         -0.98286675          1  1
        12          0.16192035          2  2
        23          0.05129694          3  3
        34          0.04628033          4  4
        45          0.04628033          5  5

          Number of sigma calls:        1
                       o<<<<< (aa):             0.00
                       o<<<<< (bb):             0.00
                       o<<<<< (ab):             0.00
                       o<<<<< (total)           0.00
                       o<<<<< (aa) ff           0.00
                       o<<<<< (aa) gop          0.00
                       o<<<<< (aa) dot          0.00
                       o<<<<< (ab) str          0.00
                       o<<<<< (ab) gath         0.00
                       o<<<<< (ab) dotab        0.00
                       o<<<<< (ab) scat         0.00
                       o<<<<< (ab) sync         0.00
                       o<<<<< Density           0.00
                       o<<<<< Density one       0.00
                       o<<<<< Density two       0.00
                       o<<<<< Density ab        0.00
                       o<<<<< Spin adapt        0.00
                       o<<<<< Symm adapt        0.00

                       o<<<<< (ab) max sync:      0.00



          Natural orbital occupation numbers

              1      
    1    1.9328
    2    0.0524
    3    0.0053
    4    0.0043
    5    0.0043
    6    0.0003
    7    0.0002
    8    0.0002
    9    0.0002
   10    0.0001


          Number of sigma calls:       16
                       o<<<<< (aa):             0.00
                       o<<<<< (bb):             0.00
                       o<<<<< (ab):             0.01
                       o<<<<< (total)           0.01
                       o<<<<< (aa) ff           0.00
                       o<<<<< (aa) gop          0.00
                       o<<<<< (aa) dot          0.00
                       o<<<<< (ab) str          0.00
                       o<<<<< (ab) gath         0.00
                       o<<<<< (ab) dotab        0.00
                       o<<<<< (ab) scat         0.00
                       o<<<<< (ab) sync         0.00
                       o<<<<< Density           0.00
                       o<<<<< Density one       0.00
                       o<<<<< Density two       0.00
                       o<<<<< Density ab        0.00
                       o<<<<< Spin adapt        0.00
                       o<<<<< Symm adapt        0.00

                       o<<<<< (ab) max sync:      0.00


       Final MCSCF results 
       ------------------- 

       Total MCSCF energy =     -1.136138681190
            Gradient norm =      7.4D-05

    CPU time for solution =      4.3s
   Wall time for solution =      5.6s



                        Analysis of MCSCF natural orbitals
                        ----------------------------------

 Vector    1  Occ=1.932760D+00  E=-5.369393D-01  Symmetry=a
              MO Center= -6.3D-16,  7.8D-13,  3.4D-16, r^2= 9.4D-01
   Bfn.  Coefficient  Atom+Function         Bfn.  Coefficient  Atom+Function  
  ----- ------------  ---------------      ----- ------------  ---------------
     3      0.279276  1 H  s                 38      0.279276  2 H  s          
     2      0.162325  1 H  s                 37      0.162325  2 H  s          

 Vector    2  Occ=5.244504D-02  E=-2.604581D-02  Symmetry=a
              MO Center= -3.1D-15,  4.9D-13,  1.6D-15, r^2= 9.6D-01
   Bfn.  Coefficient  Atom+Function         Bfn.  Coefficient  Atom+Function  
  ----- ------------  ---------------      ----- ------------  ---------------
     3      0.550780  1 H  s                 38     -0.550780  2 H  s          
     2      0.374207  1 H  s                 37     -0.374207  2 H  s          

 Vector    3  Occ=5.314641D-03  E=-3.834140D-03  Symmetry=a
              MO Center= -6.9D-15,  8.6D-12,  4.3D-15, r^2= 1.8D+00
   Bfn.  Coefficient  Atom+Function         Bfn.  Coefficient  Atom+Function  
  ----- ------------  ---------------      ----- ------------  ---------------
     2      0.431221  1 H  s                 37      0.431221  2 H  s          
     4     -0.376137  1 H  s                 39     -0.376137  2 H  s          
     9      0.366588  1 H  py                44     -0.366588  2 H  py         
     3     -0.201360  1 H  s                 38     -0.201360  2 H  s          

 Vector    4  Occ=4.283738D-03  E=-3.100511D-03  Symmetry=a
              MO Center=  9.4D-15,  7.1D-12, -5.0D-16, r^2= 9.4D-01
   Bfn.  Coefficient  Atom+Function         Bfn.  Coefficient  Atom+Function  
  ----- ------------  ---------------      ----- ------------  ---------------
    11      0.387458  1 H  px                46      0.387458  2 H  px         
    21      0.185649  1 H  dxy               56     -0.185649  2 H  dxy        
     8      0.158927  1 H  px                43      0.158927  2 H  px         

 Vector    5  Occ=4.283738D-03  E=-3.100511D-03  Symmetry=a
              MO Center= -1.1D-15,  7.1D-12, -2.2D-15, r^2= 9.4D-01
   Bfn.  Coefficient  Atom+Function         Bfn.  Coefficient  Atom+Function  
  ----- ------------  ---------------      ----- ------------  ---------------
    13      0.387458  1 H  pz                48      0.387458  2 H  pz         
    24      0.185649  1 H  dyz               59     -0.185649  2 H  dyz        
    10      0.158927  1 H  pz                45      0.158927  2 H  pz         

 Vector    6  Occ=2.930683D-04  E=-3.298177D-04  Symmetry=a
              MO Center= -2.7D-15, -3.4D-11,  1.1D-15, r^2= 8.2D-01
   Bfn.  Coefficient  Atom+Function         Bfn.  Coefficient  Atom+Function  
  ----- ------------  ---------------      ----- ------------  ---------------
     2      0.725529  1 H  s                 37      0.725529  2 H  s          
     9     -0.582577  1 H  py                44      0.582577  2 H  py         
    12     -0.273615  1 H  py                47      0.273615  2 H  py         
    23     -0.184053  1 H  dyy               58     -0.184053  2 H  dyy        
    27      0.159062  1 H  fxxy              34      0.159062  1 H  fyzz       

 Vector    7  Occ=2.078125D-04  E=-2.532890D-04  Symmetry=a
              MO Center= -6.2D-13,  6.8D-11,  3.7D-13, r^2= 1.2D+00
   Bfn.  Coefficient  Atom+Function         Bfn.  Coefficient  Atom+Function  
  ----- ------------  ---------------      ----- ------------  ---------------
     2      0.776943  1 H  s                 37     -0.776943  2 H  s          
     3     -0.360367  1 H  s                 38      0.360367  2 H  s          
     4     -0.279984  1 H  s                 39      0.279984  2 H  s          
     1      0.165126  1 H  s                 36     -0.165126  2 H  s          
    20     -0.160457  1 H  dxx               25     -0.160457  1 H  dzz        

 Vector    8  Occ=1.711294D-04  E=-2.067936D-04  Symmetry=a
              MO Center= -1.0D-13, -3.0D-12,  1.5D-14, r^2= 8.6D-01
   Bfn.  Coefficient  Atom+Function         Bfn.  Coefficient  Atom+Function  
  ----- ------------  ---------------      ----- ------------  ---------------
     8      0.827879  1 H  px                43     -0.827879  2 H  px         
    11      0.331059  1 H  px                46     -0.331059  2 H  px         
    21      0.177238  1 H  dxy               56      0.177238  2 H  dxy        

 Vector    9  Occ=1.711294D-04  E=-2.067936D-04  Symmetry=a
              MO Center=  6.5D-15, -2.8D-12,  4.5D-14, r^2= 8.6D-01
   Bfn.  Coefficient  Atom+Function         Bfn.  Coefficient  Atom+Function  
  ----- ------------  ---------------      ----- ------------  ---------------
    10      0.827879  1 H  pz                45     -0.827879  2 H  pz         
    13      0.331059  1 H  pz                48     -0.331059  2 H  pz         
    24      0.177238  1 H  dyz               59      0.177238  2 H  dyz        

 Vector   10  Occ=7.015384D-05  E=-1.104018D-04  Symmetry=a
              MO Center= -2.3D-15,  6.8D-11, -1.3D-16, r^2= 1.5D+00
   Bfn.  Coefficient  Atom+Function         Bfn.  Coefficient  Atom+Function  
  ----- ------------  ---------------      ----- ------------  ---------------
     9      0.896997  1 H  py                44     -0.896997  2 H  py         
    32     -0.635317  1 H  fyyy              67      0.635317  2 H  fyyy       
     6     -0.539618  1 H  py                41      0.539618  2 H  py         
     4     -0.404165  1 H  s                 39     -0.404165  2 H  s          
    27     -0.398411  1 H  fxxy              34     -0.398411  1 H  fyzz       

 Vector   11  Occ=0.000000D+00  E= 4.190546D-01  Symmetry=a
              MO Center=  2.3D-13, -2.3D-11, -1.4D-13, r^2= 6.9D+00
   Bfn.  Coefficient  Atom+Function         Bfn.  Coefficient  Atom+Function  
  ----- ------------  ---------------      ----- ------------  ---------------
     4      3.491841  1 H  s                 39     -3.491841  2 H  s          
     3     -2.165644  1 H  s                 38      2.165644  2 H  s          
    12      0.844489  1 H  py                47      0.844489  2 H  py         
     2      0.796346  1 H  s                 37     -0.796346  2 H  s          
    23      0.496461  1 H  dyy               58     -0.496461  2 H  dyy        

 Vector   12  Occ=0.000000D+00  E= 8.815257D-01  Symmetry=a
              MO Center=  2.0D-15,  1.7D-10, -5.1D-16, r^2= 4.7D+00
   Bfn.  Coefficient  Atom+Function         Bfn.  Coefficient  Atom+Function  
  ----- ------------  ---------------      ----- ------------  ---------------
     3      3.346484  1 H  s                 38      3.346484  2 H  s          
     9      2.540044  1 H  py                44     -2.540044  2 H  py         
     4     -1.324668  1 H  s                 39     -1.324668  2 H  s          
    12     -1.085443  1 H  py                47      1.085443  2 H  py         
     2     -1.036456  1 H  s                 37     -1.036456  2 H  s          

 Vector   13  Occ=0.000000D+00  E= 1.081751D+00  Symmetry=a
              MO Center= -7.2D-13, -2.0D-10,  4.4D-13, r^2= 2.8D+00
   Bfn.  Coefficient  Atom+Function         Bfn.  Coefficient  Atom+Function  
  ----- ------------  ---------------      ----- ------------  ---------------
     3      9.000325  1 H  s                 38     -9.000325  2 H  s          
    12      5.230997  1 H  py                47      5.230997  2 H  py         
     9     -1.220913  1 H  py                44     -1.220913  2 H  py         
     2     -0.740144  1 H  s                 37      0.740144  2 H  s          
    32      0.650992  1 H  fyyy              67      0.650992  2 H  fyyy       

 Vector   14  Occ=0.000000D+00  E= 1.319858D+00  Symmetry=a
              MO Center=  1.4D-14, -1.2D-10, -6.2D-13, r^2= 2.8D+00
   Bfn.  Coefficient  Atom+Function         Bfn.  Coefficient  Atom+Function  
  ----- ------------  ---------------      ----- ------------  ---------------
    10      5.547915  1 H  pz                45     -5.547915  2 H  pz         
    13     -2.182317  1 H  pz                48      2.182317  2 H  pz         
    33     -2.122890  1 H  fyyz              68      2.122890  2 H  fyyz       
    28     -2.093950  1 H  fxxz              35     -2.093950  1 H  fzzz       
    63      2.093950  2 H  fxxz              70      2.093950  2 H  fzzz       

 Vector   15  Occ=0.000000D+00  E= 1.319858D+00  Symmetry=a
              MO Center=  9.9D-13, -1.2D-10,  2.3D-14, r^2= 2.8D+00
   Bfn.  Coefficient  Atom+Function         Bfn.  Coefficient  Atom+Function  
  ----- ------------  ---------------      ----- ------------  ---------------
     8      5.547915  1 H  px                43     -5.547915  2 H  px         
    11     -2.182317  1 H  px                46      2.182317  2 H  px         
    29     -2.122890  1 H  fxyy              64      2.122890  2 H  fxyy       
    26     -2.093950  1 H  fxxx              31     -2.093950  1 H  fxzz       
    61      2.093950  2 H  fxxx              66      2.093950  2 H  fxzz       

 Vector   16  Occ=0.000000D+00  E= 1.421016D+00  Symmetry=a
              MO Center= -1.7D-16,  1.2D-10, -1.8D-15, r^2= 2.1D+00
   Bfn.  Coefficient  Atom+Function         Bfn.  Coefficient  Atom+Function  
  ----- ------------  ---------------      ----- ------------  ---------------
    10      5.258855  1 H  pz                45      5.258855  2 H  pz         
    33     -2.091661  1 H  fyyz              68     -2.091661  2 H  fyyz       
    28     -2.055650  1 H  fxxz              35     -2.055650  1 H  fzzz       
    63     -2.055650  2 H  fxxz              70     -2.055650  2 H  fzzz       
     7     -1.395772  1 H  pz                42     -1.395772  2 H  pz         

 Vector   17  Occ=0.000000D+00  E= 1.421016D+00  Symmetry=a
              MO Center=  5.5D-17,  1.2D-10, -9.1D-17, r^2= 2.1D+00
   Bfn.  Coefficient  Atom+Function         Bfn.  Coefficient  Atom+Function  
  ----- ------------  ---------------      ----- ------------  ---------------
     8      5.258855  1 H  px                43      5.258855  2 H  px         
    29     -2.091661  1 H  fxyy              64     -2.091661  2 H  fxyy       
    26     -2.055650  1 H  fxxx              31     -2.055650  1 H  fxzz       
    61     -2.055650  2 H  fxxx              66     -2.055650  2 H  fxzz       
     5     -1.395772  1 H  px                40     -1.395772  2 H  px         

 Vector   18  Occ=0.000000D+00  E= 1.922058D+00  Symmetry=a
              MO Center= -8.4D-16, -1.7D-13, -1.2D-15, r^2= 1.0D+00
   Bfn.  Coefficient  Atom+Function         Bfn.  Coefficient  Atom+Function  
  ----- ------------  ---------------      ----- ------------  ---------------
    20      0.574398  1 H  dxx               25     -0.574398  1 H  dzz        
    55      0.574398  2 H  dxx               60     -0.574398  2 H  dzz        
    22      0.236151  1 H  dxz               57      0.236151  2 H  dxz        

 Vector   19  Occ=0.000000D+00  E= 1.922058D+00  Symmetry=a
              MO Center=  7.1D-16, -1.6D-13,  1.5D-16, r^2= 1.0D+00
   Bfn.  Coefficient  Atom+Function         Bfn.  Coefficient  Atom+Function  
  ----- ------------  ---------------      ----- ------------  ---------------
    22      1.148797  1 H  dxz               57      1.148797  2 H  dxz        
    16     -0.165965  1 H  dxz               51     -0.165965  2 H  dxz        

 Vector   20  Occ=0.000000D+00  E= 2.017903D+00  Symmetry=a
              MO Center= -6.6D-13, -6.8D-10,  3.9D-13, r^2= 3.2D+00
   Bfn.  Coefficient  Atom+Function         Bfn.  Coefficient  Atom+Function  
  ----- ------------  ---------------      ----- ------------  ---------------
    12      2.660703  1 H  py                47      2.660703  2 H  py         
     9     -2.282700  1 H  py                44     -2.282700  2 H  py         
    23      2.205692  1 H  dyy               58     -2.205692  2 H  dyy        
     4      1.733885  1 H  s                 39     -1.733885  2 H  s          
     2      1.477087  1 H  s                 37     -1.477087  2 H  s          


 Wrote Lagrangian and 1- and 2-particle density matrices to ./H2.mcpdm


     Multipole analysis of the density
     ---------------------------------

     L   x y z        total        nuclear
     -   - - -        -----        -------
     0   0 0 0     -0.000000      2.000000

     1   1 0 0      0.000000      0.000000
     1   0 1 0     -0.000000      0.000000
     1   0 0 1     -0.000000      0.000000

     2   2 0 0     -1.823994      0.000000
     2   1 1 0      0.000000      0.000000
     2   1 0 1     -0.000000      0.000000
     2   0 2 0     -1.084390      2.000000
     2   0 1 1     -0.000000      0.000000
     2   0 0 2     -1.823994      0.000000


  Mulliken analysis of the total density
  --------------------------------------

    Atom       Charge   Shell Charges
 -----------   ------   -------------------------------------------------------
    1 H    1     1.00   0.05  0.23  0.49  0.21  0.00  0.00  0.01  0.00  0.00  0.00
    2 H    1     1.00   0.05  0.23  0.49  0.21  0.00  0.00  0.01  0.00  0.00  0.00

    Mulliken analysis of the active space density
    ---------------------------------------------

    Atom       Charge   Shell Charges
 -----------   ------   -------------------------------------------------------
    1 H    1     1.00   0.05  0.23  0.49  0.21  0.00  0.00  0.01  0.00  0.00  0.00
    2 H    1     1.00   0.05  0.23  0.49  0.21  0.00  0.00  0.01  0.00  0.00  0.00

 Parallel integral file used      20 records with       0 large values


 Task  times  cpu:        4.3s     wall:        5.6s


                                NWChem Input Module
                                -------------------


                                 NWChem SCF Module
                                 -----------------


                                        H2



  ao basis        = "ao basis"
  functions       =    70
  atoms           =     2
  closed shells   =     1
  open shells     =     0
  charge          =   0.00
  wavefunction    = RHF 
  input vectors   = ./H2.mos
  output vectors  = ./H2-2.00.mos
  use symmetry    = F
  symmetry adapt  = F


 Summary of "ao basis" -> "ao basis" (cartesian)
 ------------------------------------------------------------------------------
       Tag                 Description            Shells   Functions and Types
 ---------------- ------------------------------  ------  ---------------------
 H                          cc-pVQZ                 10       35   4s3p2d1f



 Forming initial guess at       5.7s


 Loading old vectors from job with title :

H2


 Starting SCF solution at       5.7s



 ----------------------------------------------
         Quadratically convergent ROHF

 Convergence threshold     :          1.000E-04
 Maximum no. of iterations :           30
 Final Fock-matrix accuracy:          1.000E-07
 ----------------------------------------------


 Integral file          = ./H2.aoints.0
 Record size in doubles =  65536        No. of integs per rec  =  43688
 Max. records in memory =     99        Max. records in file   = 280255
 No. of bits per label  =      8        No. of bits per value  =     64


 #quartets = 2.216D+04 #integrals = 8.606D+05 #direct =  0.0% #cached =100.0%



       Final RHF  results 
       ------------------ 

         Total SCF energy =     -1.090915854105
      One-electron energy =     -2.161199282132
      Two-electron energy =      0.570283428027
 Nuclear repulsion energy =      0.500000000000

        Time for solution =      0.1s


             Final eigenvalues
             -----------------

              1      
    1   -0.5369
    2   -0.0260
    3   -0.0038
    4   -0.0031
    5   -0.0031
    6   -0.0003
    7   -0.0003
    8   -0.0002
    9   -0.0002
   10   -0.0001
   11    0.4191

                       ROHF Final Molecular Orbital Analysis
                       -------------------------------------

 Vector    1  Occ=2.000000D+00  E=-5.369393D-01
              MO Center= -6.3D-16,  7.8D-13,  3.4D-16, r^2= 9.4D-01
   Bfn.  Coefficient  Atom+Function         Bfn.  Coefficient  Atom+Function  
  ----- ------------  ---------------      ----- ------------  ---------------
     3      0.279276  1 H  s                 38      0.279276  2 H  s          
     2      0.162325  1 H  s                 37      0.162325  2 H  s          

 Vector    2  Occ=0.000000D+00  E=-2.604581D-02
              MO Center= -3.1D-15,  4.9D-13,  1.6D-15, r^2= 9.6D-01
   Bfn.  Coefficient  Atom+Function         Bfn.  Coefficient  Atom+Function  
  ----- ------------  ---------------      ----- ------------  ---------------
     3      0.550780  1 H  s                 38     -0.550780  2 H  s          
     2      0.374207  1 H  s                 37     -0.374207  2 H  s          

 Vector    3  Occ=0.000000D+00  E=-3.834140D-03
              MO Center= -6.9D-15,  8.6D-12,  4.3D-15, r^2= 1.8D+00
   Bfn.  Coefficient  Atom+Function         Bfn.  Coefficient  Atom+Function  
  ----- ------------  ---------------      ----- ------------  ---------------
     2      0.431221  1 H  s                 37      0.431221  2 H  s          
     4     -0.376137  1 H  s                 39     -0.376137  2 H  s          
     9      0.366588  1 H  py                44     -0.366588  2 H  py         
     3     -0.201360  1 H  s                 38     -0.201360  2 H  s          

 Vector    4  Occ=0.000000D+00  E=-3.100511D-03
              MO Center=  9.4D-15,  7.1D-12, -5.0D-16, r^2= 9.4D-01
   Bfn.  Coefficient  Atom+Function         Bfn.  Coefficient  Atom+Function  
  ----- ------------  ---------------      ----- ------------  ---------------
    11      0.387458  1 H  px                46      0.387458  2 H  px         
    21      0.185649  1 H  dxy               56     -0.185649  2 H  dxy        
     8      0.158927  1 H  px                43      0.158927  2 H  px         

 Vector    5  Occ=0.000000D+00  E=-3.100511D-03
              MO Center= -1.1D-15,  7.1D-12, -2.2D-15, r^2= 9.4D-01
   Bfn.  Coefficient  Atom+Function         Bfn.  Coefficient  Atom+Function  
  ----- ------------  ---------------      ----- ------------  ---------------
    13      0.387458  1 H  pz                48      0.387458  2 H  pz         
    24      0.185649  1 H  dyz               59     -0.185649  2 H  dyz        
    10      0.158927  1 H  pz                45      0.158927  2 H  pz         

 Vector    6  Occ=0.000000D+00  E=-3.298177D-04
              MO Center= -2.7D-15, -3.4D-11,  1.1D-15, r^2= 8.2D-01
   Bfn.  Coefficient  Atom+Function         Bfn.  Coefficient  Atom+Function  
  ----- ------------  ---------------      ----- ------------  ---------------
     2      0.725529  1 H  s                 37      0.725529  2 H  s          
     9     -0.582577  1 H  py                44      0.582577  2 H  py         
    12     -0.273615  1 H  py                47      0.273615  2 H  py         
    23     -0.184053  1 H  dyy               58     -0.184053  2 H  dyy        
    27      0.159062  1 H  fxxy              34      0.159062  1 H  fyzz       

 Vector    7  Occ=0.000000D+00  E=-2.532890D-04
              MO Center= -6.2D-13,  6.8D-11,  3.7D-13, r^2= 1.2D+00
   Bfn.  Coefficient  Atom+Function         Bfn.  Coefficient  Atom+Function  
  ----- ------------  ---------------      ----- ------------  ---------------
     2      0.776943  1 H  s                 37     -0.776943  2 H  s          
     3     -0.360367  1 H  s                 38      0.360367  2 H  s          
     4     -0.279984  1 H  s                 39      0.279984  2 H  s          
     1      0.165126  1 H  s                 36     -0.165126  2 H  s          
    20     -0.160457  1 H  dxx               25     -0.160457  1 H  dzz        

 Vector    8  Occ=0.000000D+00  E=-2.067936D-04
              MO Center= -1.0D-13, -3.0D-12,  1.5D-14, r^2= 8.6D-01
   Bfn.  Coefficient  Atom+Function         Bfn.  Coefficient  Atom+Function  
  ----- ------------  ---------------      ----- ------------  ---------------
     8      0.827879  1 H  px                43     -0.827879  2 H  px         
    11      0.331059  1 H  px                46     -0.331059  2 H  px         
    21      0.177238  1 H  dxy               56      0.177238  2 H  dxy        

 Vector    9  Occ=0.000000D+00  E=-2.067936D-04
              MO Center=  6.5D-15, -2.8D-12,  4.5D-14, r^2= 8.6D-01
   Bfn.  Coefficient  Atom+Function         Bfn.  Coefficient  Atom+Function  
  ----- ------------  ---------------      ----- ------------  ---------------
    10      0.827879  1 H  pz                45     -0.827879  2 H  pz         
    13      0.331059  1 H  pz                48     -0.331059  2 H  pz         
    24      0.177238  1 H  dyz               59      0.177238  2 H  dyz        

 Vector   10  Occ=0.000000D+00  E=-1.104018D-04
              MO Center= -2.3D-15,  6.8D-11, -1.3D-16, r^2= 1.5D+00
   Bfn.  Coefficient  Atom+Function         Bfn.  Coefficient  Atom+Function  
  ----- ------------  ---------------      ----- ------------  ---------------
     9      0.896997  1 H  py                44     -0.896997  2 H  py         
    32     -0.635317  1 H  fyyy              67      0.635317  2 H  fyyy       
     6     -0.539618  1 H  py                41      0.539618  2 H  py         
     4     -0.404165  1 H  s                 39     -0.404165  2 H  s          
    27     -0.398411  1 H  fxxy              34     -0.398411  1 H  fyzz       

 Vector   11  Occ=0.000000D+00  E= 4.190546D-01
              MO Center=  2.3D-13, -2.3D-11, -1.4D-13, r^2= 6.9D+00
   Bfn.  Coefficient  Atom+Function         Bfn.  Coefficient  Atom+Function  
  ----- ------------  ---------------      ----- ------------  ---------------
     4      3.491841  1 H  s                 39     -3.491841  2 H  s          
     3     -2.165644  1 H  s                 38      2.165644  2 H  s          
    12      0.844489  1 H  py                47      0.844489  2 H  py         
     2      0.796346  1 H  s                 37     -0.796346  2 H  s          
    23      0.496461  1 H  dyy               58     -0.496461  2 H  dyy        

 Vector   12  Occ=0.000000D+00  E= 8.815257D-01
              MO Center=  2.0D-15,  1.7D-10, -5.1D-16, r^2= 4.7D+00
   Bfn.  Coefficient  Atom+Function         Bfn.  Coefficient  Atom+Function  
  ----- ------------  ---------------      ----- ------------  ---------------
     3      3.346484  1 H  s                 38      3.346484  2 H  s          
     9      2.540044  1 H  py                44     -2.540044  2 H  py         
     4     -1.324668  1 H  s                 39     -1.324668  2 H  s          
    12     -1.085443  1 H  py                47      1.085443  2 H  py         
     2     -1.036456  1 H  s                 37     -1.036456  2 H  s          


 center of mass
 --------------
 x =   0.00000000 y =   0.00000000 z =   0.00000000

 moments of inertia (a.u.)
 ------------------
           2.015650000000           0.000000000000           0.000000000000
           0.000000000000           0.000000000000           0.000000000000
           0.000000000000           0.000000000000           2.015650000000

  Mulliken analysis of the total density
  --------------------------------------

    Atom       Charge   Shell Charges
 -----------   ------   -------------------------------------------------------
    1 H    1     1.00   0.05  0.23  0.49  0.21  0.00  0.00  0.01  0.00  0.00  0.00
    2 H    1     1.00   0.05  0.23  0.49  0.21  0.00  0.00  0.01  0.00  0.00  0.00

       Multipole analysis of the density wrt the origin
       ------------------------------------------------

     L   x y z        total         open         nuclear
     -   - - -        -----         ----         -------
     0   0 0 0     -0.000000      0.000000      2.000000

     1   1 0 0      0.000000      0.000000      0.000000
     1   0 1 0     -0.000000      0.000000      0.000000
     1   0 0 1     -0.000000      0.000000      0.000000

     2   2 0 0     -1.835438      0.000000      0.000000
     2   1 1 0     -0.000000      0.000000      0.000000
     2   1 0 1     -0.000000      0.000000      0.000000
     2   0 2 0     -1.040924      0.000000      2.000000
     2   0 1 1     -0.000000      0.000000      0.000000
     2   0 0 2     -1.835438      0.000000      0.000000


 Parallel integral file used      20 records with       0 large values

                   NWChem Extensible Many-Electron Theory Module
                   ---------------------------------------------

              ======================================================
                   This portion of the program was automatically
                  generated by a Tensor Contraction Engine (TCE).
                  The development of this portion of the program
                 and TCE was supported by US Department of Energy,
                Office of Science, Office of Basic Energy Science.
                      TCE is a product of Battelle and PNNL.
              Please cite: S.Hirata, J.Phys.Chem.A 107, 9887 (2003).
              ======================================================

                                        H2


            General Information
            -------------------
      Number of processors :     1
         Wavefunction type : Restricted Hartree-Fock
          No. of electrons :     2
           Alpha electrons :     1
            Beta electrons :     1
           No. of orbitals :   140
            Alpha orbitals :    70
             Beta orbitals :    70
        Alpha frozen cores :     0
         Beta frozen cores :     0
     Alpha frozen virtuals :     0
      Beta frozen virtuals :     0
         Spin multiplicity : singlet 
    Number of AO functions :    70
       Number of AO shells :    20
        Use of symmetry is : off
      Symmetry adaption is : off
         Schwarz screening : 0.10D-09

          Correlation Information
          -----------------------
          Calculation type : Coupled-cluster singles & doubles                           
   Perturbative correction : none                                                        
            Max iterations :      300
        Residual threshold : 0.10D-06
     T(0) DIIS level shift : 0.80D+00
     L(0) DIIS level shift : 0.00D+00
     T(1) DIIS level shift : 0.00D+00
     L(1) DIIS level shift : 0.00D+00
     T(R) DIIS level shift : 0.00D+00
     T(I) DIIS level shift : 0.00D+00
   CC-T/L Amplitude update :  5-th order DIIS
                I/O scheme : Global Array Library
        L-threshold :  0.10D-06
        EOM-threshold :  0.10D-06
 no EOMCCSD initial starts read in
 TCE RESTART OPTIONS
 READ_INT:   F
 WRITE_INT:  F
 READ_TA:    F
 WRITE_TA:   F
 READ_XA:    F
 WRITE_XA:   F
 READ_IN3:   F
 WRITE_IN3:  F
 SLICE:      F
 D4D5:       F
 quantumc:   F
 qrotation:  F
 pwtce:      F
 qducc:      T
 nacto:                         0
 nrotv:                         0
 nrot:                          0

            Memory Information
            ------------------
          Available GA space size is    1610607836 doubles
          Available MA space size is    1610610644 doubles

 Maximum block size        32 doubles

 tile_dim =     23

 Block   Spin    Irrep     Size     Offset   Alpha
 -------------------------------------------------
   1    alpha     a      1 doubles       0       1
   2    beta      a      1 doubles       1       1
   3    alpha     a     23 doubles       2       3
   4    alpha     a     23 doubles      25       4
   5    alpha     a     23 doubles      48       5
   6    beta      a     23 doubles      71       3
   7    beta      a     23 doubles      94       4
   8    beta      a     23 doubles     117       5

 Global array virtual files algorithm will be used

 Parallel file system coherency ......... OK

 Integral file          = ./H2.aoints.0
 Record size in doubles =  65536        No. of integs per rec  =  43688
 Max. records in memory =     99        Max. records in file   = 280255
 No. of bits per label  =      8        No. of bits per value  =     64


 #quartets = 2.216D+04 #integrals = 8.606D+05 #direct =  0.0% #cached =100.0%


 Fock matrix recomputed
 1-e file size   =             4900
 1-e file name   = ./H2.f1
 Cpu & wall time / sec            0.0            0.1
 4-electron integrals stored in orbital form

 v2    file size   =          6102085
 4-index algorithm nr.  13 is used
 imaxsize =       30
 imaxsize ichop =        0
 Cpu & wall time / sec            2.0            2.1
 T1-number-of-tasks                    3

 t1 file size   =               69
 t1 file name   = ./H2.t1
 t1 file handle =       -998
 T2-number-of-boxes                   15

 t2 file size   =             7935
 t2 file name   = ./H2.t2
 t2 file handle =       -996
CCSD iterations
 ---------------------------------------------------------
 Iter          Residuum       Correlation     Cpu    Wall 
 ---------------------------------------------------------
NEW TASK SCHEDULING
CCSD_T1_NTS --- OK
CCSD_T2_NTS --- OK
    1   0.7766509998707  -0.0849422392931     0.2     0.2
    2   0.8873996711737  -0.0235315484948     0.2     0.2
    3   1.2298124730023  -0.0708663767592     0.2     0.2
    4   1.8727869598519  -0.0162446441436     0.2     0.2
    5   2.9448857598005  -0.0852685209193     0.2     0.2
 MICROCYCLE DIIS UPDATE:                    5                    5
    6   0.0156634717740  -0.0457413855836     0.2     0.2
    7   0.0129020428277  -0.0461786931244     0.2     0.2
    8   0.0129828357600  -0.0459891443226     0.2     0.2
    9   0.0164201662024  -0.0464775036188     0.2     0.2
   10   0.0232833919932  -0.0460967413016     0.2     0.2
 MICROCYCLE DIIS UPDATE:                   10                    5
   11   0.0019860439763  -0.0464951686837     0.2     0.2
   12   0.0016187298914  -0.0465487688167     0.1     0.1
   13   0.0019448897934  -0.0465905583757     0.1     0.1
   14   0.0030442470548  -0.0465787215769     0.1     0.1
   15   0.0050100361256  -0.0466552142952     0.1     0.1
 MICROCYCLE DIIS UPDATE:                   15                    5
   16   0.0002487369822  -0.0466385109868     0.1     0.1
   17   0.0001568148991  -0.0466330595227     0.1     0.1
   18   0.0001126271770  -0.0466386789510     0.1     0.1
   19   0.0000890095885  -0.0466360989167     0.1     0.1
   20   0.0000807763444  -0.0466404213593     0.1     0.1
 MICROCYCLE DIIS UPDATE:                   20                    5
   21   0.0000255811850  -0.0466402920624     0.1     0.1
   22   0.0000205607608  -0.0466410812805     0.0     0.1
   23   0.0000254293430  -0.0466416789323     0.0     0.2
   24   0.0000398221608  -0.0466415258341     0.0     0.2
   25   0.0000652065964  -0.0466425764471     0.1     0.1
 MICROCYCLE DIIS UPDATE:                   25                    5
   26   0.0000036043958  -0.0466423243668     0.2     0.2
   27   0.0000023095887  -0.0466422989147     0.2     0.2
   28   0.0000017878805  -0.0466423562661     0.2     0.2
   29   0.0000015664752  -0.0466423447450     0.2     0.2
   30   0.0000016655938  -0.0466423970770     0.1     0.1
 MICROCYCLE DIIS UPDATE:                   30                    5
   31   0.0000004314426  -0.0466424051463     0.1     0.1
   32   0.0000003068343  -0.0466424140088     0.1     0.1
   33   0.0000003306571  -0.0466424260718     0.1     0.1
   34   0.0000004835041  -0.0466424234150     0.2     0.2
   35   0.0000007742251  -0.0466424384293     0.2     0.2
 MICROCYCLE DIIS UPDATE:                   35                    5
   36   0.0000000625055  -0.0466424361075     0.1     0.1
 -----------------------------------------------------------------
 Iterations converged
 CCSD correlation energy / hartree =        -0.046642436107549
 CCSD total energy / hartree       =        -1.137558290212249

 Singles contributions

 Doubles contributions
     2a   (alpha)     2a   (beta ) ---     1a   (alpha)     1a   (beta )       -0.1624021591
     3a   (alpha)     3a   (beta ) ---     1a   (alpha)     1a   (beta )       -0.0513788183
     4a   (alpha)     4a   (beta ) ---     1a   (alpha)     1a   (beta )       -0.0464272085
     5a   (alpha)     5a   (beta ) ---     1a   (alpha)     1a   (beta )       -0.0464272085
 Ground state specification:
 exp(T)|Ref>~(1+T)|Ref>
 ------- a(p)+/a(q) strings ----------

 singles norm

 doubles norm

 Reference string
  0.98706801993438686      :(1a)+ (1b)+ |0>

 Singles strings

 Doubles strings
 -0.16030197760105461      :(2a)+ (2b)+ (1b)  (1a)  (1a)+ (1b)+ |0>
 -------------------------------------
 enrep_tce =   0.49999999999999989     
  EHF(total)         =        -1.09091585
  Shift (HFtot-HFA)  =         0.00000000
 ALL OCCUPIED ORBITALS ARE ACTIVE IN DUCC --> NO SHIFT
 Number of active orbitals                   10
 Number of active alpha electrons                    1
 Number of active beta electrons                    1
  nos                     2
  nvs                   138
 noas                     1
 nobs                     1
 nvas                    69
 nvbs                    69
 nactv                     9
 DUCC MODEL =                     3
 NONHF =  T
 F-T1 correlation    =    3.6823026652570467E-006
 V-T1-T1 correlation =    1.8683220232100458E-008
 V-T2 correlation    =   -4.6646137093434063E-002
 Total correlation   =   -4.6642436107548577E-002
 F-T1(Ext) correlation         =   -5.2672492438445975E-007
 V-T1(Ext)-T1(Ext) correlation =    2.9169629454145519E-010
 V-T2(Ext) correlation         =   -2.0736253679986554E-003
 Total Ext correlation         =   -2.0741518012267453E-003
1-BODY TIME =    0.038 SECONDS.
  HHHH TIME =    0.016 SECONDS.
  PPPP TIME =    0.002 SECONDS.
  HHHP TIME =    0.034 SECONDS.
  PPPH TIME =    0.081 SECONDS.
[...]
    9    1    2    4       -0.0001975028
    9    1    2    5        0.0443323960
    9    2    2    9        0.0914090948
    9    3    2    4       -0.0000158390
    9    3    2    5        0.0035552885
    9    4    2    1       -0.0005321349
    9    4    2    3       -0.0000567806
    9    4    2    6       -0.0003726962
    9    4    2   10       -0.0000812973
    9    5    2    1        0.1194454990
    9    5    2    3        0.0127452306
    9    5    2    6        0.0836571467
    9    5    2   10        0.0182483752
    9    6    2    4       -0.0000612140
    9    6    2    5        0.0137403899
    9    7    2    9        0.0105590082
    9    9    2    2        0.5722377533
    9    9    2    7        0.1106794827
    9   10    2    4       -0.0000759014
    9   10    2    5        0.0170371900
    9    1    3    9        0.0063360112
    9    2    3    4       -0.0000298812
    9    2    3    5        0.0067072686
    9    3    3    9        0.0139192206
    9    4    3    2       -0.0000567806
    9    4    3    7       -0.0003984120
    9    5    3    2        0.0127452306
    9    5    3    7        0.0894294385
    9    6    3    9        0.0013399260
    9    7    3    4       -0.0000866875
    9    7    3    5        0.0194582938
    9    9    3    1        0.1185088417
    9    9    3    3        0.4798543282
    9    9    3    6       -0.0237580590
    9    9    3   10       -0.1161793360
    9   10    3    9       -0.0005392258
    9    1    4    2       -0.0001973051
    9    1    4    7       -0.0000210230
    9    2    4    1       -0.0003651857
    9    2    4    3       -0.0000298812
    9    2    4    6        0.0000923568
    9    2    4   10       -0.0001458434
    9    3    4    2       -0.0000158390
    9    3    4    7       -0.0000587410
    9    4    4    8       -0.0004431474
    9    4    4    9        0.0141656022
    9    5    4    8        0.0853073139
    9    5    4    9       -0.0004431474
    9    6    4    2       -0.0000612140
    9    6    4    7       -0.0000066555
    9    7    4    1       -0.0000453186
    9    7    4    3       -0.0000866875
    9    7    4    6        0.0000101083
    9    7    4   10        0.0000048205
    9    8    4    4       -0.0001968087
    9    8    4    5        0.0220878615
    9    9    4    4        0.5056814868
    9    9    4    5       -0.0001968087
    9   10    4    2       -0.0000759014
    9   10    4    7        0.0000053897
    9    1    5    2        0.0442880222
    9    1    5    7        0.0047189299
    9    2    5    1        0.0819713067
    9    2    5    3        0.0067072686
    9    2    5    6       -0.0207308456
    9    2    5   10        0.0327367037
    9    3    5    2        0.0035552885
    9    3    5    7        0.0131852842
    9    4    5    8        0.0141616537
    9    4    5    9       -0.0004431474
    9    5    5    8        0.0004431474
    9    5    5    9        0.1136345698
    9    6    5    2        0.0137403899
    9    6    5    7        0.0014939347
    9    7    5    1        0.0101724212
    9    7    5    3        0.0194582938
    9    7    5    6       -0.0022689508
    9    7    5   10       -0.0010820229
    9    8    5    4        0.0220878615
    9    8    5    5        0.0001968087
    9    9    5    4       -0.0001968087
    9    9    5    5        0.5498572098
    9   10    5    2        0.0170371900
    9   10    5    7       -0.0012097931
    9    1    6    9        0.0191836485
    9    2    6    4        0.0000923568
    9    2    6    5       -0.0207308456
    9    3    6    9        0.0013399260
    9    4    6    2       -0.0003726962
    9    4    6    7       -0.0000949401
    9    5    6    2        0.0836571467
    9    5    6    7        0.0213106915
    9    6    6    9        0.0206530493
    9    7    6    4        0.0000101083
    9    7    6    5       -0.0022689508
    9    9    6    1        0.0349765830
    9    9    6    3       -0.0237580590
    9    9    6    6        0.5700798373
    9    9    6   10        0.0151583851
    9   10    6    9        0.0063044214
    9    1    7    4       -0.0000211772
    9    1    7    5        0.0047535353
    9    2    7    9        0.0105590082
    9    3    7    4       -0.0000587410
    9    3    7    5        0.0131852842
    9    4    7    1       -0.0001253391
    9    4    7    3       -0.0003984120
    9    4    7    6       -0.0000949401
    9    4    7   10        0.0000605908
    9    5    7    1        0.0281341955
    9    5    7    3        0.0894294385
    9    5    7    6        0.0213106915
    9    5    7   10       -0.0136004844
    9    6    7    4       -0.0000066555
    9    6    7    5        0.0014939347
    9    7    7    9        0.0247399704
    9    9    7    2        0.1106794827
    9    9    7    7        0.5459403792
    9   10    7    4        0.0000053897
    9   10    7    5       -0.0012097931
    9    4    8    4       -0.0004431474
    9    4    8    5        0.0141616537
    9    5    8    4        0.0853073139
    9    5    8    5        0.0004431474
    9    8    8    9        0.0265238765
    9    9    8    8        0.5443925201
    9    1    9    1        0.0574065006
    9    1    9    3        0.0062776755
    9    1    9    6        0.0191756776
    9    1    9   10        0.0222119737
    9    2    9    2        0.0914090948
    9    2    9    7        0.0105590082
    9    3    9    1        0.0062776755
    9    3    9    3        0.0139192206
    9    3    9    6        0.0013399260
    9    3    9   10       -0.0005392258
    9    4    9    4        0.0141656022
    9    4    9    5       -0.0004431474
    9    5    9    4       -0.0004431474
    9    5    9    5        0.1136345698
    9    6    9    1        0.0191756776
    9    6    9    3        0.0013399260
    9    6    9    6        0.0206530493
    9    6    9   10        0.0063044214
    9    7    9    2        0.0105590082
    9    7    9    7        0.0247399704
    9    8    9    8        0.0265238765
    9    9    9    9        0.5974402730
    9   10    9    1        0.0222119737
    9   10    9    3       -0.0005392258
    9   10    9    6        0.0063044214
    9   10    9   10        0.0151959665
    9    1   10    9        0.0221927071
    9    2   10    4       -0.0001458434
    9    2   10    5        0.0327367037
    9    3   10    9       -0.0005392258
    9    4   10    2       -0.0000812973
    9    4   10    7        0.0000605908
    9    5   10    2        0.0182483752
    9    5   10    7       -0.0136004844
    9    6   10    9        0.0063044214
    9    7   10    4        0.0000048205
    9    7   10    5       -0.0010820229
    9    9   10    1        0.0146257326
    9    9   10    3       -0.1161793360
    9    9   10    6        0.0151583851
    9    9   10   10        0.5219835185
    9   10   10    9        0.0151959665
   10    1    1    1       -0.0081998418
   10    1    1    3       -0.0366824280
   10    1    1    6        0.0061704639
   10    1    1   10        0.0472617848
   10    2    1    2        0.0162869212
   10    2    1    7       -0.0070158326
   10    3    1    1       -0.1460451805
   10    3    1    3       -0.1037283565
   10    3    1    6        0.0146190183
   10    3    1   10        0.0499526321
   10    4    1    4        0.0395181458
   10    5    1    5        0.0395181458
   10    6    1    1        0.0198234363
   10    6    1    3        0.0219510472
   10    6    1    6        0.0139749748
   10    6    1   10       -0.0207524345
   10    7    1    2       -0.0240961754
   10    7    1    7       -0.0411659516
   10    8    1    8        0.0222119737
   10    9    1    9        0.0222119737
   10   10    1    1        0.5583969849
   10   10    1    3        0.1734114003
   10   10    1    6       -0.0153024719
   10   10    1   10       -0.0541517545
   10    1    2    2        0.0031986263
   10    1    2    7       -0.0267719820
   10    2    2    1        0.0162832869
   10    2    2    3       -0.0052271602
   10    2    2    6        0.0167404377
   10    2    2   10        0.0180354196
   10    3    2    2       -0.1204665341
   10    3    2    7       -0.0864076416
   10    4    2    8        0.0327367037
   10    4    2    9       -0.0001458434
   10    5    2    8        0.0001458434
   10    5    2    9        0.0327367037
   10    6    2    2        0.0262381481
   10    6    2    7        0.0157214136
   10    7    2    1       -0.0241210250
   10    7    2    3       -0.0308295932
   10    7    2    6       -0.0122401627
   10    7    2   10        0.0111142187
   10    8    2    4        0.0170371900
   10    8    2    5        0.0000759014
   10    9    2    4       -0.0000759014
   10    9    2    5        0.0170371900
   10   10    2    2        0.5250784637
   10   10    2    7        0.1402482974
   10    1    3    1       -0.0359393526
   10    1    3    3       -0.0382105986
   10    1    3    6        0.0141938817
   10    1    3   10        0.0499526321
   10    2    3    2       -0.0052271602
   10    2    3    7       -0.0048602415
   10    3    3    1       -0.1037269085
   10    3    3    3       -0.1496669023
   10    3    3    6        0.0291641129
   10    3    3   10        0.1235588898
   10    4    3    4       -0.0026733231
   10    5    3    5       -0.0026733231
   10    6    3    1        0.0219464658
   10    6    3    3        0.0261878745
   10    6    3    6       -0.0093295256
   10    6    3   10       -0.0286154077
   10    7    3    2       -0.0308295932
   10    7    3    7       -0.0318794303
   10    8    3    8       -0.0005392258
   10    9    3    9       -0.0005392258
   10   10    3    1        0.1734114003
   10   10    3    3        0.5317234838
   10   10    3    6       -0.0532841892
   10   10    3   10       -0.2009344635
   10    1    4    4        0.0130462532
   10    2    4    8        0.0182483752
   10    2    4    9       -0.0000812973
   10    3    4    4       -0.1189246354
   10    4    4    1        0.0394699729
   10    4    4    3       -0.0026733231
   10    4    4    6       -0.0223730568
   10    4    4   10        0.0294073270
   10    6    4    4       -0.0003796745
   10    7    4    8       -0.0136004844
   10    7    4    9        0.0000605908
   10    8    4    2        0.0170371900
   10    8    4    7       -0.0012097931
   10    9    4    2       -0.0000759014
   10    9    4    7        0.0000053897
   10   10    4    4        0.5200139697
   10    1    5    5        0.0130462532
   10    2    5    8        0.0000812973
   10    2    5    9        0.0182483752
   10    3    5    5       -0.1189246354
   10    5    5    1        0.0394699729
   10    5    5    3       -0.0026733231
   10    5    5    6       -0.0223730568
   10    5    5   10        0.0294073270
   10    6    5    5       -0.0003796745
   10    7    5    8       -0.0000605908
   10    7    5    9       -0.0136004844
   10    8    5    2        0.0000759014
   10    8    5    7       -0.0000053897
   10    9    5    2        0.0170371900
   10    9    5    7       -0.0012097931
   10   10    5    5        0.5200139697
   10    1    6    1        0.0062281081
   10    1    6    3        0.0141872913
   10    1    6    6        0.0049247671
   10    1    6   10       -0.0207524345
   10    2    6    2        0.0167404377
   10    2    6    7        0.0012603314
   10    3    6    1        0.0146078464
   10    3    6    3        0.0291641129
   10    3    6    6       -0.1323610038
   10    3    6   10       -0.0286154077
   10    4    6    4       -0.0223730568
   10    5    6    5       -0.0223730568
   10    6    6    1        0.0139504767
   10    6    6    3       -0.0093295256
   10    6    6    6        0.0236610075
   10    6    6   10        0.0231978994
   10    7    6    2       -0.0122401627
   10    7    6    7       -0.0174651667
   10    8    6    8        0.0063044214
   10    9    6    9        0.0063044214
   10   10    6    1       -0.0153024719
   10   10    6    3       -0.0532841892
   10   10    6    6        0.5457177941
   10   10    6   10        0.0352993609
   10    1    7    2       -0.0267190093
   10    1    7    7       -0.0330916326
   10    2    7    1       -0.0069877094
   10    2    7    3       -0.0048602415
   10    2    7    6        0.0012603314
   10    2    7   10        0.0111142187
   10    3    7    2       -0.0864076416
   10    3    7    7       -0.1541512042
   10    4    7    8       -0.0010820229
   10    4    7    9        0.0000048205
   10    5    7    8       -0.0000048205
   10    5    7    9       -0.0010820229
   10    6    7    2        0.0157214136
   10    6    7    7        0.0257655716
   10    7    7    1       -0.0411806096
   10    7    7    3       -0.0318794303
   10    7    7    6       -0.0174651667
   10    7    7   10        0.0392300609
   10    8    7    4       -0.0012097931
   10    8    7    5       -0.0000053897
   10    9    7    4        0.0000053897
   10    9    7    5       -0.0012097931
   10   10    7    2        0.1402482974
   10   10    7    7        0.5581132732
   10    1    8    8        0.0146257326
   10    2    8    4        0.0182483752
   10    2    8    5        0.0000812973
   10    3    8    8       -0.1161793360
   10    4    8    2        0.0327367037
   10    4    8    7       -0.0010820229
   10    5    8    2        0.0001458434
   10    5    8    7       -0.0000048205
   10    6    8    8        0.0151583851
   10    7    8    4       -0.0136004844
   10    7    8    5       -0.0000605908
   10    8    8    1        0.0221927071
   10    8    8    3       -0.0005392258
   10    8    8    6        0.0063044214
   10    8    8   10        0.0151959665
   10   10    8    8        0.5219835185
   10    1    9    9        0.0146257326
   10    2    9    4       -0.0000812973
   10    2    9    5        0.0182483752
   10    3    9    9       -0.1161793360
   10    4    9    2       -0.0001458434
   10    4    9    7        0.0000048205
   10    5    9    2        0.0327367037
   10    5    9    7       -0.0010820229
   10    6    9    9        0.0151583851
   10    7    9    4        0.0000605908
   10    7    9    5       -0.0136004844
   10    9    9    1        0.0221927071
   10    9    9    3       -0.0005392258
   10    9    9    6        0.0063044214
   10    9    9   10        0.0151959665
   10   10    9    9        0.5219835185
   10    1   10    1        0.0473885739
   10    1   10    3        0.0498724002
   10    1   10    6       -0.0207535337
   10    1   10   10       -0.0541517545
   10    2   10    2        0.0180354196
   10    2   10    7        0.0111142187
   10    3   10    1        0.0498724002
   10    3   10    3        0.1235588898
   10    3   10    6       -0.0286154077
   10    3   10   10       -0.2009344635
   10    4   10    4        0.0294073270
   10    5   10    5        0.0294073270
   10    6   10    1       -0.0207535337
   10    6   10    3       -0.0286154077
   10    6   10    6        0.0231978994
   10    6   10   10        0.0352993609
   10    7   10    2        0.0111142187
   10    7   10    7        0.0392300609
   10    8   10    8        0.0151959665
   10    9   10    9        0.0151959665
   10   10   10    1       -0.0541517545
   10   10   10    3       -0.2009344635
   10   10   10    6        0.0352993609
   10   10   10   10        0.6196909159
 end_two_electron_integrals

 Parallel integral file used      20 records with       0 large values


 Task  times  cpu:       36.2s     wall:       39.4s


                                NWChem Input Module
                                -------------------


 Summary of allocated global arrays
-----------------------------------
  No active global arrays


MA_summarize_allocated_blocks: starting scan ...
MA_summarize_allocated_blocks: scan completed: 0 heap blocks, 0 stack blocks
MA usage statistics:

	allocation statistics:
					      heap	     stack
					      ----	     -----
	current number of blocks	         0	         0
	maximum number of blocks	        18	        42
	current total bytes		         0	         0
	maximum total bytes		  51983048	9994007128
	maximum total K-bytes		     51984	   9994008
	maximum total M-bytes		        52	      9995


                                     CITATION
                                     --------
                Please cite the following reference when publishing
                           results obtained with NWChem:

          E. Apra, E. J. Bylaska, W. A. de Jong, N. Govind, K. Kowalski,
       T. P. Straatsma, M. Valiev, H. J. J. van Dam, Y. Alexeev, J. Anchell,
       V. Anisimov, F. W. Aquino, R. Atta-Fynn, J. Autschbach, N. P. Bauman,
     J. C. Becca, D. E. Bernholdt, K. Bhaskaran-Nair, S. Bogatko, P. Borowski,
         J. Boschen, J. Brabec, A. Bruner, E. Cauet, Y. Chen, G. N. Chuev,
      C. J. Cramer, J. Daily, M. J. O. Deegan, T. H. Dunning Jr., M. Dupuis,
   K. G. Dyall, G. I. Fann, S. A. Fischer, A. Fonari, H. Fruchtl, L. Gagliardi,
      J. Garza, N. Gawande, S. Ghosh, K. Glaesemann, A. W. Gotz, J. Hammond,
       V. Helms, E. D. Hermes, K. Hirao, S. Hirata, M. Jacquelin, L. Jensen,
   B. G. Johnson, H. Jonsson, R. A. Kendall, M. Klemm, R. Kobayashi, V. Konkov,
      S. Krishnamoorthy, M. Krishnan, Z. Lin, R. D. Lins, R. J. Littlefield,
      A. J. Logsdail, K. Lopata, W. Ma, A. V. Marenich, J. Martin del Campo,
   D. Mejia-Rodriguez, J. E. Moore, J. M. Mullin, T. Nakajima, D. R. Nascimento,
    J. A. Nichols, P. J. Nichols, J. Nieplocha, A. Otero-de-la-Roza, B. Palmer,
    A. Panyala, T. Pirojsirikul, B. Peng, R. Peverati, J. Pittner, L. Pollack,
   R. M. Richard, P. Sadayappan, G. C. Schatz, W. A. Shelton, D. W. Silverstein,
   D. M. A. Smith, T. A. Soares, D. Song, M. Swart, H. L. Taylor, G. S. Thomas,
            V. Tipparaju, D. G. Truhlar, K. Tsemekhman, T. Van Voorhis,
      A. Vazquez-Mayagoitia, P. Verma, O. Villa, A. Vishnu, K. D. Vogiatzis,
        D. Wang, J. H. Weare, M. J. Williamson, T. L. Windus, K. Wolinski,
        A. T. Wong, Q. Wu, C. Yang, Q. Yu, M. Zacharias, Z. Zhang, Y. Zhao,
                                and R. J. Harrison
                        "NWChem: Past, present, and future
                         J. Chem. Phys. 152, 184102 (2020)
                               doi:10.1063/5.0004997

                                      AUTHORS
                                      -------
  E. Apra, E. J. Bylaska, N. Govind, K. Kowalski, M. Valiev, D. Mejia-Rodriguez,
       A. Kunitsa, N. P. Bauman, A. Panyala, W. A. de Jong, T. P. Straatsma,
        H. J. J. van Dam, D. Wang, T. L. Windus, J. Hammond, J. Autschbach,
    K. Bhaskaran-Nair, J. Brabec, K. Lopata, S. A. Fischer, S. Krishnamoorthy,
     M. Jacquelin, W. Ma, M. Klemm, O. Villa, Y. Chen, V. Anisimov, F. Aquino,
    S. Hirata, M. T. Hackler, Eric Hermes, L. Jensen, J. E. Moore, J. C. Becca,
      V. Konjkov, T. Risthaus, M. Malagoli, A. Marenich, A. Otero-de-la-Roza,
        J. Mullin, P. Nichols, R. Peverati, J. Pittner, Y. Zhao, P.-D. Fan,
        A. Fonari, M. J. Williamson, R. J. Harrison, J. R. Rehr, M. Dupuis,
     D. Silverstein, D. M. A. Smith, J. Nieplocha, V. Tipparaju, M. Krishnan,
     B. E. Van Kuiken, A. Vazquez-Mayagoitia, M. Swart, Q. Wu, T. Van Voorhis,
     A. A. Auer, M. Nooijen, L. D. Crosby, E. Brown, G. Cisneros, G. I. Fann,
   H. Fruchtl, J. Garza, K. Hirao, R. A. Kendall, J. A. Nichols, K. Tsemekhman,
    K. Wolinski, J. Anchell, D. E. Bernholdt, P. Borowski, T. Clark, D. Clerc,
   H. Dachsel, M. J. O. Deegan, K. Dyall, D. Elwood, E. Glendening, M. Gutowski,
   A. C. Hess, J. Jaffe, B. G. Johnson, J. Ju, R. Kobayashi, R. Kutteh, Z. Lin,
   R. Littlefield, X. Long, B. Meng, T. Nakajima, S. Niu, L. Pollack, M. Rosing,
   K. Glaesemann, G. Sandrone, M. Stave, H. Taylor, G. Thomas, J. H. van Lenthe,
                               A. T. Wong, Z. Zhang.

 Total times  cpu:       40.6s     wall:       45.1s
