 argument  1 = input.nw
  NWChem w/ OpenMP: maximum threads =    1



============================== echo of input deck ==============================
 echo
 start H2
 title "H2"

 memory total 24 gb

 geometry units bohr
 symmetry c1
        H  0.00000000  0.00000000  0.00000000
        H  0.00000000  2.70  0.00000000
 end

 basis
   * library cc-pVQZ
 end

 mcscf
   active  10
   actelec 2
   multiplicity 1
   maxiter 40
   vectors input H2.mos
   vectors output H2.mos
 end

 task mcscf

 scf
   vectors input H2.mos
   vectors output H2-2.70.mos
   noscf
 end

 tce
   2eorb
   2emet 13
   ccsd
   maxiter 300
   lshift 0.8
 end

# set tce:print_integrals T
# set tce:qorb 10
# set tce:qela 1
# set tce:qelb 1

 set tce:qducc T
 set tce:nactv 9
 set tce:nonhf T
 set tce:ducc_model 3

 set tce:printtol 0.02

 task tce
================================================================================


                                         
                                         


             Northwest Computational Chemistry Package (NWChem) 7.0.1
             --------------------------------------------------------


                    Environmental Molecular Sciences Laboratory
                       Pacific Northwest National Laboratory
                                Richland, WA 99352

                              Copyright (c) 1994-2020
                       Pacific Northwest National Laboratory
                            Battelle Memorial Institute

             NWChem is an open-source computational chemistry package
                        distributed under the terms of the
                      Educational Community License (ECL) 2.0
             A copy of the license is included with this distribution
                              in the LICENSE.TXT file

                                  ACKNOWLEDGMENT
                                  --------------

            This software and its documentation were developed at the
            EMSL at Pacific Northwest National Laboratory, a multiprogram
            national laboratory, operated for the U.S. Department of Energy
            by Battelle under Contract Number DE-AC05-76RL01830. Support
            for this work was provided by the Department of Energy Office
            of Biological and Environmental Research, Office of Basic
            Energy Sciences, and the Office of Advanced Scientific Computing.


           Job information
           ---------------

    hostname        = WE46210
    program         = /home/baum612/code/nwchem/bin/LINUX64/nwchem
    date            = Fri Nov 10 22:04:57 2023

    compiled        = Mon_Nov_06_10:06:57_2023
    source          = /home/baum612/code/nwchem
    nwchem branch   = 7.0.0
    nwchem revision = nwchem_on_git-4191-g39d87d64de
    ga revision     = 5.8.1
    use scalapack   = F
    input           = input.nw
    prefix          = H2.
    data base       = ./H2.db
    status          = startup
    nproc           =        1
    time left       =     -1s



           Memory information
           ------------------

    heap     =  805306362 doubles =   6144.0 Mbytes
    stack    =  805306367 doubles =   6144.0 Mbytes
    global   = 1610612736 doubles =  12288.0 Mbytes (distinct from heap & stack)
    total    = 3221225465 doubles =  24576.0 Mbytes
    verify   = yes
    hardfail = no 


           Directory information
           ---------------------

  0 permanent = .
  0 scratch   = .




                                NWChem Input Module
                                -------------------


                                        H2
                                        --
 Turning off AUTOSYM since
 SYMMETRY directive was detected!


          ------
          auto-z
          ------
     1 autoz failed with cvr_scaling = 1.2 changing to 1.3
     2 autoz failed with cvr_scaling = 1.3 changing to 1.4
     3 autoz failed with cvr_scaling = 1.4 changing to 1.5
     4 autoz failed with cvr_scaling = 1.5 changing to 1.6
     5 autoz failed with cvr_scaling = 1.6 changing to 1.7

 AUTOZ failed to generate good internal coordinates.
 Cartesian coordinates will be used in optimizations.



                             Geometry "geometry" -> ""
                             -------------------------

 Output coordinates in a.u. (scale by  1.000000000 to convert to a.u.)

  No.       Tag          Charge          X              Y              Z
 ---- ---------------- ---------- -------------- -------------- --------------
    1 H                    1.0000     0.00000000    -1.35000000     0.00000000
    2 H                    1.0000     0.00000000     1.35000000     0.00000000

      Atomic Mass 
      ----------- 

      H                  1.007825


 Effective nuclear repulsion energy (a.u.)       0.3703703704

            Nuclear Dipole moment (a.u.) 
            ----------------------------
        X                 Y               Z
 ---------------- ---------------- ----------------
     0.0000000000     0.0000000000     0.0000000000


            XYZ format geometry
            -------------------
     2
 geometry
 H                     0.00000000    -0.71438929     0.00000000
 H                     0.00000000     0.71438929     0.00000000



 Summary of "ao basis" -> "" (cartesian)
 ------------------------------------------------------------------------------
       Tag                 Description            Shells   Functions and Types
 ---------------- ------------------------------  ------  ---------------------
 *                          cc-pVQZ                   on all atoms 


                      Basis "ao basis" -> "ao basis" (cartesian)
                      -----
  H (Hydrogen)
  ------------
            Exponent  Coefficients 
       -------------- ---------------------------------------------------------
  1 S  8.26400000E+01  0.002006
  1 S  1.24100000E+01  0.015343
  1 S  2.82400000E+00  0.075579

  2 S  7.97700000E-01  1.000000

  3 S  2.58100000E-01  1.000000

  4 S  8.98900000E-02  1.000000

  5 P  2.29200000E+00  1.000000

  6 P  8.38000000E-01  1.000000

  7 P  2.92000000E-01  1.000000

  8 D  2.06200000E+00  1.000000

  9 D  6.62000000E-01  1.000000

 10 F  1.39700000E+00  1.000000



 Summary of "ao basis" -> "ao basis" (cartesian)
 ------------------------------------------------------------------------------
       Tag                 Description            Shells   Functions and Types
 ---------------- ------------------------------  ------  ---------------------
 H                          cc-pVQZ                 10       35   4s3p2d1f



                            NWChem Direct MCSCF Module
                            --------------------------


                                        H2


     -----------------------------------
       Basis functions:             70
       Inactive shells:              0
       Active shells:               10
       Active electrons:             2
       Symmetry:                    a       
       Multiplicity:                 1
       Orbital rotations:          600
     -----------------------------------

     -----------------------------------
       E2 extrapolation:             F
       Conjugacy:                    T
       Micro CI relax:               T
       Canonical orbitals:           T
       Maximum iterations:          40
       Converge threshold:    1.00E-04
       Conjugacy resets:            20
       Initial levelshift:        0.10
     -----------------------------------

 Loading old vectors from job with title :

H2


   input molecular orbitals = ./H2.mos
  output molecular orbtials = ./H2.mos

       No. of determinants:           100


  Starting Orbital Energies
    -0.471155    -0.049883    -0.002568    -0.002144    -0.002144    -0.000278
    -0.000174    -0.000152    -0.000152    -0.000069     0.464216     0.851130
     1.067975     1.380289     1.380289     1.537630     1.537630     1.958627
     1.958627     2.014304     2.014304     2.019853     2.259707     2.259707
     2.448014     2.773016     2.773016     2.865304     2.962854     3.836554
     4.060511     4.418226     4.418226     4.431522     4.431522     4.858990
     5.670152     5.670152     5.773316     5.773316     6.022462     6.026238
     6.026238     6.126617     6.126617     6.471316     6.471316     7.407004
     7.407004     8.100587     8.100587     8.242272     8.242272     8.269487
     8.269487     8.488567     8.614570     8.614570     8.967278     9.188354
     9.580566     9.699462     9.699462     9.771115     9.771115     9.839707
     9.925371    10.561794    22.576229    23.799240

  Orbital Symmetry Irreps
a    a    a    a    a    a    a    a    a    a    a    a    a    a    a   
a    a    a    a    a    a    a    a    a    a    a    a    a    a    a   
a    a    a    a    a    a    a    a    a    a    a    a    a    a    a   
a    a    a    a    a    a    a    a    a    a    a    a    a    a    a   
a    a    a    a    a    a    a    a    a    a   

 Integral file          = ./H2.aoints.0
 Record size in doubles =  65536        No. of integs per rec  =  43688
 Max. records in memory =     99        Max. records in file   = 280198
 No. of bits per label  =      8        No. of bits per value  =     64


 #quartets = 2.216D+04 #integrals = 8.606D+05 #direct =  0.0% #cached =100.0%




          %%%%% MacroIteration   1 %%%%%


          Number of sigma calls:       14
                       o<<<<< (aa):             0.00
                       o<<<<< (bb):             0.00
                       o<<<<< (ab):             0.01
                       o<<<<< (total)           0.02
                       o<<<<< (aa) ff           0.00
                       o<<<<< (aa) gop          0.00
                       o<<<<< (aa) dot          0.00
                       o<<<<< (ab) str          0.00
                       o<<<<< (ab) gath         0.00
                       o<<<<< (ab) dotab        0.00
                       o<<<<< (ab) scat         0.00
                       o<<<<< (ab) sync         0.00
                       o<<<<< Density           0.00
                       o<<<<< Density one       0.00
                       o<<<<< Density two       0.00
                       o<<<<< Density ab        0.00
                       o<<<<< Spin adapt        0.00
                       o<<<<< Symm adapt        0.00

                       o<<<<< (ab) max sync:      0.00

           >>>| Valence CI:             -1.446902715607
           >>>| MCSCF energy:           -1.076532345237
           >>>| Gradient norm:          0.588643660D-02
     --- Warning:  346 Hessian diagonals < 0.05 ---

                              ----- Line search ------

        step       energy         lsg     num-lsg   num-lsh   lsrat    time
      ------- ---------------- --------- --------- --------- ------- --------
       0.0000      -1.07653235 -3.86D-06  0.00D+00  0.00D+00 0.0D+00      0.5

          Number of sigma calls:       14
                       o<<<<< (aa):             0.00
                       o<<<<< (bb):             0.00
                       o<<<<< (ab):             0.01
                       o<<<<< (total)           0.01
                       o<<<<< (aa) ff           0.00
                       o<<<<< (aa) gop          0.00
                       o<<<<< (aa) dot          0.00
                       o<<<<< (ab) str          0.00
                       o<<<<< (ab) gath         0.00
                       o<<<<< (ab) dotab        0.00
                       o<<<<< (ab) scat         0.00
                       o<<<<< (ab) sync         0.00
                       o<<<<< Density           0.00
                       o<<<<< Density one       0.00
                       o<<<<< Density two       0.00
                       o<<<<< Density ab        0.00
                       o<<<<< Spin adapt        0.00
                       o<<<<< Symm adapt        0.00

                       o<<<<< (ab) max sync:      0.00
       1.0000      -1.07653473 -9.14D-07 -9.15D-07  2.95D-06 2.4D-01      0.6

          Number of sigma calls:       12
                       o<<<<< (aa):             0.00
                       o<<<<< (bb):             0.00
                       o<<<<< (ab):             0.01
                       o<<<<< (total)           0.01
                       o<<<<< (aa) ff           0.00
                       o<<<<< (aa) gop          0.00
                       o<<<<< (aa) dot          0.00
                       o<<<<< (ab) str          0.00
                       o<<<<< (ab) gath         0.00
                       o<<<<< (ab) dotab        0.00
                       o<<<<< (ab) scat         0.00
                       o<<<<< (ab) sync         0.00
                       o<<<<< Density           0.00
                       o<<<<< Density one       0.00
                       o<<<<< Density two       0.00
                       o<<<<< Density ab        0.00
                       o<<<<< Spin adapt        0.00
                       o<<<<< Symm adapt        0.00

                       o<<<<< (ab) max sync:      0.00
       1.3102      -1.07653488  1.31D-09  1.27D-09  2.95D-06 3.4D-04      0.8
     --- Orbitals canonicalized ---



          %%%%% MacroIteration   2 %%%%%


          Number of sigma calls:       14
                       o<<<<< (aa):             0.00
                       o<<<<< (bb):             0.00
                       o<<<<< (ab):             0.01
                       o<<<<< (total)           0.02
                       o<<<<< (aa) ff           0.00
                       o<<<<< (aa) gop          0.00
                       o<<<<< (aa) dot          0.00
                       o<<<<< (ab) str          0.00
                       o<<<<< (ab) gath         0.00
                       o<<<<< (ab) dotab        0.00
                       o<<<<< (ab) scat         0.00
                       o<<<<< (ab) sync         0.00
                       o<<<<< Density           0.00
                       o<<<<< Density one       0.00
                       o<<<<< Density two       0.00
                       o<<<<< Density ab        0.00
                       o<<<<< Spin adapt        0.00
                       o<<<<< Symm adapt        0.00

                       o<<<<< (ab) max sync:      0.00

           >>>| Valence CI:             -1.446905245831
           >>>| MCSCF energy:           -1.076534875461
           >>>| Gradient norm:          0.171602398D-02
     --- Warning:  346 Hessian diagonals < 0.05 ---
     --- Conjugacy reset ---

                              ----- Line search ------

        step       energy         lsg     num-lsg   num-lsh   lsrat    time
      ------- ---------------- --------- --------- --------- ------- --------
       0.0000      -1.07653488 -2.37D-07  0.00D+00  0.00D+00 0.0D+00      1.1

          Number of sigma calls:       12
                       o<<<<< (aa):             0.00
                       o<<<<< (bb):             0.00
                       o<<<<< (ab):             0.01
                       o<<<<< (total)           0.01
                       o<<<<< (aa) ff           0.00
                       o<<<<< (aa) gop          0.00
                       o<<<<< (aa) dot          0.00
                       o<<<<< (ab) str          0.00
                       o<<<<< (ab) gath         0.00
                       o<<<<< (ab) dotab        0.00
                       o<<<<< (ab) scat         0.00
                       o<<<<< (ab) sync         0.00
                       o<<<<< Density           0.00
                       o<<<<< Density one       0.00
                       o<<<<< Density two       0.00
                       o<<<<< Density ab        0.00
                       o<<<<< Spin adapt        0.00
                       o<<<<< Symm adapt        0.00

                       o<<<<< (ab) max sync:      0.00
       1.0000      -1.07653503 -7.56D-08 -7.56D-08  1.62D-07 3.2D-01      1.3

          Number of sigma calls:       11
                       o<<<<< (aa):             0.00
                       o<<<<< (bb):             0.00
                       o<<<<< (ab):             0.01
                       o<<<<< (total)           0.01
                       o<<<<< (aa) ff           0.00
                       o<<<<< (aa) gop          0.00
                       o<<<<< (aa) dot          0.00
                       o<<<<< (ab) str          0.00
                       o<<<<< (ab) gath         0.00
                       o<<<<< (ab) dotab        0.00
                       o<<<<< (ab) scat         0.00
                       o<<<<< (ab) sync         0.00
                       o<<<<< Density           0.00
                       o<<<<< Density one       0.00
                       o<<<<< Density two       0.00
                       o<<<<< Density ab        0.00
                       o<<<<< Spin adapt        0.00
                       o<<<<< Symm adapt        0.00

                       o<<<<< (ab) max sync:      0.00
       1.4672      -1.07653505  3.80D-11  3.60D-11  1.62D-07 1.6D-04      1.5



          %%%%% MacroIteration   3 %%%%%


          Number of sigma calls:        1
                       o<<<<< (aa):             0.00
                       o<<<<< (bb):             0.00
                       o<<<<< (ab):             0.00
                       o<<<<< (total)           0.00
                       o<<<<< (aa) ff           0.00
                       o<<<<< (aa) gop          0.00
                       o<<<<< (aa) dot          0.00
                       o<<<<< (ab) str          0.00
                       o<<<<< (ab) gath         0.00
                       o<<<<< (ab) dotab        0.00
                       o<<<<< (ab) scat         0.00
                       o<<<<< (ab) sync         0.00
                       o<<<<< Density           0.00
                       o<<<<< Density one       0.00
                       o<<<<< Density two       0.00
                       o<<<<< Density ab        0.00
                       o<<<<< Spin adapt        0.00
                       o<<<<< Symm adapt        0.00

                       o<<<<< (ab) max sync:      0.00

           >>>| Valence CI:             -1.446905420001
           >>>| MCSCF energy:           -1.076535049630
           >>>| Gradient norm:          0.748061234D-03
     --- Warning:  346 Hessian diagonals < 0.05 ---

                              ----- Line search ------

        step       energy         lsg     num-lsg   num-lsh   lsrat    time
      ------- ---------------- --------- --------- --------- ------- --------
       0.0000      -1.07653505 -4.50D-08  0.00D+00  0.00D+00 0.0D+00      1.7

          Number of sigma calls:        8
                       o<<<<< (aa):             0.00
                       o<<<<< (bb):             0.00
                       o<<<<< (ab):             0.01
                       o<<<<< (total)           0.01
                       o<<<<< (aa) ff           0.00
                       o<<<<< (aa) gop          0.00
                       o<<<<< (aa) dot          0.00
                       o<<<<< (ab) str          0.00
                       o<<<<< (ab) gath         0.00
                       o<<<<< (ab) dotab        0.00
                       o<<<<< (ab) scat         0.00
                       o<<<<< (ab) sync         0.00
                       o<<<<< Density           0.00
                       o<<<<< Density one       0.00
                       o<<<<< Density two       0.00
                       o<<<<< Density ab        0.00
                       o<<<<< Spin adapt        0.00
                       o<<<<< Symm adapt        0.00

                       o<<<<< (ab) max sync:      0.00
       1.0000      -1.07653508 -1.73D-08 -1.73D-08  2.77D-08 3.8D-01      2.0

          Number of sigma calls:        8
                       o<<<<< (aa):             0.00
                       o<<<<< (bb):             0.00
                       o<<<<< (ab):             0.01
                       o<<<<< (total)           0.01
                       o<<<<< (aa) ff           0.00
                       o<<<<< (aa) gop          0.00
                       o<<<<< (aa) dot          0.00
                       o<<<<< (ab) str          0.00
                       o<<<<< (ab) gath         0.00
                       o<<<<< (ab) dotab        0.00
                       o<<<<< (ab) scat         0.00
                       o<<<<< (ab) sync         0.00
                       o<<<<< Density           0.00
                       o<<<<< Density one       0.00
                       o<<<<< Density two       0.00
                       o<<<<< Density ab        0.00
                       o<<<<< Spin adapt        0.00
                       o<<<<< Symm adapt        0.00

                       o<<<<< (ab) max sync:      0.00
       1.6253      -1.07653509  2.49D-12  2.33D-12  2.77D-08 5.5D-05      2.2



          %%%%% MacroIteration   4 %%%%%


          Number of sigma calls:        1
                       o<<<<< (aa):             0.00
                       o<<<<< (bb):             0.00
                       o<<<<< (ab):             0.00
                       o<<<<< (total)           0.00
                       o<<<<< (aa) ff           0.00
                       o<<<<< (aa) gop          0.00
                       o<<<<< (aa) dot          0.00
                       o<<<<< (ab) str          0.00
                       o<<<<< (ab) gath         0.00
                       o<<<<< (ab) dotab        0.00
                       o<<<<< (ab) scat         0.00
                       o<<<<< (ab) sync         0.00
                       o<<<<< Density           0.00
                       o<<<<< Density one       0.00
                       o<<<<< Density two       0.00
                       o<<<<< Density ab        0.00
                       o<<<<< Spin adapt        0.00
                       o<<<<< Symm adapt        0.00

                       o<<<<< (ab) max sync:      0.00

           >>>| Valence CI:             -1.446905456568
           >>>| MCSCF energy:           -1.076535086198
           >>>| Gradient norm:          0.474027040D-03
     --- Warning:  346 Hessian diagonals < 0.05 ---

                              ----- Line search ------

        step       energy         lsg     num-lsg   num-lsh   lsrat    time
      ------- ---------------- --------- --------- --------- ------- --------
       0.0000      -1.07653509 -1.77D-08  0.00D+00  0.00D+00 0.0D+00      2.3

          Number of sigma calls:       10
                       o<<<<< (aa):             0.00
                       o<<<<< (bb):             0.00
                       o<<<<< (ab):             0.02
                       o<<<<< (total)           0.02
                       o<<<<< (aa) ff           0.00
                       o<<<<< (aa) gop          0.00
                       o<<<<< (aa) dot          0.00
                       o<<<<< (ab) str          0.00
                       o<<<<< (ab) gath         0.00
                       o<<<<< (ab) dotab        0.00
                       o<<<<< (ab) scat         0.00
                       o<<<<< (ab) sync         0.00
                       o<<<<< Density           0.00
                       o<<<<< Density one       0.00
                       o<<<<< Density two       0.00
                       o<<<<< Density ab        0.00
                       o<<<<< Spin adapt        0.00
                       o<<<<< Symm adapt        0.00

                       o<<<<< (ab) max sync:      0.00
       1.0000      -1.07653510 -1.32D-08 -1.32D-08  4.44D-09 7.5D-01      2.6

          Number of sigma calls:       11
                       o<<<<< (aa):             0.00
                       o<<<<< (bb):             0.00
                       o<<<<< (ab):             0.02
                       o<<<<< (total)           0.02
                       o<<<<< (aa) ff           0.00
                       o<<<<< (aa) gop          0.00
                       o<<<<< (aa) dot          0.00
                       o<<<<< (ab) str          0.00
                       o<<<<< (ab) gath         0.00
                       o<<<<< (ab) dotab        0.00
                       o<<<<< (ab) scat         0.00
                       o<<<<< (ab) sync         0.00
                       o<<<<< Density           0.00
                       o<<<<< Density one       0.00
                       o<<<<< Density two       0.00
                       o<<<<< Density ab        0.00
                       o<<<<< Spin adapt        0.00
                       o<<<<< Symm adapt        0.00

                       o<<<<< (ab) max sync:      0.00
       3.9778      -1.07653512  1.35D-11  1.18D-11  4.45D-09 7.6D-04      2.9



          %%%%% MacroIteration   5 %%%%%


          Number of sigma calls:        1
                       o<<<<< (aa):             0.00
                       o<<<<< (bb):             0.00
                       o<<<<< (ab):             0.00
                       o<<<<< (total)           0.00
                       o<<<<< (aa) ff           0.00
                       o<<<<< (aa) gop          0.00
                       o<<<<< (aa) dot          0.00
                       o<<<<< (ab) str          0.00
                       o<<<<< (ab) gath         0.00
                       o<<<<< (ab) dotab        0.00
                       o<<<<< (ab) scat         0.00
                       o<<<<< (ab) sync         0.00
                       o<<<<< Density           0.00
                       o<<<<< Density one       0.00
                       o<<<<< Density two       0.00
                       o<<<<< Density ab        0.00
                       o<<<<< Spin adapt        0.00
                       o<<<<< Symm adapt        0.00

                       o<<<<< (ab) max sync:      0.00

           >>>| Valence CI:             -1.446905491710
           >>>| MCSCF energy:           -1.076535121339
           >>>| Gradient norm:          0.212728556D-03
     --- Warning:  346 Hessian diagonals < 0.05 ---

                              ----- Line search ------

        step       energy         lsg     num-lsg   num-lsh   lsrat    time
      ------- ---------------- --------- --------- --------- ------- --------
       0.0000      -1.07653512 -2.09D-07  0.00D+00  0.00D+00 0.0D+00      3.4

          Number of sigma calls:       10
                       o<<<<< (aa):             0.00
                       o<<<<< (bb):             0.00
                       o<<<<< (ab):             0.01
                       o<<<<< (total)           0.01
                       o<<<<< (aa) ff           0.00
                       o<<<<< (aa) gop          0.00
                       o<<<<< (aa) dot          0.00
                       o<<<<< (ab) str          0.00
                       o<<<<< (ab) gath         0.00
                       o<<<<< (ab) dotab        0.00
                       o<<<<< (ab) scat         0.00
                       o<<<<< (ab) sync         0.00
                       o<<<<< Density           0.00
                       o<<<<< Density one       0.00
                       o<<<<< Density two       0.00
                       o<<<<< Density ab        0.00
                       o<<<<< Spin adapt        0.00
                       o<<<<< Symm adapt        0.00

                       o<<<<< (ab) max sync:      0.00
       1.0000      -1.07653526 -7.74D-08 -7.77D-08  1.31D-07 3.7D-01      3.6

          Number of sigma calls:        9
                       o<<<<< (aa):             0.00
                       o<<<<< (bb):             0.00
                       o<<<<< (ab):             0.01
                       o<<<<< (total)           0.01
                       o<<<<< (aa) ff           0.00
                       o<<<<< (aa) gop          0.00
                       o<<<<< (aa) dot          0.00
                       o<<<<< (ab) str          0.00
                       o<<<<< (ab) gath         0.00
                       o<<<<< (ab) dotab        0.00
                       o<<<<< (ab) scat         0.00
                       o<<<<< (ab) sync         0.00
                       o<<<<< Density           0.00
                       o<<<<< Density one       0.00
                       o<<<<< Density two       0.00
                       o<<<<< Density ab        0.00
                       o<<<<< Spin adapt        0.00
                       o<<<<< Symm adapt        0.00

                       o<<<<< (ab) max sync:      0.00
       1.5901      -1.07653529  1.56D-09  1.47D-09  1.34D-07 7.5D-03      3.8



          %%%%% MacroIteration   6 %%%%%


          Number of sigma calls:        1
                       o<<<<< (aa):             0.00
                       o<<<<< (bb):             0.00
                       o<<<<< (ab):             0.00
                       o<<<<< (total)           0.00
                       o<<<<< (aa) ff           0.00
                       o<<<<< (aa) gop          0.00
                       o<<<<< (aa) dot          0.00
                       o<<<<< (ab) str          0.00
                       o<<<<< (ab) gath         0.00
                       o<<<<< (ab) dotab        0.00
                       o<<<<< (ab) scat         0.00
                       o<<<<< (ab) sync         0.00
                       o<<<<< Density           0.00
                       o<<<<< Density one       0.00
                       o<<<<< Density two       0.00
                       o<<<<< Density ab        0.00
                       o<<<<< Spin adapt        0.00
                       o<<<<< Symm adapt        0.00

                       o<<<<< (ab) max sync:      0.00

           >>>| Valence CI:             -1.446905657469
           >>>| MCSCF energy:           -1.076535287098
           >>>| Gradient norm:          0.305109547D-04




     ==============================
            MCSCF Converged
     ==============================



          Canonical Eigenvalues

              1      
    1   -0.4666
    2   -0.0523
    3   -0.0025
    4   -0.0021
    5   -0.0021
    6   -0.0003
    7   -0.0002
    8   -0.0001
    9   -0.0001
   10   -0.0001
   11    0.4663
   12    0.8505
   13    1.0664
   14    1.3825
   15    1.3825
   16    1.5461
   17    1.5461
   18    1.9634
   19    1.9634
   20    2.0013
   21    2.0013
   22    2.0131
   23    2.2501
   24    2.2501
   25    2.4359
   26    2.7500
   27    2.7500
   28    2.8734
   29    2.9660
   30    3.7945
   31    4.0976
   32    4.4218
   33    4.4218
   34    4.4295
   35    4.4295
   36    4.8401
   37    5.6689
   38    5.6689
   39    5.7965
   40    5.7965
   41    5.9554
   42    6.0322
   43    6.0322
   44    6.1186
   45    6.1186
   46    6.4282
   47    6.4282
   48    7.2964
   49    7.2964
   50    8.0985
   51    8.0985
   52    8.2373
   53    8.2373
   54    8.2511
   55    8.2511
   56    8.3924
   57    8.6137
   58    8.6137
   59    8.9175
   60    9.1873
   61    9.5700
   62    9.7043
   63    9.7043
   64    9.7644
   65    9.7644
   66    9.8567
   67    9.9173
   68   10.4779
   69   22.5630
   70   23.7186


          Converged CI vector

   Index           Coefficient          Config. Occupation
         1         -0.96161857          1  1
        12          0.26347226          2  2
        23          0.04411465          3  3
        34          0.04063703          4  4
        45          0.04063703          5  5

          Number of sigma calls:        1
                       o<<<<< (aa):             0.00
                       o<<<<< (bb):             0.00
                       o<<<<< (ab):             0.00
                       o<<<<< (total)           0.00
                       o<<<<< (aa) ff           0.00
                       o<<<<< (aa) gop          0.00
                       o<<<<< (aa) dot          0.00
                       o<<<<< (ab) str          0.00
                       o<<<<< (ab) gath         0.00
                       o<<<<< (ab) dotab        0.00
                       o<<<<< (ab) scat         0.00
                       o<<<<< (ab) sync         0.00
                       o<<<<< Density           0.00
                       o<<<<< Density one       0.00
                       o<<<<< Density two       0.00
                       o<<<<< Density ab        0.00
                       o<<<<< Spin adapt        0.00
                       o<<<<< Symm adapt        0.00

                       o<<<<< (ab) max sync:      0.00



          Natural orbital occupation numbers

              1      
    1    1.8498
    2    0.1388
    3    0.0039
    4    0.0033
    5    0.0033
    6    0.0003
    7    0.0002
    8    0.0002
    9    0.0002
   10    0.0001


          Number of sigma calls:       14
                       o<<<<< (aa):             0.00
                       o<<<<< (bb):             0.00
                       o<<<<< (ab):             0.00
                       o<<<<< (total)           0.00
                       o<<<<< (aa) ff           0.00
                       o<<<<< (aa) gop          0.00
                       o<<<<< (aa) dot          0.00
                       o<<<<< (ab) str          0.00
                       o<<<<< (ab) gath         0.00
                       o<<<<< (ab) dotab        0.00
                       o<<<<< (ab) scat         0.00
                       o<<<<< (ab) sync         0.00
                       o<<<<< Density           0.00
                       o<<<<< Density one       0.00
                       o<<<<< Density two       0.00
                       o<<<<< Density ab        0.00
                       o<<<<< Spin adapt        0.00
                       o<<<<< Symm adapt        0.00

                       o<<<<< (ab) max sync:      0.00


       Final MCSCF results 
       ------------------- 

       Total MCSCF energy =     -1.076535287098
            Gradient norm =      3.1D-05

    CPU time for solution =      4.2s
   Wall time for solution =      4.5s



                        Analysis of MCSCF natural orbitals
                        ----------------------------------

 Vector    1  Occ=1.849792D+00  E=-4.666490D-01  Symmetry=a
              MO Center=  9.5D-17, -5.0D-13, -1.3D-16, r^2= 1.2D+00
   Bfn.  Coefficient  Atom+Function         Bfn.  Coefficient  Atom+Function  
  ----- ------------  ---------------      ----- ------------  ---------------
     3      0.287528  1 H  s                 38      0.287528  2 H  s          
     4      0.169524  1 H  s                 39      0.169524  2 H  s          
     2      0.154513  1 H  s                 37      0.154513  2 H  s          

 Vector    2  Occ=1.388369D-01  E=-5.231702D-02  Symmetry=a
              MO Center=  9.7D-15, -1.4D-12, -6.6D-15, r^2= 1.3D+00
   Bfn.  Coefficient  Atom+Function         Bfn.  Coefficient  Atom+Function  
  ----- ------------  ---------------      ----- ------------  ---------------
     3      0.480383  1 H  s                 38     -0.480383  2 H  s          
     2      0.272194  1 H  s                 37     -0.272194  2 H  s          
     4      0.157348  1 H  s                 39     -0.157348  2 H  s          

 Vector    3  Occ=3.918043D-03  E=-2.482203D-03  Symmetry=a
              MO Center= -5.9D-14, -5.7D-11,  3.9D-14, r^2= 2.2D+00
   Bfn.  Coefficient  Atom+Function         Bfn.  Coefficient  Atom+Function  
  ----- ------------  ---------------      ----- ------------  ---------------
     9     -0.471713  1 H  py                44      0.471713  2 H  py         
     4      0.461242  1 H  s                 39      0.461242  2 H  s          
     2     -0.290173  1 H  s                 37     -0.290173  2 H  s          
    12     -0.192391  1 H  py                47      0.192391  2 H  py         

 Vector    4  Occ=3.302736D-03  E=-2.068321D-03  Symmetry=a
              MO Center=  7.9D-14,  1.4D-11,  7.5D-16, r^2= 1.2D+00
   Bfn.  Coefficient  Atom+Function         Bfn.  Coefficient  Atom+Function  
  ----- ------------  ---------------      ----- ------------  ---------------
    11      0.524522  1 H  px                46      0.524522  2 H  px         
    21      0.238032  1 H  dxy               56     -0.238032  2 H  dxy        

 Vector    5  Occ=3.302736D-03  E=-2.068321D-03  Symmetry=a
              MO Center= -3.1D-16,  1.4D-11, -4.8D-14, r^2= 1.2D+00
   Bfn.  Coefficient  Atom+Function         Bfn.  Coefficient  Atom+Function  
  ----- ------------  ---------------      ----- ------------  ---------------
    13      0.524522  1 H  pz                48      0.524522  2 H  pz         
    24      0.238032  1 H  dyz               59     -0.238032  2 H  dyz        

 Vector    6  Occ=3.209180D-04  E=-2.704633D-04  Symmetry=a
              MO Center= -1.4D-14, -2.2D-11,  7.2D-15, r^2= 1.1D+00
   Bfn.  Coefficient  Atom+Function         Bfn.  Coefficient  Atom+Function  
  ----- ------------  ---------------      ----- ------------  ---------------
     2      0.728587  1 H  s                 37      0.728587  2 H  s          
    12     -0.313716  1 H  py                47      0.313716  2 H  py         
     3     -0.211138  1 H  s                 38     -0.211138  2 H  s          
     4     -0.189411  1 H  s                 39     -0.189411  2 H  s          
     9     -0.186296  1 H  py                44      0.186296  2 H  py         

 Vector    7  Occ=1.695055D-04  E=-1.676344D-04  Symmetry=a
              MO Center= -1.4D-12,  1.3D-10,  8.5D-13, r^2= 1.6D+00
   Bfn.  Coefficient  Atom+Function         Bfn.  Coefficient  Atom+Function  
  ----- ------------  ---------------      ----- ------------  ---------------
     2      0.705752  1 H  s                 37     -0.705752  2 H  s          
     3     -0.499152  1 H  s                 38      0.499152  2 H  s          
     9      0.342659  1 H  py                44      0.342659  2 H  py         
     4     -0.306074  1 H  s                 39      0.306074  2 H  s          

 Vector    8  Occ=1.516624D-04  E=-1.471607D-04  Symmetry=a
              MO Center=  1.1D-12,  1.8D-12, -8.1D-14, r^2= 1.1D+00
   Bfn.  Coefficient  Atom+Function         Bfn.  Coefficient  Atom+Function  
  ----- ------------  ---------------      ----- ------------  ---------------
     8      0.744476  1 H  px                43     -0.744476  2 H  px         
    11      0.364470  1 H  px                46     -0.364470  2 H  px         
    21      0.194096  1 H  dxy               56      0.194096  2 H  dxy        
    26     -0.152373  1 H  fxxx              31     -0.152373  1 H  fxzz       
    61      0.152373  2 H  fxxx              66      0.152373  2 H  fxzz       

 Vector    9  Occ=1.516624D-04  E=-1.471607D-04  Symmetry=a
              MO Center= -4.1D-14,  1.9D-12, -5.8D-13, r^2= 1.1D+00
   Bfn.  Coefficient  Atom+Function         Bfn.  Coefficient  Atom+Function  
  ----- ------------  ---------------      ----- ------------  ---------------
    10      0.744476  1 H  pz                45     -0.744476  2 H  pz         
    13      0.364470  1 H  pz                48     -0.364470  2 H  pz         
    24      0.194096  1 H  dyz               59      0.194096  2 H  dyz        
    28     -0.152373  1 H  fxxz              35     -0.152373  1 H  fzzz       
    63      0.152373  2 H  fxxz              70      0.152373  2 H  fzzz       

 Vector   10  Occ=5.412706D-05  E=-6.634813D-05  Symmetry=a
              MO Center= -1.7D-15,  6.6D-10,  3.7D-16, r^2= 2.0D+00
   Bfn.  Coefficient  Atom+Function         Bfn.  Coefficient  Atom+Function  
  ----- ------------  ---------------      ----- ------------  ---------------
     3      0.976502  1 H  s                 38      0.976502  2 H  s          
     4     -0.544749  1 H  s                 39     -0.544749  2 H  s          
    12      0.519733  1 H  py                47     -0.519733  2 H  py         
     2     -0.472298  1 H  s                 37     -0.472298  2 H  s          
     9     -0.414250  1 H  py                44      0.414250  2 H  py         

 Vector   11  Occ=0.000000D+00  E= 4.663221D-01  Symmetry=a
              MO Center=  3.8D-13, -9.2D-11, -2.3D-13, r^2= 7.2D+00
   Bfn.  Coefficient  Atom+Function         Bfn.  Coefficient  Atom+Function  
  ----- ------------  ---------------      ----- ------------  ---------------
     4      2.892138  1 H  s                 39     -2.892138  2 H  s          
     3     -2.600460  1 H  s                 38      2.600460  2 H  s          
     9     -0.855619  1 H  py                44     -0.855619  2 H  py         
     2      0.690250  1 H  s                 37     -0.690250  2 H  s          
    12      0.679753  1 H  py                47      0.679753  2 H  py         

 Vector   12  Occ=0.000000D+00  E= 8.505287D-01  Symmetry=a
              MO Center=  3.5D-16,  4.5D-10, -2.3D-16, r^2= 4.9D+00
   Bfn.  Coefficient  Atom+Function         Bfn.  Coefficient  Atom+Function  
  ----- ------------  ---------------      ----- ------------  ---------------
     3      3.468953  1 H  s                 38      3.468953  2 H  s          
     9      2.036802  1 H  py                44     -2.036802  2 H  py         
     4     -1.346379  1 H  s                 39     -1.346379  2 H  s          
     2     -1.096980  1 H  s                 37     -1.096980  2 H  s          
    12     -0.822785  1 H  py                47      0.822785  2 H  py         

 Vector   13  Occ=0.000000D+00  E= 1.066422D+00  Symmetry=a
              MO Center= -1.7D-12, -1.3D-09,  1.0D-12, r^2= 2.8D+00
   Bfn.  Coefficient  Atom+Function         Bfn.  Coefficient  Atom+Function  
  ----- ------------  ---------------      ----- ------------  ---------------
     3      4.538953  1 H  s                 38     -4.538953  2 H  s          
    12      2.976929  1 H  py                47      2.976929  2 H  py         
     9     -2.727320  1 H  py                44     -2.727320  2 H  py         
     2     -1.154302  1 H  s                 37      1.154302  2 H  s          
    27      1.026897  1 H  fxxy              32      1.031769  1 H  fyyy       

 Vector   14  Occ=0.000000D+00  E= 1.382542D+00  Symmetry=a
              MO Center=  9.1D-15, -1.4D-10, -1.1D-12, r^2= 3.0D+00
   Bfn.  Coefficient  Atom+Function         Bfn.  Coefficient  Atom+Function  
  ----- ------------  ---------------      ----- ------------  ---------------
    10      5.722411  1 H  pz                45     -5.722411  2 H  pz         
    28     -2.193136  1 H  fxxz              33     -2.200701  1 H  fyyz       
    35     -2.193136  1 H  fzzz              63      2.193136  2 H  fxxz       
    68      2.200701  2 H  fyyz              70      2.193136  2 H  fzzz       
    13     -1.867373  1 H  pz                48      1.867373  2 H  pz         

 Vector   15  Occ=0.000000D+00  E= 1.382542D+00  Symmetry=a
              MO Center=  1.9D-12, -1.4D-10,  1.5D-14, r^2= 3.0D+00
   Bfn.  Coefficient  Atom+Function         Bfn.  Coefficient  Atom+Function  
  ----- ------------  ---------------      ----- ------------  ---------------
     8      5.722411  1 H  px                43     -5.722411  2 H  px         
    26     -2.193136  1 H  fxxx              29     -2.200701  1 H  fxyy       
    31     -2.193136  1 H  fxzz              61      2.193136  2 H  fxxx       
    64      2.200701  2 H  fxyy              66      2.193136  2 H  fxzz       
    11     -1.867373  1 H  px                46      1.867373  2 H  px         

 Vector   16  Occ=0.000000D+00  E= 1.546071D+00  Symmetry=a
              MO Center=  2.0D-17,  1.3D-10,  3.9D-15, r^2= 2.1D+00
   Bfn.  Coefficient  Atom+Function         Bfn.  Coefficient  Atom+Function  
  ----- ------------  ---------------      ----- ------------  ---------------
    10      5.276921  1 H  pz                45      5.276921  2 H  pz         
    33     -2.076687  1 H  fyyz              68     -2.076687  2 H  fyyz       
    28     -2.061179  1 H  fxxz              35     -2.061179  1 H  fzzz       
    63     -2.061179  2 H  fxxz              70     -2.061179  2 H  fzzz       
     7     -1.398162  1 H  pz                42     -1.398162  2 H  pz         

 Vector   17  Occ=0.000000D+00  E= 1.546071D+00  Symmetry=a
              MO Center= -5.5D-15,  1.3D-10,  1.5D-16, r^2= 2.1D+00
   Bfn.  Coefficient  Atom+Function         Bfn.  Coefficient  Atom+Function  
  ----- ------------  ---------------      ----- ------------  ---------------
     8      5.276921  1 H  px                43      5.276921  2 H  px         
    29     -2.076687  1 H  fxyy              64     -2.076687  2 H  fxyy       
    26     -2.061179  1 H  fxxx              31     -2.061179  1 H  fxzz       
    61     -2.061179  2 H  fxxx              66     -2.061179  2 H  fxzz       
     5     -1.398162  1 H  px                40     -1.398162  2 H  px         

 Vector   18  Occ=0.000000D+00  E= 1.963382D+00  Symmetry=a
              MO Center= -7.9D-15, -5.0D-14,  2.6D-15, r^2= 1.3D+00
   Bfn.  Coefficient  Atom+Function         Bfn.  Coefficient  Atom+Function  
  ----- ------------  ---------------      ----- ------------  ---------------
    20      0.631366  1 H  dxx               25     -0.631366  1 H  dzz        
    55      0.631366  2 H  dxx               60     -0.631366  2 H  dzz        

 Vector   19  Occ=0.000000D+00  E= 1.963382D+00  Symmetry=a
              MO Center= -3.7D-15, -4.6D-14,  6.9D-17, r^2= 1.3D+00
   Bfn.  Coefficient  Atom+Function         Bfn.  Coefficient  Atom+Function  
  ----- ------------  ---------------      ----- ------------  ---------------
    22      1.262732  1 H  dxz               57      1.262732  2 H  dxz        
    16     -0.179622  1 H  dxz               51     -0.179622  2 H  dxz        

 Vector   20  Occ=0.000000D+00  E= 2.001343D+00  Symmetry=a
              MO Center=  3.3D-15,  4.6D-13, -2.1D-15, r^2= 1.6D+00
   Bfn.  Coefficient  Atom+Function         Bfn.  Coefficient  Atom+Function  
  ----- ------------  ---------------      ----- ------------  ---------------
    10      3.207166  1 H  pz                45      3.207166  2 H  pz         
    28     -1.266245  1 H  fxxz              35     -1.266245  1 H  fzzz       
    63     -1.266245  2 H  fxxz              70     -1.266245  2 H  fzzz       
    33     -1.230928  1 H  fyyz              68     -1.230928  2 H  fyyz       
    24     -0.976031  1 H  dyz               59      0.976031  2 H  dyz        


 Wrote Lagrangian and 1- and 2-particle density matrices to ./H2.mcpdm


     Multipole analysis of the density
     ---------------------------------

     L   x y z        total        nuclear
     -   - - -        -----        -------
     0   0 0 0     -0.000000      2.000000

     1   1 0 0     -0.000000      0.000000
     1   0 1 0      0.000000      0.000000
     1   0 0 1      0.000000      0.000000

     2   2 0 0     -2.046526      0.000000
     2   1 1 0      0.000000      0.000000
     2   1 0 1     -0.000000      0.000000
     2   0 2 0     -1.097543      3.645000
     2   0 1 1     -0.000000      0.000000
     2   0 0 2     -2.046526      0.000000


  Mulliken analysis of the total density
  --------------------------------------

    Atom       Charge   Shell Charges
 -----------   ------   -------------------------------------------------------
    1 H    1     1.00   0.04  0.20  0.47  0.26  0.00 -0.00  0.01  0.00  0.01  0.00
    2 H    1     1.00   0.04  0.20  0.47  0.26  0.00 -0.00  0.01  0.00  0.01  0.00

    Mulliken analysis of the active space density
    ---------------------------------------------

    Atom       Charge   Shell Charges
 -----------   ------   -------------------------------------------------------
    1 H    1     1.00   0.04  0.20  0.47  0.26  0.00 -0.00  0.01  0.00  0.01  0.00
    2 H    1     1.00   0.04  0.20  0.47  0.26  0.00 -0.00  0.01  0.00  0.01  0.00

 Parallel integral file used      20 records with       0 large values


 Task  times  cpu:        4.2s     wall:        4.5s


                                NWChem Input Module
                                -------------------


                                 NWChem SCF Module
                                 -----------------


                                        H2



  ao basis        = "ao basis"
  functions       =    70
  atoms           =     2
  closed shells   =     1
  open shells     =     0
  charge          =   0.00
  wavefunction    = RHF 
  input vectors   = ./H2.mos
  output vectors  = ./H2-2.70.mos
  use symmetry    = F
  symmetry adapt  = F


 Summary of "ao basis" -> "ao basis" (cartesian)
 ------------------------------------------------------------------------------
       Tag                 Description            Shells   Functions and Types
 ---------------- ------------------------------  ------  ---------------------
 H                          cc-pVQZ                 10       35   4s3p2d1f



 Forming initial guess at       4.6s


 Loading old vectors from job with title :

H2


 Starting SCF solution at       4.6s



 ----------------------------------------------
         Quadratically convergent ROHF

 Convergence threshold     :          1.000E-04
 Maximum no. of iterations :           30
 Final Fock-matrix accuracy:          1.000E-07
 ----------------------------------------------


 Integral file          = ./H2.aoints.0
 Record size in doubles =  65536        No. of integs per rec  =  43688
 Max. records in memory =     99        Max. records in file   = 280249
 No. of bits per label  =      8        No. of bits per value  =     64


 #quartets = 2.215D+04 #integrals = 8.585D+05 #direct =  0.0% #cached =100.0%



       Final RHF  results 
       ------------------ 

         Total SCF energy =     -1.015934706267
      One-electron energy =     -1.884813956205
      Two-electron energy =      0.498508879567
 Nuclear repulsion energy =      0.370370370370

        Time for solution =      0.0s


             Final eigenvalues
             -----------------

              1      
    1   -0.4666
    2   -0.0523
    3   -0.0025
    4   -0.0021
    5   -0.0021
    6   -0.0003
    7   -0.0002
    8   -0.0001
    9   -0.0001
   10   -0.0001
   11    0.4663

                       ROHF Final Molecular Orbital Analysis
                       -------------------------------------

 Vector    1  Occ=2.000000D+00  E=-4.666490D-01
              MO Center=  9.5D-17, -5.0D-13, -1.3D-16, r^2= 1.2D+00
   Bfn.  Coefficient  Atom+Function         Bfn.  Coefficient  Atom+Function  
  ----- ------------  ---------------      ----- ------------  ---------------
     3      0.287528  1 H  s                 38      0.287528  2 H  s          
     4      0.169524  1 H  s                 39      0.169524  2 H  s          
     2      0.154513  1 H  s                 37      0.154513  2 H  s          

 Vector    2  Occ=0.000000D+00  E=-5.231702D-02
              MO Center=  9.7D-15, -1.4D-12, -6.6D-15, r^2= 1.3D+00
   Bfn.  Coefficient  Atom+Function         Bfn.  Coefficient  Atom+Function  
  ----- ------------  ---------------      ----- ------------  ---------------
     3      0.480383  1 H  s                 38     -0.480383  2 H  s          
     2      0.272194  1 H  s                 37     -0.272194  2 H  s          
     4      0.157348  1 H  s                 39     -0.157348  2 H  s          

 Vector    3  Occ=0.000000D+00  E=-2.482203D-03
              MO Center= -5.9D-14, -5.7D-11,  3.9D-14, r^2= 2.2D+00
   Bfn.  Coefficient  Atom+Function         Bfn.  Coefficient  Atom+Function  
  ----- ------------  ---------------      ----- ------------  ---------------
     9     -0.471713  1 H  py                44      0.471713  2 H  py         
     4      0.461242  1 H  s                 39      0.461242  2 H  s          
     2     -0.290173  1 H  s                 37     -0.290173  2 H  s          
    12     -0.192391  1 H  py                47      0.192391  2 H  py         

 Vector    4  Occ=0.000000D+00  E=-2.068321D-03
              MO Center=  7.9D-14,  1.4D-11,  7.5D-16, r^2= 1.2D+00
   Bfn.  Coefficient  Atom+Function         Bfn.  Coefficient  Atom+Function  
  ----- ------------  ---------------      ----- ------------  ---------------
    11      0.524522  1 H  px                46      0.524522  2 H  px         
    21      0.238032  1 H  dxy               56     -0.238032  2 H  dxy        

 Vector    5  Occ=0.000000D+00  E=-2.068321D-03
              MO Center= -3.1D-16,  1.4D-11, -4.8D-14, r^2= 1.2D+00
   Bfn.  Coefficient  Atom+Function         Bfn.  Coefficient  Atom+Function  
  ----- ------------  ---------------      ----- ------------  ---------------
    13      0.524522  1 H  pz                48      0.524522  2 H  pz         
    24      0.238032  1 H  dyz               59     -0.238032  2 H  dyz        

 Vector    6  Occ=0.000000D+00  E=-2.704633D-04
              MO Center= -1.4D-14, -2.2D-11,  7.2D-15, r^2= 1.1D+00
   Bfn.  Coefficient  Atom+Function         Bfn.  Coefficient  Atom+Function  
  ----- ------------  ---------------      ----- ------------  ---------------
     2      0.728587  1 H  s                 37      0.728587  2 H  s          
    12     -0.313716  1 H  py                47      0.313716  2 H  py         
     3     -0.211138  1 H  s                 38     -0.211138  2 H  s          
     4     -0.189411  1 H  s                 39     -0.189411  2 H  s          
     9     -0.186296  1 H  py                44      0.186296  2 H  py         

 Vector    7  Occ=0.000000D+00  E=-1.676344D-04
              MO Center= -1.4D-12,  1.3D-10,  8.5D-13, r^2= 1.6D+00
   Bfn.  Coefficient  Atom+Function         Bfn.  Coefficient  Atom+Function  
  ----- ------------  ---------------      ----- ------------  ---------------
     2      0.705752  1 H  s                 37     -0.705752  2 H  s          
     3     -0.499152  1 H  s                 38      0.499152  2 H  s          
     9      0.342659  1 H  py                44      0.342659  2 H  py         
     4     -0.306074  1 H  s                 39      0.306074  2 H  s          

 Vector    8  Occ=0.000000D+00  E=-1.471607D-04
              MO Center=  1.1D-12,  1.8D-12, -8.1D-14, r^2= 1.1D+00
   Bfn.  Coefficient  Atom+Function         Bfn.  Coefficient  Atom+Function  
  ----- ------------  ---------------      ----- ------------  ---------------
     8      0.744476  1 H  px                43     -0.744476  2 H  px         
    11      0.364470  1 H  px                46     -0.364470  2 H  px         
    21      0.194096  1 H  dxy               56      0.194096  2 H  dxy        
    26     -0.152373  1 H  fxxx              31     -0.152373  1 H  fxzz       
    61      0.152373  2 H  fxxx              66      0.152373  2 H  fxzz       

 Vector    9  Occ=0.000000D+00  E=-1.471607D-04
              MO Center= -4.1D-14,  1.9D-12, -5.8D-13, r^2= 1.1D+00
   Bfn.  Coefficient  Atom+Function         Bfn.  Coefficient  Atom+Function  
  ----- ------------  ---------------      ----- ------------  ---------------
    10      0.744476  1 H  pz                45     -0.744476  2 H  pz         
    13      0.364470  1 H  pz                48     -0.364470  2 H  pz         
    24      0.194096  1 H  dyz               59      0.194096  2 H  dyz        
    28     -0.152373  1 H  fxxz              35     -0.152373  1 H  fzzz       
    63      0.152373  2 H  fxxz              70      0.152373  2 H  fzzz       

 Vector   10  Occ=0.000000D+00  E=-6.634813D-05
              MO Center= -1.7D-15,  6.6D-10,  3.7D-16, r^2= 2.0D+00
   Bfn.  Coefficient  Atom+Function         Bfn.  Coefficient  Atom+Function  
  ----- ------------  ---------------      ----- ------------  ---------------
     3      0.976502  1 H  s                 38      0.976502  2 H  s          
     4     -0.544749  1 H  s                 39     -0.544749  2 H  s          
    12      0.519733  1 H  py                47     -0.519733  2 H  py         
     2     -0.472298  1 H  s                 37     -0.472298  2 H  s          
     9     -0.414250  1 H  py                44      0.414250  2 H  py         

 Vector   11  Occ=0.000000D+00  E= 4.663221D-01
              MO Center=  3.8D-13, -9.2D-11, -2.3D-13, r^2= 7.2D+00
   Bfn.  Coefficient  Atom+Function         Bfn.  Coefficient  Atom+Function  
  ----- ------------  ---------------      ----- ------------  ---------------
     4      2.892138  1 H  s                 39     -2.892138  2 H  s          
     3     -2.600460  1 H  s                 38      2.600460  2 H  s          
     9     -0.855619  1 H  py                44     -0.855619  2 H  py         
     2      0.690250  1 H  s                 37     -0.690250  2 H  s          
    12      0.679753  1 H  py                47      0.679753  2 H  py         

 Vector   12  Occ=0.000000D+00  E= 8.505287D-01
              MO Center=  3.5D-16,  4.5D-10, -2.3D-16, r^2= 4.9D+00
   Bfn.  Coefficient  Atom+Function         Bfn.  Coefficient  Atom+Function  
  ----- ------------  ---------------      ----- ------------  ---------------
     3      3.468953  1 H  s                 38      3.468953  2 H  s          
     9      2.036802  1 H  py                44     -2.036802  2 H  py         
     4     -1.346379  1 H  s                 39     -1.346379  2 H  s          
     2     -1.096980  1 H  s                 37     -1.096980  2 H  s          
    12     -0.822785  1 H  py                47      0.822785  2 H  py         


 center of mass
 --------------
 x =   0.00000000 y =   0.00000000 z =   0.00000000

 moments of inertia (a.u.)
 ------------------
           3.673522125000           0.000000000000           0.000000000000
           0.000000000000           0.000000000000           0.000000000000
           0.000000000000           0.000000000000           3.673522125000

  Mulliken analysis of the total density
  --------------------------------------

    Atom       Charge   Shell Charges
 -----------   ------   -------------------------------------------------------
    1 H    1     1.00   0.04  0.19  0.47  0.28  0.00 -0.00  0.01  0.00  0.01  0.00
    2 H    1     1.00   0.04  0.19  0.47  0.28  0.00 -0.00  0.01  0.00  0.01  0.00

       Multipole analysis of the density wrt the origin
       ------------------------------------------------

     L   x y z        total         open         nuclear
     -   - - -        -----         ----         -------
     0   0 0 0     -0.000000      0.000000      2.000000

     1   1 0 0     -0.000000      0.000000      0.000000
     1   0 1 0      0.000000      0.000000      0.000000
     1   0 0 1      0.000000      0.000000      0.000000

     2   2 0 0     -2.092171      0.000000      0.000000
     2   1 1 0     -0.000000      0.000000      0.000000
     2   1 0 1     -0.000000      0.000000      0.000000
     2   0 2 0     -0.964699      0.000000      3.645000
     2   0 1 1      0.000000      0.000000      0.000000
     2   0 0 2     -2.092171      0.000000      0.000000


 Parallel integral file used      20 records with       0 large values

                   NWChem Extensible Many-Electron Theory Module
                   ---------------------------------------------

              ======================================================
                   This portion of the program was automatically
                  generated by a Tensor Contraction Engine (TCE).
                  The development of this portion of the program
                 and TCE was supported by US Department of Energy,
                Office of Science, Office of Basic Energy Science.
                      TCE is a product of Battelle and PNNL.
              Please cite: S.Hirata, J.Phys.Chem.A 107, 9887 (2003).
              ======================================================

                                        H2


            General Information
            -------------------
      Number of processors :     1
         Wavefunction type : Restricted Hartree-Fock
          No. of electrons :     2
           Alpha electrons :     1
            Beta electrons :     1
           No. of orbitals :   140
            Alpha orbitals :    70
             Beta orbitals :    70
        Alpha frozen cores :     0
         Beta frozen cores :     0
     Alpha frozen virtuals :     0
      Beta frozen virtuals :     0
         Spin multiplicity : singlet 
    Number of AO functions :    70
       Number of AO shells :    20
        Use of symmetry is : off
      Symmetry adaption is : off
         Schwarz screening : 0.10D-09

          Correlation Information
          -----------------------
          Calculation type : Coupled-cluster singles & doubles                           
   Perturbative correction : none                                                        
            Max iterations :      300
        Residual threshold : 0.10D-06
     T(0) DIIS level shift : 0.80D+00
     L(0) DIIS level shift : 0.00D+00
     T(1) DIIS level shift : 0.00D+00
     L(1) DIIS level shift : 0.00D+00
     T(R) DIIS level shift : 0.00D+00
     T(I) DIIS level shift : 0.00D+00
   CC-T/L Amplitude update :  5-th order DIIS
                I/O scheme : Global Array Library
        L-threshold :  0.10D-06
        EOM-threshold :  0.10D-06
 no EOMCCSD initial starts read in
 TCE RESTART OPTIONS
 READ_INT:   F
 WRITE_INT:  F
 READ_TA:    F
 WRITE_TA:   F
 READ_XA:    F
 WRITE_XA:   F
 READ_IN3:   F
 WRITE_IN3:  F
 SLICE:      F
 D4D5:       F
 quantumc:   F
 qrotation:  F
 pwtce:      F
 qducc:      T
 nacto:                         0
 nrotv:                         0
 nrot:                          0

            Memory Information
            ------------------
          Available GA space size is    1610607836 doubles
          Available MA space size is    1610610644 doubles

 Maximum block size        32 doubles

 tile_dim =     23

 Block   Spin    Irrep     Size     Offset   Alpha
 -------------------------------------------------
   1    alpha     a      1 doubles       0       1
   2    beta      a      1 doubles       1       1
   3    alpha     a     23 doubles       2       3
   4    alpha     a     23 doubles      25       4
   5    alpha     a     23 doubles      48       5
   6    beta      a     23 doubles      71       3
   7    beta      a     23 doubles      94       4
   8    beta      a     23 doubles     117       5

 Global array virtual files algorithm will be used

 Parallel file system coherency ......... OK

 Integral file          = ./H2.aoints.0
 Record size in doubles =  65536        No. of integs per rec  =  43688
 Max. records in memory =     99        Max. records in file   = 280249
 No. of bits per label  =      8        No. of bits per value  =     64


 #quartets = 2.216D+04 #integrals = 8.606D+05 #direct =  0.0% #cached =100.0%


 Fock matrix recomputed
 1-e file size   =             4900
 1-e file name   = ./H2.f1
 Cpu & wall time / sec            0.0            0.1
 4-electron integrals stored in orbital form

 v2    file size   =          6102085
 4-index algorithm nr.  13 is used
 imaxsize =       30
 imaxsize ichop =        0
 Cpu & wall time / sec            2.3            2.3
 T1-number-of-tasks                    3

 t1 file size   =               69
 t1 file name   = ./H2.t1
 t1 file handle =       -998
 T2-number-of-boxes                   15

 t2 file size   =             7935
 t2 file name   = ./H2.t2
 t2 file handle =       -996
CCSD iterations
 ---------------------------------------------------------
 Iter          Residuum       Correlation     Cpu    Wall 
 ---------------------------------------------------------
NEW TASK SCHEDULING
CCSD_T1_NTS --- OK
CCSD_T2_NTS --- OK
    1   0.6037405599411  -0.0860641828229     0.1     0.1
    2   0.4425487075587  -0.0424331402378     0.1     0.1
    3   0.3883576223186  -0.0653844400345     0.2     0.2
    4   0.3893966705343  -0.0496291937190     0.1     0.1
    5   0.4059839410090  -0.0637014409802     0.1     0.1
 MICROCYCLE DIIS UPDATE:                    5                    5
    6   0.0205088338099  -0.0574193701818     0.2     0.2
    7   0.0151393177870  -0.0584511367396     0.2     0.2
    8   0.0121993329753  -0.0590017441325     0.2     0.2
    9   0.0103705707867  -0.0595419512854     0.2     0.2
   10   0.0091672372643  -0.0599115565769     0.2     0.2
 MICROCYCLE DIIS UPDATE:                   10                    5
   11   0.0016817069796  -0.0614534868750     0.2     0.2
   12   0.0010888178667  -0.0613938342716     0.2     0.2
   13   0.0008857530906  -0.0614113873296     0.1     0.1
   14   0.0007951608560  -0.0613940734910     0.1     0.1
   15   0.0007161172894  -0.0614176025345     0.1     0.1
 MICROCYCLE DIIS UPDATE:                   15                    5
   16   0.0001776104894  -0.0614161383458     0.1     0.1
   17   0.0001397013728  -0.0614199437390     0.1     0.1
   18   0.0001260174836  -0.0614238788293     0.0     0.1
   19   0.0001250259561  -0.0614281548979     0.1     0.1
   20   0.0001323149562  -0.0614295204037     0.2     0.2
 MICROCYCLE DIIS UPDATE:                   20                    5
   21   0.0000181050520  -0.0614401567369     0.1     0.1
   22   0.0000113427329  -0.0614408182678     0.1     0.1
   23   0.0000080711055  -0.0614409216338     0.1     0.1
   24   0.0000065208689  -0.0614413631920     0.1     0.1
   25   0.0000050043442  -0.0614413959892     0.1     0.1
 MICROCYCLE DIIS UPDATE:                   25                    5
   26   0.0000024026171  -0.0614418463119     0.1     0.1
   27   0.0000018497808  -0.0614418757035     0.0     0.1
   28   0.0000016376571  -0.0614419435309     0.1     0.1
   29   0.0000015958293  -0.0614419614819     0.1     0.1
   30   0.0000016380686  -0.0614420170991     0.1     0.1
 MICROCYCLE DIIS UPDATE:                   30                    5
   31   0.0000001832139  -0.0614421248436     0.1     0.1
   32   0.0000001252741  -0.0614421297758     0.1     0.1
   33   0.0000000949743  -0.0614421345134     0.1     0.1
 -----------------------------------------------------------------
 Iterations converged
 CCSD correlation energy / hartree =        -0.061442134513357
 CCSD total energy / hartree       =        -1.077376840780821

 Singles contributions

 Doubles contributions
     2a   (alpha)     2a   (beta ) ---     1a   (alpha)     1a   (beta )       -0.2707888257
     3a   (alpha)     3a   (beta ) ---     1a   (alpha)     1a   (beta )       -0.0451992491
     4a   (alpha)     4a   (beta ) ---     1a   (alpha)     1a   (beta )       -0.0417082546
     5a   (alpha)     5a   (beta ) ---     1a   (alpha)     1a   (beta )       -0.0417082546
 Ground state specification:
 exp(T)|Ref>~(1+T)|Ref>
 ------- a(p)+/a(q) strings ----------

 singles norm

 doubles norm

 Reference string
  0.96523721107217353      :(1a)+ (1b)+ |0>

 Singles strings

 Doubles strings
 -0.26137545095439296      :(2a)+ (2b)+ (1b)  (1a)  (1a)+ (1b)+ |0>
 -------------------------------------
 enrep_tce =   0.37037037037037029     
  EHF(total)         =        -1.01593471
  Shift (HFtot-HFA)  =         0.00000000
 ALL OCCUPIED ORBITALS ARE ACTIVE IN DUCC --> NO SHIFT
 Number of active orbitals                   10
 Number of active alpha electrons                    1
 Number of active beta electrons                    1
  nos                     2
  nvs                   138
 noas                     1
 nobs                     1
 nvas                    69
 nvbs                    69
 nactv                     9
 DUCC MODEL =                     3
 NONHF =  T
 F-T1 correlation    =    7.2262270493767905E-006
 V-T1-T1 correlation =    8.0580294256842702E-009
 V-T2 correlation    =   -6.1449368798435940E-002
 Total correlation   =   -6.1442134513357137E-002
 F-T1(Ext) correlation         =   -9.1125213359534321E-007
 V-T1(Ext)-T1(Ext) correlation =    2.3027905601359818E-010
 V-T2(Ext) correlation         =   -1.5947388194135863E-003
 Total Ext correlation         =   -1.5956498412681257E-003
1-BODY TIME =    0.035 SECONDS.
  HHHH TIME =    0.014 SECONDS.
  PPPP TIME =    0.001 SECONDS.
  HHHP TIME =    0.034 SECONDS.
  PPPH TIME =    0.079 SECONDS.
  HPHP TIME =    0.012 SECONDS.
  HHPP TIME =    0.315 SECONDS.
 ONE-BODY UNITARY CHECK
 TWO-BODY UNITARY CHECK
 TWO-BODY ANTISYMMETRY CHECK
 TRANSFORMED ~FOCK~ MATRIX
    1    1        -0.4461225763
    1    3        -0.0053397124
    1    6         0.0331807105
    1   10         0.0034193254
    2    2         0.1430769226
    2    7         0.2236442454
    3    1        -0.0053397124
    3    3         0.6488813303
    3    6         0.1113668908
    3   10         0.5559689431
    4    4         0.6587560961
    5    5         0.6587560961
    6    1         0.0331807105
    6    3         0.1113668908
    6    6         1.1905607783
    6   10         0.1525232357
    7    2         0.2236442454
    7    7         1.4710887225
    7   10         0.0000000001
    8    8         1.4305816724
    9    9         1.4305816724
   10    1         0.0034193254
   10    3         0.5559689431
   10    6         0.1525232357
   10    7         0.0000000001
   10   10         2.0314532552
 begin_one_electron_integrals
    1    1        -0.9424062238
    1    3         0.1063619444
    1    6        -0.0061745084
    1   10         0.0045899367
    2    2        -0.6932717653
    2    7         0.0528728963
    3    1         0.1063619444
    3    3        -0.1584585961
    3    6         0.0502890326
    3   10         0.3483837046
    4    4        -0.1932932647
    5    5        -0.1932932647
    6    1        -0.0061745084
    6    3         0.0502890326
    6    6         0.2421766129
    6   10         0.1212098959
    7    2         0.0528728963
    7    7         0.5403421428
    7   10         0.0000000001
    8    8         0.4991292110
    9    9         0.4991292110
   10    1         0.0045899367
   10    3         0.3483837046
   10    6         0.1212098959
   10    7         0.0000000001
   10   10         1.1337505761
 end_one_electron_integrals
 begin_two_electron_integrals
    1    1    1    1        0.4962836475
    1    1    1    3       -0.1117016567
    1    1    1    6        0.0393552189
    1    1    1   10       -0.0011706113
    1    2    1    2        0.1709665006
    1    2    1    7        0.0469312409
    1    3    1    1       -0.1117016567
    1    3    1    3        0.0837780329
    1    3    1    6        0.0026491202
    1    3    1   10        0.0251926548
    1    4    1    4        0.0770621569
    1    5    1    5        0.0770621569
    1    6    1    1        0.0393552189
    1    6    1    3        0.0026491202
    1    6    1    6        0.0716256839
    1    6    1   10        0.0068656267
    1    7    1    2        0.0469312409
    1    7    1    7        0.0626408826
    1    8    1    8        0.0540606937
    1    9    1    9        0.0540606937
    1   10    1    1       -0.0011706113
    1   10    1    3        0.0251926548
    1   10    1    6        0.0068656267
    1   10    1   10        0.0342677453
    1    1    2    2        0.5045557122
    1    1    2    7        0.1089964332
    1    2    2    1        0.1727627365
    1    2    2    3       -0.0123362115
    1    2    2    6        0.1338459814
    1    2    2   10        0.0180793908
    1    3    2    2       -0.0947972883
    1    3    2    7       -0.0797563257
    1    4    2    8        0.0692334990
    1    4    2    9        0.0052700825
    1    5    2    8       -0.0052700825
    1    5    2    9        0.0692334990
    1    6    2    2        0.0833833844
    1    6    2    7        0.0229696842
    1    7    2    1        0.0472215172
    1    7    2    3       -0.0435644350
    1    7    2    6        0.0399717504
    1    7    2   10       -0.0009265621
    1    8    2    4        0.0414790588
    1    8    2    5       -0.0031574030
    1    9    2    4        0.0031574030
    1    9    2    5        0.0414790588
    1   10    2    2        0.0084396405
    1   10    2    7       -0.0155042451
    1    1    3    1       -0.1117016567
    1    1    3    3        0.4462555296
    1    1    3    6        0.0320207298
    1    1    3   10        0.1166123266
    1    2    3    2       -0.0123401889
    1    2    3    7       -0.1261973573
    1    3    3    1        0.0851711328
    1    3    3    3       -0.1123138411
    1    3    3    6       -0.0206930160
    1    3    3   10       -0.0861421487
    1    4    3    4       -0.0129267036
    1    5    3    5       -0.0129267036
    1    6    3    1        0.0029636013
    1    6    3    3        0.0093340286
    1    6    3    6       -0.0145691067
    1    6    3   10       -0.0112900665
    1    7    3    2       -0.0435992480
    1    7    3    7       -0.0412717419
    1    8    3    8       -0.0048519349
    1    9    3    9       -0.0048519349
    1   10    3    1        0.0256394148
    1   10    3    3       -0.0303745534
    1   10    3    6       -0.0120248540
    1   10    3   10       -0.0357788052
    1    1    4    4        0.4650589144
    1    2    4    8        0.1196253686
    1    2    4    9        0.0091059323
    1    3    4    4       -0.0975926449
    1    4    4    1        0.0780684680
    1    4    4    3       -0.0129864089
    1    4    4    6       -0.0408116383
    1    4    4   10        0.0297069674
    1    6    4    4       -0.0044941880
    1    7    4    8        0.0269163461
    1    7    4    9        0.0020488834
    1    8    4    2        0.0415167452
    1    8    4    7        0.0037183581
    1    9    4    2        0.0031602717
    1    9    4    7        0.0002830429
    1   10    4    4        0.0102481595
    1    1    5    5        0.4650589144
    1    2    5    8       -0.0091059323
    1    2    5    9        0.1196253686
    1    3    5    5       -0.0975926449
    1    5    5    1        0.0780684680
    1    5    5    3       -0.0129864089
    1    5    5    6       -0.0408116383
    1    5    5   10        0.0297069674
    1    6    5    5       -0.0044941880
    1    7    5    8       -0.0020488834
    1    7    5    9        0.0269163461
    1    8    5    2       -0.0031602717
    1    8    5    7       -0.0002830429
    1    9    5    2        0.0415167452
    1    9    5    7        0.0037183581
    1   10    5    5        0.0102481595
    1    1    6    1        0.0393552189
    1    1    6    3        0.0320207298
    1    1    6    6        0.5106080902
    1    1    6   10        0.0191610916
    1    2    6    2        0.1338588588
    1    2    6    7        0.0528960740
    1    3    6    1        0.0029636013
    1    3    6    3       -0.0206989233
    1    3    6    6       -0.1080886561
    1    3    6   10       -0.0174521997
    1    4    6    4       -0.0408179151
    1    5    6    5       -0.0408179151
    1    6    6    1        0.0728320150
    1    6    6    3       -0.0146100386
    1    6    6    6        0.0634289239
    1    6    6   10        0.0158466422
    1    7    6    2        0.0400254841
    1    7    6    7        0.0397022689
    1    8    6    8        0.0154444153
    1    9    6    9        0.0154444153
    1   10    6    1        0.0070088434
    1   10    6    3       -0.0120235882
    1   10    6    6        0.0094390976
    1   10    6   10       -0.0142069196
    1    1    7    2        0.1089964332
    1    1    7    7        0.4969969979
    1    2    7    1        0.0472215172
    1    2    7    3       -0.1261970956
    1    2    7    6        0.0528522300
    1    2    7   10       -0.0109316136
    1    3    7    2       -0.0797908769
    1    3    7    7       -0.1193375822
    1    4    7    8        0.0084649904
    1    4    7    9        0.0006443586
    1    5    7    8       -0.0006443586
    1    5    7    9        0.0084649904
    1    6    7    2        0.0229795737
    1    6    7    7        0.0619475049
    1    7    7    1        0.0632474161
    1    7    7    3       -0.0413268710
    1    7    7    6        0.0397006902
    1    7    7   10       -0.0334944296
    1    8    7    4        0.0036929432
    1    8    7    5       -0.0002811084
    1    9    7    4        0.0002811084
    1    9    7    5        0.0036929432
    1   10    7    2       -0.0155573295
    1   10    7    7       -0.0209066151
    1    1    8    8        0.4933257086
    1    2    8    4        0.1196188719
    1    2    8    5       -0.0091054378
    1    3    8    8       -0.0955689109
    1    4    8    2        0.0692646887
    1    4    8    7        0.0084875405
    1    5    8    2       -0.0052724566
    1    5    8    7       -0.0006460751
    1    6    8    8        0.0429888871
    1    7    8    4        0.0269134814
    1    7    8    5       -0.0020486653
    1    8    8    1        0.0551989558
    1    8    8    3       -0.0048901795
    1    8    8    6        0.0154587147
    1    8    8   10        0.0199117193
    1   10    8    8        0.0146656929
    1    1    9    9        0.4933257086
    1    2    9    4        0.0091054378
    1    2    9    5        0.1196188719
    1    3    9    9       -0.0955689109
    1    4    9    2        0.0052724566
    1    4    9    7        0.0006460751
    1    5    9    2        0.0692646887
    1    5    9    7        0.0084875405
    1    6    9    9        0.0429888871
    1    7    9    4        0.0020486653
    1    7    9    5        0.0269134814
    1    9    9    1        0.0551989558
    1    9    9    3       -0.0048901795
    1    9    9    6        0.0154587147
    1    9    9   10        0.0199117193
    1   10    9    9        0.0146656929
    1    1   10    1       -0.0011706113
    1    1   10    3        0.1166123266
    1    1   10    6        0.0191610916
    1    1   10   10        0.4661775210
    1    2   10    2        0.0180800287
    1    2   10    7       -0.0109166485
    1    3   10    1        0.0256394148
    1    3   10    3       -0.0861438825
    1    3   10    6       -0.0174559693
    1    3   10   10       -0.1289484359
    1    4   10    4        0.0297284710
    1    5   10    5        0.0297284710
    1    6   10    1        0.0070088434
    1    6   10    3       -0.0112925703
    1    6   10    6        0.0158580975
    1    6   10   10       -0.0001530371
    1    7   10    2       -0.0009646812
    1    7   10    7       -0.0334906064
    1    8   10    8        0.0199239447
    1    9   10    9        0.0199239447
    1   10   10    1        0.0346523628
    1   10   10    3       -0.0358116534
    1   10   10    6       -0.0141999475
    1   10   10   10       -0.0372075599
    2    1    1    2        0.1727627365
    2    1    1    7        0.0472215172
    2    2    1    1        0.5045557122
    2    2    1    3       -0.0947972883
    2    2    1    6        0.0833833844
    2    2    1   10        0.0084396405
    2    3    1    2       -0.0123362115
    2    3    1    7       -0.0435644350
    2    4    1    8        0.0414790588
    2    4    1    9        0.0031574030
    2    5    1    8       -0.0031574030
    2    5    1    9        0.0414790588
    2    6    1    2        0.1338459814
    2    6    1    7        0.0399717504
    2    7    1    1        0.1089964332
    2    7    1    3       -0.0797563257
    2    7    1    6        0.0229696842
    2    7    1   10       -0.0155042451
    2    8    1    4        0.0692334990
    2    8    1    5       -0.0052700825
    2    9    1    4        0.0052700825
    2    9    1    5        0.0692334990
    2   10    1    2        0.0180793908
    2   10    1    7       -0.0009265621
    2    1    2    1        0.1709665006
    2    1    2    3       -0.0123401889
    2    1    2    6        0.1338588588
    2    1    2   10        0.0180800287
    2    2    2    2        0.5397685188
[...]
    9    1    2    4        0.0031602717
    9    1    2    5        0.0415167452
    9    2    2    9        0.0792026794
    9    3    2    4       -0.0001912725
    9    3    2    5       -0.0025127627
    9    4    2    1        0.0091059323
    9    4    2    3       -0.0004836270
    9    4    2    6        0.0057682814
    9    4    2   10        0.0012952515
    9    5    2    1        0.1196253686
    9    5    2    3       -0.0063534464
    9    5    2    6        0.0757783787
    9    5    2   10        0.0170158237
    9    6    2    4        0.0007861043
    9    6    2    5        0.0103271158
    9    7    2    9        0.0093515460
    9    9    2    2        0.5054875922
    9    9    2    7        0.0949879922
    9   10    2    4        0.0011529455
    9   10    2    5        0.0151463377
    9    1    3    9       -0.0048901795
    9    2    3    4       -0.0005546644
    9    2    3    5       -0.0072866704
    9    3    3    9        0.0125886364
    9    4    3    2       -0.0004836270
    9    4    3    7       -0.0066461464
    9    5    3    2       -0.0063534464
    9    5    3    7       -0.0873109622
    9    6    3    9       -0.0008136553
    9    7    3    4       -0.0012871129
    9    7    3    5       -0.0169089063
    9    9    3    1       -0.0955689109
    9    9    3    3        0.4287853430
    9    9    3    6        0.0265316651
    9    9    3   10        0.0971100494
    9   10    3    9        0.0006728993
    9    1    4    2        0.0031574030
    9    1    4    7        0.0002811084
    9    2    4    1        0.0052700825
    9    2    4    3       -0.0005546644
    9    2    4    6       -0.0014123347
    9    2    4   10        0.0019751686
    9    3    4    2       -0.0001912725
    9    3    4    7       -0.0009170409
    9    4    4    8        0.0074661803
    9    4    4    9        0.0137163578
    9    5    4    8        0.0849357843
    9    5    4    9        0.0074661803
    9    6    4    2        0.0007861043
    9    6    4    7        0.0001712673
    9    7    4    1        0.0006443586
    9    7    4    3       -0.0012871129
    9    7    4    6       -0.0000569735
    9    7    4   10       -0.0001156295
    9    8    4    4        0.0028725396
    9    8    4    5        0.0187590630
    9    9    4    4        0.4464238959
    9    9    4    5        0.0028725396
    9   10    4    2        0.0011529455
    9   10    4    7       -0.0001013650
    9    1    5    2        0.0414790588
    9    1    5    7        0.0036929432
    9    2    5    1        0.0692334990
    9    2    5    3       -0.0072866704
    9    2    5    6       -0.0185539550
    9    2    5   10        0.0259479496
    9    3    5    2       -0.0025127627
    9    3    5    7       -0.0120472400
    9    4    5    8        0.0125797003
    9    4    5    9        0.0074661803
    9    5    5    8       -0.0074661803
    9    5    5    9        0.1112318424
    9    6    5    2        0.0103271158
    9    6    5    7        0.0022499517
    9    7    5    1        0.0084649904
    9    7    5    3       -0.0169089063
    9    7    5    6       -0.0007484653
    9    7    5   10       -0.0015190344
    9    8    5    4        0.0187590630
    9    8    5    5       -0.0028725396
    9    9    5    4        0.0028725396
    9    9    5    5        0.4839420220
    9   10    5    2        0.0151463377
    9   10    5    7       -0.0013316396
    9    1    6    9        0.0154587147
    9    2    6    4       -0.0014123347
    9    2    6    5       -0.0185539550
    9    3    6    9       -0.0008136553
    9    4    6    2        0.0057682814
    9    4    6    7        0.0022813477
    9    5    6    2        0.0757783787
    9    5    6    7        0.0299702493
    9    6    6    9        0.0173717567
    9    7    6    4       -0.0000569735
    9    7    6    5       -0.0007484653
    9    9    6    1        0.0429888871
    9    9    6    3        0.0265316651
    9    9    6    6        0.4981852545
    9    9    6   10        0.0143045654
    9   10    6    9        0.0043460767
    9    1    7    4        0.0002830429
    9    1    7    5        0.0037183581
    9    2    7    9        0.0093515460
    9    3    7    4       -0.0009170409
    9    3    7    5       -0.0120472400
    9    4    7    1        0.0020488834
    9    4    7    3       -0.0066461464
    9    4    7    6        0.0022813477
    9    4    7   10       -0.0006077028
    9    5    7    1        0.0269163461
    9    5    7    3       -0.0873109622
    9    5    7    6        0.0299702493
    9    5    7   10       -0.0079834409
    9    6    7    4        0.0001712673
    9    6    7    5        0.0022499517
    9    7    7    9        0.0217141110
    9    9    7    2        0.0949879922
    9    9    7    7        0.4829462845
    9   10    7    4       -0.0001013650
    9   10    7    5       -0.0013316396
    9    4    8    4        0.0074661803
    9    4    8    5        0.0125797003
    9    5    8    4        0.0849357843
    9    5    8    5       -0.0074661803
    9    8    8    9        0.0231319561
    9    9    8    8        0.4820667242
    9    1    9    1        0.0540606937
    9    1    9    3       -0.0048519349
    9    1    9    6        0.0154444153
    9    1    9   10        0.0199239447
    9    2    9    2        0.0792026794
    9    2    9    7        0.0093515460
    9    3    9    1       -0.0048519349
    9    3    9    3        0.0125886364
    9    3    9    6       -0.0008136553
    9    3    9   10        0.0006728993
    9    4    9    4        0.0137163578
    9    4    9    5        0.0074661803
    9    5    9    4        0.0074661803
    9    5    9    5        0.1112318424
    9    6    9    1        0.0154444153
    9    6    9    3       -0.0008136553
    9    6    9    6        0.0173717567
    9    6    9   10        0.0043460767
    9    7    9    2        0.0093515460
    9    7    9    7        0.0217141110
    9    8    9    8        0.0231319561
    9    9    9    9        0.5283306365
    9   10    9    1        0.0199239447
    9   10    9    3        0.0006728993
    9   10    9    6        0.0043460767
    9   10    9   10        0.0130583888
    9    1   10    9        0.0199117193
    9    2   10    4        0.0019751686
    9    2   10    5        0.0259479496
    9    3   10    9        0.0006728993
    9    4   10    2        0.0012952515
    9    4   10    7       -0.0006077028
    9    5   10    2        0.0170158237
    9    5   10    7       -0.0079834409
    9    6   10    9        0.0043460767
    9    7   10    4       -0.0001156295
    9    7   10    5       -0.0015190344
    9    9   10    1        0.0146656929
    9    9   10    3        0.0971100494
    9    9   10    6        0.0143045654
    9    9   10   10        0.4452854117
    9   10   10    9        0.0130583888
   10    1    1    1       -0.0011706113
   10    1    1    3        0.0256394148
   10    1    1    6        0.0070088434
   10    1    1   10        0.0346523628
   10    2    1    2        0.0180800287
   10    2    1    7       -0.0009646812
   10    3    1    1        0.1166123266
   10    3    1    3       -0.0861438825
   10    3    1    6       -0.0112925703
   10    3    1   10       -0.0358116534
   10    4    1    4        0.0297284710
   10    5    1    5        0.0297284710
   10    6    1    1        0.0191610916
   10    6    1    3       -0.0174559693
   10    6    1    6        0.0158580975
   10    6    1   10       -0.0141999475
   10    7    1    2       -0.0109166485
   10    7    1    7       -0.0334906064
   10    8    1    8        0.0199239447
   10    9    1    9        0.0199239447
   10   10    1    1        0.4661775210
   10   10    1    3       -0.1289484359
   10   10    1    6       -0.0001530371
   10   10    1   10       -0.0372075599
   10    1    2    2        0.0084396405
   10    1    2    7       -0.0155573295
   10    2    2    1        0.0180793908
   10    2    2    3        0.0019268353
   10    2    2    6        0.0167931627
   10    2    2   10        0.0155915516
   10    3    2    2        0.0942748533
   10    3    2    7        0.0707847690
   10    4    2    8        0.0259479496
   10    4    2    9        0.0019751686
   10    5    2    8       -0.0019751686
   10    5    2    9        0.0259479496
   10    6    2    2        0.0251715808
   10    6    2    7        0.0154306392
   10    7    2    1       -0.0109316136
   10    7    2    3        0.0262677988
   10    7    2    6       -0.0026542054
   10    7    2   10        0.0058642778
   10    8    2    4        0.0151463377
   10    8    2    5       -0.0011529455
   10    9    2    4        0.0011529455
   10    9    2    5        0.0151463377
   10   10    2    2        0.4446462179
   10   10    2    7        0.1033715053
   10    1    3    1        0.0251926548
   10    1    3    3       -0.0303745534
   10    1    3    6       -0.0120235882
   10    1    3   10       -0.0358116534
   10    2    3    2        0.0019268353
   10    2    3    7        0.0023549950
   10    3    3    1       -0.0861421487
   10    3    3    3        0.1282738487
   10    3    3    6        0.0277675778
   10    3    3   10        0.1056788219
   10    4    3    4        0.0020416522
   10    5    3    5        0.0020416522
   10    6    3    1       -0.0174521997
   10    6    3    3        0.0233368271
   10    6    3    6        0.0073153078
   10    6    3   10        0.0227430630
   10    7    3    2        0.0262677988
   10    7    3    7        0.0179935640
   10    8    3    8        0.0006728993
   10    9    3    9        0.0006728993
   10   10    3    1       -0.1289484359
   10   10    3    3        0.4581447759
   10   10    3    6        0.0490555008
   10   10    3   10        0.1539171266
   10    1    4    4        0.0102481595
   10    2    4    8        0.0170158237
   10    2    4    9        0.0012952515
   10    3    4    4        0.1029248159
   10    4    4    1        0.0297069674
   10    4    4    3        0.0020416522
   10    4    4    6       -0.0179316300
   10    4    4   10        0.0227456678
   10    6    4    4        0.0013964797
   10    7    4    8       -0.0079834409
   10    7    4    9       -0.0006077028
   10    8    4    2        0.0151463377
   10    8    4    7       -0.0013316396
   10    9    4    2        0.0011529455
   10    9    4    7       -0.0001013650
   10   10    4    4        0.4425028479
   10    1    5    5        0.0102481595
   10    2    5    8       -0.0012952515
   10    2    5    9        0.0170158237
   10    3    5    5        0.1029248159
   10    5    5    1        0.0297069674
   10    5    5    3        0.0020416522
   10    5    5    6       -0.0179316300
   10    5    5   10        0.0227456678
   10    6    5    5        0.0013964797
   10    7    5    8        0.0006077028
   10    7    5    9       -0.0079834409
   10    8    5    2       -0.0011529455
   10    8    5    7        0.0001013650
   10    9    5    2        0.0151463377
   10    9    5    7       -0.0013316396
   10   10    5    5        0.4425028479
   10    1    6    1        0.0068656267
   10    1    6    3       -0.0120248540
   10    1    6    6        0.0094390976
   10    1    6   10       -0.0141999475
   10    2    6    2        0.0167931627
   10    2    6    7        0.0059523111
   10    3    6    1       -0.0112900665
   10    3    6    3        0.0277675778
   10    3    6    6        0.1081354618
   10    3    6   10        0.0227430630
   10    4    6    4       -0.0179316300
   10    5    6    5       -0.0179316300
   10    6    6    1        0.0158466422
   10    6    6    3        0.0073153078
   10    6    6    6        0.0217493709
   10    6    6   10        0.0188799011
   10    7    6    2       -0.0026542054
   10    7    6    7       -0.0119820409
   10    8    6    8        0.0043460767
   10    9    6    9        0.0043460767
   10   10    6    1       -0.0001530371
   10   10    6    3        0.0490555008
   10   10    6    6        0.4590809640
   10   10    6   10        0.0264504560
   10    1    7    2       -0.0155042451
   10    1    7    7       -0.0209066151
   10    2    7    1       -0.0009265621
   10    2    7    3        0.0023549950
   10    2    7    6        0.0059523111
   10    2    7   10        0.0058642778
   10    3    7    2        0.0707847690
   10    3    7    7        0.1222000958
   10    4    7    8       -0.0015190344
   10    4    7    9       -0.0001156295
   10    5    7    8        0.0001156295
   10    5    7    9       -0.0015190344
   10    6    7    2        0.0154306392
   10    6    7    7        0.0238531133
   10    7    7    1       -0.0334944296
   10    7    7    3        0.0179935640
   10    7    7    6       -0.0119820409
   10    7    7   10        0.0331146614
   10    8    7    4       -0.0013316396
   10    8    7    5        0.0001013650
   10    9    7    4       -0.0001013650
   10    9    7    5       -0.0013316396
   10   10    7    2        0.1033715053
   10   10    7    7        0.4701125573
   10    1    8    8        0.0146656929
   10    2    8    4        0.0170158237
   10    2    8    5       -0.0012952515
   10    3    8    8        0.0971100494
   10    4    8    2        0.0259479496
   10    4    8    7       -0.0015190344
   10    5    8    2       -0.0019751686
   10    5    8    7        0.0001156295
   10    6    8    8        0.0143045654
   10    7    8    4       -0.0079834409
   10    7    8    5        0.0006077028
   10    8    8    1        0.0199117193
   10    8    8    3        0.0006728993
   10    8    8    6        0.0043460767
   10    8    8   10        0.0130583888
   10   10    8    8        0.4452854117
   10    1    9    9        0.0146656929
   10    2    9    4        0.0012952515
   10    2    9    5        0.0170158237
   10    3    9    9        0.0971100494
   10    4    9    2        0.0019751686
   10    4    9    7       -0.0001156295
   10    5    9    2        0.0259479496
   10    5    9    7       -0.0015190344
   10    6    9    9        0.0143045654
   10    7    9    4       -0.0006077028
   10    7    9    5       -0.0079834409
   10    9    9    1        0.0199117193
   10    9    9    3        0.0006728993
   10    9    9    6        0.0043460767
   10    9    9   10        0.0130583888
   10   10    9    9        0.4452854117
   10    1   10    1        0.0342677453
   10    1   10    3       -0.0357788052
   10    1   10    6       -0.0142069196
   10    1   10   10       -0.0372075599
   10    2   10    2        0.0155915516
   10    2   10    7        0.0058642778
   10    3   10    1       -0.0357788052
   10    3   10    3        0.1056788219
   10    3   10    6        0.0227430630
   10    3   10   10        0.1539171266
   10    4   10    4        0.0227456678
   10    5   10    5        0.0227456678
   10    6   10    1       -0.0142069196
   10    6   10    3        0.0227430630
   10    6   10    6        0.0188799011
   10    6   10   10        0.0264504560
   10    7   10    2        0.0058642778
   10    7   10    7        0.0331146614
   10    8   10    8        0.0130583888
   10    9   10    9        0.0130583888
   10   10   10    1       -0.0372075599
   10   10   10    3        0.1539171266
   10   10   10    6        0.0264504560
   10   10   10   10        0.4986529873
 end_two_electron_integrals

 Parallel integral file used      20 records with       0 large values


 Task  times  cpu:       35.4s     wall:       37.7s


                                NWChem Input Module
                                -------------------


 Summary of allocated global arrays
-----------------------------------
  No active global arrays


MA_summarize_allocated_blocks: starting scan ...
MA_summarize_allocated_blocks: scan completed: 0 heap blocks, 0 stack blocks
MA usage statistics:

	allocation statistics:
					      heap	     stack
					      ----	     -----
	current number of blocks	         0	         0
	maximum number of blocks	        18	        42
	current total bytes		         0	         0
	maximum total bytes		  51983048	9994007128
	maximum total K-bytes		     51984	   9994008
	maximum total M-bytes		        52	      9995


                                     CITATION
                                     --------
                Please cite the following reference when publishing
                           results obtained with NWChem:

          E. Apra, E. J. Bylaska, W. A. de Jong, N. Govind, K. Kowalski,
       T. P. Straatsma, M. Valiev, H. J. J. van Dam, Y. Alexeev, J. Anchell,
       V. Anisimov, F. W. Aquino, R. Atta-Fynn, J. Autschbach, N. P. Bauman,
     J. C. Becca, D. E. Bernholdt, K. Bhaskaran-Nair, S. Bogatko, P. Borowski,
         J. Boschen, J. Brabec, A. Bruner, E. Cauet, Y. Chen, G. N. Chuev,
      C. J. Cramer, J. Daily, M. J. O. Deegan, T. H. Dunning Jr., M. Dupuis,
   K. G. Dyall, G. I. Fann, S. A. Fischer, A. Fonari, H. Fruchtl, L. Gagliardi,
      J. Garza, N. Gawande, S. Ghosh, K. Glaesemann, A. W. Gotz, J. Hammond,
       V. Helms, E. D. Hermes, K. Hirao, S. Hirata, M. Jacquelin, L. Jensen,
   B. G. Johnson, H. Jonsson, R. A. Kendall, M. Klemm, R. Kobayashi, V. Konkov,
      S. Krishnamoorthy, M. Krishnan, Z. Lin, R. D. Lins, R. J. Littlefield,
      A. J. Logsdail, K. Lopata, W. Ma, A. V. Marenich, J. Martin del Campo,
   D. Mejia-Rodriguez, J. E. Moore, J. M. Mullin, T. Nakajima, D. R. Nascimento,
    J. A. Nichols, P. J. Nichols, J. Nieplocha, A. Otero-de-la-Roza, B. Palmer,
    A. Panyala, T. Pirojsirikul, B. Peng, R. Peverati, J. Pittner, L. Pollack,
   R. M. Richard, P. Sadayappan, G. C. Schatz, W. A. Shelton, D. W. Silverstein,
   D. M. A. Smith, T. A. Soares, D. Song, M. Swart, H. L. Taylor, G. S. Thomas,
            V. Tipparaju, D. G. Truhlar, K. Tsemekhman, T. Van Voorhis,
      A. Vazquez-Mayagoitia, P. Verma, O. Villa, A. Vishnu, K. D. Vogiatzis,
        D. Wang, J. H. Weare, M. J. Williamson, T. L. Windus, K. Wolinski,
        A. T. Wong, Q. Wu, C. Yang, Q. Yu, M. Zacharias, Z. Zhang, Y. Zhao,
                                and R. J. Harrison
                        "NWChem: Past, present, and future
                         J. Chem. Phys. 152, 184102 (2020)
                               doi:10.1063/5.0004997

                                      AUTHORS
                                      -------
  E. Apra, E. J. Bylaska, N. Govind, K. Kowalski, M. Valiev, D. Mejia-Rodriguez,
       A. Kunitsa, N. P. Bauman, A. Panyala, W. A. de Jong, T. P. Straatsma,
        H. J. J. van Dam, D. Wang, T. L. Windus, J. Hammond, J. Autschbach,
    K. Bhaskaran-Nair, J. Brabec, K. Lopata, S. A. Fischer, S. Krishnamoorthy,
     M. Jacquelin, W. Ma, M. Klemm, O. Villa, Y. Chen, V. Anisimov, F. Aquino,
    S. Hirata, M. T. Hackler, Eric Hermes, L. Jensen, J. E. Moore, J. C. Becca,
      V. Konjkov, T. Risthaus, M. Malagoli, A. Marenich, A. Otero-de-la-Roza,
        J. Mullin, P. Nichols, R. Peverati, J. Pittner, Y. Zhao, P.-D. Fan,
        A. Fonari, M. J. Williamson, R. J. Harrison, J. R. Rehr, M. Dupuis,
     D. Silverstein, D. M. A. Smith, J. Nieplocha, V. Tipparaju, M. Krishnan,
     B. E. Van Kuiken, A. Vazquez-Mayagoitia, M. Swart, Q. Wu, T. Van Voorhis,
     A. A. Auer, M. Nooijen, L. D. Crosby, E. Brown, G. Cisneros, G. I. Fann,
   H. Fruchtl, J. Garza, K. Hirao, R. A. Kendall, J. A. Nichols, K. Tsemekhman,
    K. Wolinski, J. Anchell, D. E. Bernholdt, P. Borowski, T. Clark, D. Clerc,
   H. Dachsel, M. J. O. Deegan, K. Dyall, D. Elwood, E. Glendening, M. Gutowski,
   A. C. Hess, J. Jaffe, B. G. Johnson, J. Ju, R. Kobayashi, R. Kutteh, Z. Lin,
   R. Littlefield, X. Long, B. Meng, T. Nakajima, S. Niu, L. Pollack, M. Rosing,
   K. Glaesemann, G. Sandrone, M. Stave, H. Taylor, G. Thomas, J. H. van Lenthe,
                               A. T. Wong, Z. Zhang.

 Total times  cpu:       39.6s     wall:       42.3s
