 argument  1 = input.nw
  NWChem w/ OpenMP: maximum threads =    1



============================== echo of input deck ==============================
 echo
 start H2
 title "H2"

 memory total 24 gb

 geometry units bohr
 symmetry c1
        H  0.00000000  0.00000000  0.00000000
        H  0.00000000  6.20  0.00000000
 end

 basis
   * library cc-pVQZ
 end

 mcscf
   active  10
   actelec 2
   multiplicity 1
   maxiter 40
   vectors input H2.mos
   vectors output H2.mos
 end

 task mcscf

 scf
   vectors input H2.mos
   vectors output H2-6.20.mos
   noscf
 end

 tce
   2eorb
   2emet 13
   ccsd
   maxiter 300
   lshift 0.8
 end

# set tce:print_integrals T
# set tce:qorb 10
# set tce:qela 1
# set tce:qelb 1

 set tce:qducc T
 set tce:nactv 9
 set tce:nonhf T
 set tce:ducc_model 3

 set tce:printtol 0.02

 task tce
================================================================================


                                         
                                         


             Northwest Computational Chemistry Package (NWChem) 7.0.1
             --------------------------------------------------------


                    Environmental Molecular Sciences Laboratory
                       Pacific Northwest National Laboratory
                                Richland, WA 99352

                              Copyright (c) 1994-2020
                       Pacific Northwest National Laboratory
                            Battelle Memorial Institute

             NWChem is an open-source computational chemistry package
                        distributed under the terms of the
                      Educational Community License (ECL) 2.0
             A copy of the license is included with this distribution
                              in the LICENSE.TXT file

                                  ACKNOWLEDGMENT
                                  --------------

            This software and its documentation were developed at the
            EMSL at Pacific Northwest National Laboratory, a multiprogram
            national laboratory, operated for the U.S. Department of Energy
            by Battelle under Contract Number DE-AC05-76RL01830. Support
            for this work was provided by the Department of Energy Office
            of Biological and Environmental Research, Office of Basic
            Energy Sciences, and the Office of Advanced Scientific Computing.


           Job information
           ---------------

    hostname        = WE46210
    program         = /home/baum612/code/nwchem/bin/LINUX64/nwchem
    date            = Fri Nov 10 22:59:18 2023

    compiled        = Mon_Nov_06_10:06:57_2023
    source          = /home/baum612/code/nwchem
    nwchem branch   = 7.0.0
    nwchem revision = nwchem_on_git-4191-g39d87d64de
    ga revision     = 5.8.1
    use scalapack   = F
    input           = input.nw
    prefix          = H2.
    data base       = ./H2.db
    status          = startup
    nproc           =        1
    time left       =     -1s



           Memory information
           ------------------

    heap     =  805306362 doubles =   6144.0 Mbytes
    stack    =  805306367 doubles =   6144.0 Mbytes
    global   = 1610612736 doubles =  12288.0 Mbytes (distinct from heap & stack)
    total    = 3221225465 doubles =  24576.0 Mbytes
    verify   = yes
    hardfail = no 


           Directory information
           ---------------------

  0 permanent = .
  0 scratch   = .




                                NWChem Input Module
                                -------------------


                                        H2
                                        --
 Turning off AUTOSYM since
 SYMMETRY directive was detected!


          ------
          auto-z
          ------
     1 autoz failed with cvr_scaling = 1.2 changing to 1.3
     2 autoz failed with cvr_scaling = 1.3 changing to 1.4
     3 autoz failed with cvr_scaling = 1.4 changing to 1.5
     4 autoz failed with cvr_scaling = 1.5 changing to 1.6
     5 autoz failed with cvr_scaling = 1.6 changing to 1.7

 AUTOZ failed to generate good internal coordinates.
 Cartesian coordinates will be used in optimizations.



                             Geometry "geometry" -> ""
                             -------------------------

 Output coordinates in a.u. (scale by  1.000000000 to convert to a.u.)

  No.       Tag          Charge          X              Y              Z
 ---- ---------------- ---------- -------------- -------------- --------------
    1 H                    1.0000     0.00000000    -3.10000000     0.00000000
    2 H                    1.0000     0.00000000     3.10000000     0.00000000

      Atomic Mass 
      ----------- 

      H                  1.007825


 Effective nuclear repulsion energy (a.u.)       0.1612903226

            Nuclear Dipole moment (a.u.) 
            ----------------------------
        X                 Y               Z
 ---------------- ---------------- ----------------
     0.0000000000     0.0000000000     0.0000000000


            XYZ format geometry
            -------------------
     2
 geometry
 H                     0.00000000    -1.64044947     0.00000000
 H                     0.00000000     1.64044947     0.00000000



 Summary of "ao basis" -> "" (cartesian)
 ------------------------------------------------------------------------------
       Tag                 Description            Shells   Functions and Types
 ---------------- ------------------------------  ------  ---------------------
 *                          cc-pVQZ                   on all atoms 


                      Basis "ao basis" -> "ao basis" (cartesian)
                      -----
  H (Hydrogen)
  ------------
            Exponent  Coefficients 
       -------------- ---------------------------------------------------------
  1 S  8.26400000E+01  0.002006
  1 S  1.24100000E+01  0.015343
  1 S  2.82400000E+00  0.075579

  2 S  7.97700000E-01  1.000000

  3 S  2.58100000E-01  1.000000

  4 S  8.98900000E-02  1.000000

  5 P  2.29200000E+00  1.000000

  6 P  8.38000000E-01  1.000000

  7 P  2.92000000E-01  1.000000

  8 D  2.06200000E+00  1.000000

  9 D  6.62000000E-01  1.000000

 10 F  1.39700000E+00  1.000000



 Summary of "ao basis" -> "ao basis" (cartesian)
 ------------------------------------------------------------------------------
       Tag                 Description            Shells   Functions and Types
 ---------------- ------------------------------  ------  ---------------------
 H                          cc-pVQZ                 10       35   4s3p2d1f



                            NWChem Direct MCSCF Module
                            --------------------------


                                        H2


     -----------------------------------
       Basis functions:             70
       Inactive shells:              0
       Active shells:               10
       Active electrons:             2
       Symmetry:                    a       
       Multiplicity:                 1
       Orbital rotations:          600
     -----------------------------------

     -----------------------------------
       E2 extrapolation:             F
       Conjugacy:                    T
       Micro CI relax:               T
       Canonical orbitals:           T
       Maximum iterations:          40
       Converge threshold:    1.00E-04
       Conjugacy resets:            20
       Initial levelshift:        0.10
     -----------------------------------

 Loading old vectors from job with title :

H2


   input molecular orbitals = ./H2.mos
  output molecular orbtials = ./H2.mos

       No. of determinants:           100


  Starting Orbital Energies
    -0.272528    -0.227335    -0.000065    -0.000019    -0.000019    -0.000000
    -0.000000    -0.000000    -0.000000    -0.000000     0.427795     0.644567
     0.824622     1.143954     1.143954     1.761316     1.821428     1.821428
     1.867931     2.042802     2.042802     2.059873     2.059873     2.090118
     2.090118     2.090204     2.090204     2.137538     2.874433     2.972207
     4.382365     4.383187     4.383187     4.433975     4.433975     4.541528
     5.943450     6.055459     6.055459     6.060475     6.069121     6.069121
     6.070202     6.070202     6.070202     6.070202     6.070237     6.070237
     6.070238     6.070238     8.125830     8.134764     8.134764     8.141079
     8.141155     8.141155     8.141984     8.141984     8.142022     8.142022
     9.634930     9.669960     9.693325     9.713449     9.713449     9.717747
     9.717747     9.781449    22.210241    22.671273

  Orbital Symmetry Irreps
a    a    a    a    a    a    a    a    a    a    a    a    a    a    a   
a    a    a    a    a    a    a    a    a    a    a    a    a    a    a   
a    a    a    a    a    a    a    a    a    a    a    a    a    a    a   
a    a    a    a    a    a    a    a    a    a    a    a    a    a    a   
a    a    a    a    a    a    a    a    a    a   

 Integral file          = ./H2.aoints.0
 Record size in doubles =  65536        No. of integs per rec  =  43688
 Max. records in memory =     99        Max. records in file   = 280188
 No. of bits per label  =      8        No. of bits per value  =     64


 #quartets = 1.714D+04 #integrals = 4.039D+05 #direct =  0.0% #cached =100.0%




          %%%%% MacroIteration   1 %%%%%


          Number of sigma calls:       14
                       o<<<<< (aa):             0.00
                       o<<<<< (bb):             0.00
                       o<<<<< (ab):             0.01
                       o<<<<< (total)           0.01
                       o<<<<< (aa) ff           0.00
                       o<<<<< (aa) gop          0.00
                       o<<<<< (aa) dot          0.00
                       o<<<<< (ab) str          0.00
                       o<<<<< (ab) gath         0.00
                       o<<<<< (ab) dotab        0.00
                       o<<<<< (ab) scat         0.00
                       o<<<<< (ab) sync         0.00
                       o<<<<< Density           0.00
                       o<<<<< Density one       0.00
                       o<<<<< Density two       0.00
                       o<<<<< Density ab        0.00
                       o<<<<< Spin adapt        0.00
                       o<<<<< Symm adapt        0.00

                       o<<<<< (ab) max sync:      0.00

           >>>| Valence CI:             -1.161700270738
           >>>| MCSCF energy:           -1.000409948158
           >>>| Gradient norm:          0.379375948D-03
     --- Warning:  480 Hessian diagonals < 0.05 ---

                              ----- Line search ------

        step       energy         lsg     num-lsg   num-lsh   lsrat    time
      ------- ---------------- --------- --------- --------- ------- --------
       0.0000      -1.00040995 -3.08D-08  0.00D+00  0.00D+00 0.0D+00      0.4

          Number of sigma calls:        9
                       o<<<<< (aa):             0.00
                       o<<<<< (bb):             0.00
                       o<<<<< (ab):             0.00
                       o<<<<< (total)           0.00
                       o<<<<< (aa) ff           0.00
                       o<<<<< (aa) gop          0.00
                       o<<<<< (aa) dot          0.00
                       o<<<<< (ab) str          0.00
                       o<<<<< (ab) gath         0.00
                       o<<<<< (ab) dotab        0.00
                       o<<<<< (ab) scat         0.00
                       o<<<<< (ab) sync         0.00
                       o<<<<< Density           0.00
                       o<<<<< Density one       0.00
                       o<<<<< Density two       0.00
                       o<<<<< Density ab        0.00
                       o<<<<< Spin adapt        0.00
                       o<<<<< Symm adapt        0.00

                       o<<<<< (ab) max sync:      0.00
       1.0000      -1.00040997 -8.22D-09 -8.24D-09  2.25D-08 2.7D-01      0.4

          Number of sigma calls:        8
                       o<<<<< (aa):             0.00
                       o<<<<< (bb):             0.00
                       o<<<<< (ab):             0.01
                       o<<<<< (total)           0.01
                       o<<<<< (aa) ff           0.00
                       o<<<<< (aa) gop          0.00
                       o<<<<< (aa) dot          0.00
                       o<<<<< (ab) str          0.00
                       o<<<<< (ab) gath         0.00
                       o<<<<< (ab) dotab        0.00
                       o<<<<< (ab) scat         0.00
                       o<<<<< (ab) sync         0.00
                       o<<<<< Density           0.00
                       o<<<<< Density one       0.00
                       o<<<<< Density two       0.00
                       o<<<<< Density ab        0.00
                       o<<<<< Spin adapt        0.00
                       o<<<<< Symm adapt        0.00

                       o<<<<< (ab) max sync:      0.00
       1.3649      -1.00040997  1.08D-11  1.08D-11  2.26D-08 3.5D-04      0.4
     --- Orbitals canonicalized ---



          %%%%% MacroIteration   2 %%%%%


          Number of sigma calls:       14
                       o<<<<< (aa):             0.00
                       o<<<<< (bb):             0.00
                       o<<<<< (ab):             0.00
                       o<<<<< (total)           0.00
                       o<<<<< (aa) ff           0.00
                       o<<<<< (aa) gop          0.00
                       o<<<<< (aa) dot          0.00
                       o<<<<< (ab) str          0.00
                       o<<<<< (ab) gath         0.00
                       o<<<<< (ab) dotab        0.00
                       o<<<<< (ab) scat         0.00
                       o<<<<< (ab) sync         0.00
                       o<<<<< Density           0.00
                       o<<<<< Density one       0.00
                       o<<<<< Density two       0.00
                       o<<<<< Density ab        0.00
                       o<<<<< Spin adapt        0.00
                       o<<<<< Symm adapt        0.00

                       o<<<<< (ab) max sync:      0.00

           >>>| Valence CI:             -1.161700291738
           >>>| MCSCF energy:           -1.000409969158
           >>>| Gradient norm:          0.439536769D-04




     ==============================
            MCSCF Converged
     ==============================



          Canonical Eigenvalues

              1      
    1   -0.2717
    2   -0.2282
    3   -0.0001
    4   -0.0000
    5   -0.0000
    6   -0.0000
    7   -0.0000
    8   -0.0000
    9   -0.0000
   10   -0.0000
   11    0.4269
   12    0.6422
   13    0.8259
   14    1.1430
   15    1.1430
   16    1.7620
   17    1.8222
   18    1.8222
   19    1.8701
   20    2.0430
   21    2.0430
   22    2.0592
   23    2.0592
   24    2.0901
   25    2.0901
   26    2.0902
   27    2.0902
   28    2.1316
   29    2.8767
   30    2.9705
   31    4.3797
   32    4.3824
   33    4.3824
   34    4.4347
   35    4.4347
   36    4.5394
   37    5.9435
   38    6.0555
   39    6.0555
   40    6.0605
   41    6.0692
   42    6.0692
   43    6.0702
   44    6.0702
   45    6.0702
   46    6.0702
   47    6.0703
   48    6.0703
   49    6.0703
   50    6.0703
   51    8.1261
   52    8.1347
   53    8.1347
   54    8.1401
   55    8.1413
   56    8.1413
   57    8.1420
   58    8.1420
   59    8.1421
   60    8.1421
   61    9.6362
   62    9.6688
   63    9.6918
   64    9.7138
   65    9.7138
   66    9.7174
   67    9.7174
   68    9.7809
   69   22.2176
   70   22.6629


          Converged CI vector

   Index           Coefficient          Config. Occupation
         1          0.74255480          1  1
        12         -0.66971917          2  2

          Number of sigma calls:        1
                       o<<<<< (aa):             0.00
                       o<<<<< (bb):             0.00
                       o<<<<< (ab):             0.00
                       o<<<<< (total)           0.00
                       o<<<<< (aa) ff           0.00
                       o<<<<< (aa) gop          0.00
                       o<<<<< (aa) dot          0.00
                       o<<<<< (ab) str          0.00
                       o<<<<< (ab) gath         0.00
                       o<<<<< (ab) dotab        0.00
                       o<<<<< (ab) scat         0.00
                       o<<<<< (ab) sync         0.00
                       o<<<<< Density           0.00
                       o<<<<< Density one       0.00
                       o<<<<< Density two       0.00
                       o<<<<< Density ab        0.00
                       o<<<<< Spin adapt        0.00
                       o<<<<< Symm adapt        0.00

                       o<<<<< (ab) max sync:      0.00



          Natural orbital occupation numbers

              1      
    1    1.1028
    2    0.8970
    3    0.0001
    4    0.0000
    5    0.0000
    6    0.0000
    7    0.0000
    8    0.0000
    9    0.0000
   10    0.0000


          Number of sigma calls:       14
                       o<<<<< (aa):             0.00
                       o<<<<< (bb):             0.00
                       o<<<<< (ab):             0.00
                       o<<<<< (total)           0.00
                       o<<<<< (aa) ff           0.00
                       o<<<<< (aa) gop          0.00
                       o<<<<< (aa) dot          0.00
                       o<<<<< (ab) str          0.00
                       o<<<<< (ab) gath         0.00
                       o<<<<< (ab) dotab        0.00
                       o<<<<< (ab) scat         0.00
                       o<<<<< (ab) sync         0.00
                       o<<<<< Density           0.00
                       o<<<<< Density one       0.00
                       o<<<<< Density two       0.00
                       o<<<<< Density ab        0.00
                       o<<<<< Spin adapt        0.00
                       o<<<<< Symm adapt        0.00

                       o<<<<< (ab) max sync:      0.00


       Final MCSCF results 
       ------------------- 

       Total MCSCF energy =     -1.000409969158
            Gradient norm =      4.4D-05

    CPU time for solution =      0.7s
   Wall time for solution =      1.5s



                        Analysis of MCSCF natural orbitals
                        ----------------------------------

 Vector    1  Occ=1.102776D+00  E=-2.716540D-01  Symmetry=a
              MO Center=  5.9D-15,  4.4D-12, -4.1D-15, r^2= 3.5D+00
   Bfn.  Coefficient  Atom+Function         Bfn.  Coefficient  Atom+Function  
  ----- ------------  ---------------      ----- ------------  ---------------
     3      0.339407  1 H  s                 38      0.339407  2 H  s          
     4      0.209812  1 H  s                 39      0.209812  2 H  s          
     2      0.176127  1 H  s                 37      0.176127  2 H  s          

 Vector    2  Occ=8.970475D-01  E=-2.282157D-01  Symmetry=a
              MO Center=  2.6D-14, -4.1D-12, -1.8D-14, r^2= 3.6D+00
   Bfn.  Coefficient  Atom+Function         Bfn.  Coefficient  Atom+Function  
  ----- ------------  ---------------      ----- ------------  ---------------
     3      0.361132  1 H  s                 38     -0.361132  2 H  s          
     4      0.209754  1 H  s                 39     -0.209754  2 H  s          
     2      0.184136  1 H  s                 37     -0.184136  2 H  s          

 Vector    3  Occ=1.139551D-04  E=-6.053917D-05  Symmetry=a
              MO Center=  9.0D-14,  3.3D-09, -5.7D-14, r^2= 3.8D+00
   Bfn.  Coefficient  Atom+Function         Bfn.  Coefficient  Atom+Function  
  ----- ------------  ---------------      ----- ------------  ---------------
     9      1.682635  1 H  py                44     -1.682635  2 H  py         
    12     -0.977184  1 H  py                47      0.977184  2 H  py         
    32     -0.710688  1 H  fyyy              67      0.710688  2 H  fyyy       
    27     -0.692307  1 H  fxxy              34     -0.692307  1 H  fyzz       
    62      0.692307  2 H  fxxy              69      0.692307  2 H  fyzz       

 Vector    4  Occ=3.063120D-05  E=-1.752012D-05  Symmetry=a
              MO Center=  1.2D-14, -1.9D-11, -1.3D-13, r^2= 3.7D+00
   Bfn.  Coefficient  Atom+Function         Bfn.  Coefficient  Atom+Function  
  ----- ------------  ---------------      ----- ------------  ---------------
    10      1.550063  1 H  pz                45      1.550063  2 H  pz         
    13     -0.947380  1 H  pz                48     -0.947380  2 H  pz         
    33     -0.684360  1 H  fyyz              68     -0.684360  2 H  fyyz       
    28     -0.652929  1 H  fxxz              35     -0.652929  1 H  fzzz       
    63     -0.652929  2 H  fxxz              70     -0.652929  2 H  fzzz       

 Vector    5  Occ=3.063120D-05  E=-1.752012D-05  Symmetry=a
              MO Center=  1.4D-12, -1.8D-11,  1.5D-13, r^2= 3.7D+00
   Bfn.  Coefficient  Atom+Function         Bfn.  Coefficient  Atom+Function  
  ----- ------------  ---------------      ----- ------------  ---------------
     8      1.550063  1 H  px                43      1.550063  2 H  px         
    11     -0.947380  1 H  px                46     -0.947380  2 H  px         
    29     -0.684360  1 H  fxyy              64     -0.684360  2 H  fxyy       
    26     -0.652929  1 H  fxxx              31     -0.652929  1 H  fxzz       
    61     -0.652929  2 H  fxxx              66     -0.652929  2 H  fxzz       

 Vector    6  Occ=6.538077D-07  E=-4.383923D-07  Symmetry=a
              MO Center= -1.6D-12, -1.6D-09,  2.5D-14, r^2= 3.5D+00
   Bfn.  Coefficient  Atom+Function         Bfn.  Coefficient  Atom+Function  
  ----- ------------  ---------------      ----- ------------  ---------------
     9      1.124383  1 H  py                44     -1.124383  2 H  py         
     2      0.603863  1 H  s                 37      0.603863  2 H  s          
     4     -0.519758  1 H  s                 39     -0.519758  2 H  s          
    27     -0.461794  1 H  fxxy              34     -0.461794  1 H  fyzz       
    62      0.461794  2 H  fxxy              69      0.461794  2 H  fyzz       

 Vector    7  Occ=2.566842D-07  E=-2.414984D-07  Symmetry=a
              MO Center= -1.3D-12,  4.0D-09,  7.9D-13, r^2= 2.8D+00
   Bfn.  Coefficient  Atom+Function         Bfn.  Coefficient  Atom+Function  
  ----- ------------  ---------------      ----- ------------  ---------------
     9      1.444687  1 H  py                44      1.444687  2 H  py         
     3     -0.939679  1 H  s                 38      0.939679  2 H  s          
     2      0.852395  1 H  s                 37     -0.852395  2 H  s          
    27     -0.527695  1 H  fxxy              34     -0.527695  1 H  fyzz       
    62     -0.527695  2 H  fxxy              69     -0.527695  2 H  fyzz       

 Vector    8  Occ=1.187868D-07  E=-1.445036D-07  Symmetry=a
              MO Center=  6.4D-14,  2.9D-09,  2.0D-15, r^2= 3.5D+00
   Bfn.  Coefficient  Atom+Function         Bfn.  Coefficient  Atom+Function  
  ----- ------------  ---------------      ----- ------------  ---------------
     9      3.056417  1 H  py                44     -3.056417  2 H  py         
    27     -1.345758  1 H  fxxy              34     -1.345758  1 H  fyzz       
    62      1.345758  2 H  fxxy              69      1.345758  2 H  fyzz       
    32     -1.042772  1 H  fyyy              67      1.042772  2 H  fyyy       
     6     -0.754912  1 H  py                41      0.754912  2 H  py         

 Vector    9  Occ=1.825661D-08  E=-1.659125D-08  Symmetry=a
              MO Center=  1.1D-12,  6.6D-12, -7.7D-14, r^2= 2.6D+00
   Bfn.  Coefficient  Atom+Function         Bfn.  Coefficient  Atom+Function  
  ----- ------------  ---------------      ----- ------------  ---------------
     8      1.433450  1 H  px                43     -1.433450  2 H  px         
    26     -0.469370  1 H  fxxx              31     -0.469370  1 H  fxzz       
    61      0.469370  2 H  fxxx              66      0.469370  2 H  fxzz       
    21      0.383891  1 H  dxy               56      0.383891  2 H  dxy        
    29     -0.345426  1 H  fxyy              64      0.345426  2 H  fxyy       

 Vector   10  Occ=1.825661D-08  E=-1.659125D-08  Symmetry=a
              MO Center= -3.9D-14,  7.1D-12, -5.7D-13, r^2= 2.6D+00
   Bfn.  Coefficient  Atom+Function         Bfn.  Coefficient  Atom+Function  
  ----- ------------  ---------------      ----- ------------  ---------------
    10      1.433450  1 H  pz                45     -1.433450  2 H  pz         
    28     -0.469370  1 H  fxxz              35     -0.469370  1 H  fzzz       
    63      0.469370  2 H  fxxz              70      0.469370  2 H  fzzz       
    24      0.383891  1 H  dyz               59      0.383891  2 H  dyz        
    33     -0.345426  1 H  fyyz              68      0.345426  2 H  fyyz       

 Vector   11  Occ=0.000000D+00  E= 4.269449D-01  Symmetry=a
              MO Center=  2.4D-12,  3.2D-09, -1.5D-12, r^2= 8.6D+00
   Bfn.  Coefficient  Atom+Function         Bfn.  Coefficient  Atom+Function  
  ----- ------------  ---------------      ----- ------------  ---------------
     3      2.808372  1 H  s                 38     -2.808372  2 H  s          
     4     -1.732358  1 H  s                 39      1.732358  2 H  s          
     9     -0.949808  1 H  py                44     -0.949808  2 H  py         
     2     -0.697918  1 H  s                 37      0.697918  2 H  s          
    12      0.421970  1 H  py                47      0.421970  2 H  py         

 Vector   12  Occ=0.000000D+00  E= 6.422037D-01  Symmetry=a
              MO Center= -1.3D-12,  1.5D-09,  8.2D-13, r^2= 5.3D+00
   Bfn.  Coefficient  Atom+Function         Bfn.  Coefficient  Atom+Function  
  ----- ------------  ---------------      ----- ------------  ---------------
     3      1.633529  1 H  s                 38     -1.633529  2 H  s          
     9      1.348287  1 H  py                44      1.348287  2 H  py         
     4     -1.016850  1 H  s                 39      1.016850  2 H  s          
    12     -0.970992  1 H  py                47     -0.970992  2 H  py         
    27     -0.544065  1 H  fxxy              32     -0.545564  1 H  fyyy       

 Vector   13  Occ=0.000000D+00  E= 8.259029D-01  Symmetry=a
              MO Center=  2.0D-14, -1.7D-08, -1.1D-14, r^2= 6.9D+00
   Bfn.  Coefficient  Atom+Function         Bfn.  Coefficient  Atom+Function  
  ----- ------------  ---------------      ----- ------------  ---------------
     3      3.957353  1 H  s                 38      3.957353  2 H  s          
     4     -1.590333  1 H  s                 39     -1.590333  2 H  s          
     2     -1.255371  1 H  s                 37     -1.255371  2 H  s          
    23     -0.644041  1 H  dyy               58     -0.644041  2 H  dyy        
    20     -0.619634  1 H  dxx               25     -0.619634  1 H  dzz        

 Vector   14  Occ=0.000000D+00  E= 1.143029D+00  Symmetry=a
              MO Center=  5.2D-13, -2.3D-11, -6.1D-14, r^2= 5.0D+00
   Bfn.  Coefficient  Atom+Function         Bfn.  Coefficient  Atom+Function  
  ----- ------------  ---------------      ----- ------------  ---------------
     8      4.903726  1 H  px                43     -4.903726  2 H  px         
    26     -1.904621  1 H  fxxx              31     -1.904621  1 H  fxzz       
    61      1.904621  2 H  fxxx              66      1.904621  2 H  fxzz       
    29     -1.886599  1 H  fxyy              64      1.886599  2 H  fxyy       
    11     -1.479805  1 H  px                46      1.479805  2 H  px         

 Vector   15  Occ=0.000000D+00  E= 1.143029D+00  Symmetry=a
              MO Center= -2.5D-14, -2.2D-11, -2.1D-13, r^2= 5.0D+00
   Bfn.  Coefficient  Atom+Function         Bfn.  Coefficient  Atom+Function  
  ----- ------------  ---------------      ----- ------------  ---------------
    10      4.903726  1 H  pz                45     -4.903726  2 H  pz         
    28     -1.904621  1 H  fxxz              35     -1.904621  1 H  fzzz       
    63      1.904621  2 H  fxxz              70      1.904621  2 H  fzzz       
    33     -1.886599  1 H  fyyz              68      1.886599  2 H  fyyz       
    13     -1.479805  1 H  pz                48      1.479805  2 H  pz         

 Vector   16  Occ=0.000000D+00  E= 1.762014D+00  Symmetry=a
              MO Center= -1.0D-12,  6.0D-09,  6.1D-13, r^2= 4.8D+00
   Bfn.  Coefficient  Atom+Function         Bfn.  Coefficient  Atom+Function  
  ----- ------------  ---------------      ----- ------------  ---------------
     9      4.619279  1 H  py                44      4.619279  2 H  py         
     3      2.192200  1 H  s                 38     -2.192200  2 H  s          
    27     -1.778982  1 H  fxxy              34     -1.778982  1 H  fyzz       
    62     -1.778982  2 H  fxxy              69     -1.778982  2 H  fyzz       
    32     -1.769126  1 H  fyyy              67     -1.769126  2 H  fyyy       

 Vector   17  Occ=0.000000D+00  E= 1.822218D+00  Symmetry=a
              MO Center= -7.3D-14,  5.3D-11,  2.5D-15, r^2= 4.0D+00
   Bfn.  Coefficient  Atom+Function         Bfn.  Coefficient  Atom+Function  
  ----- ------------  ---------------      ----- ------------  ---------------
     8      6.232890  1 H  px                43      6.232890  2 H  px         
    26     -2.434919  1 H  fxxx              29     -2.434228  1 H  fxyy       
    31     -2.434919  1 H  fxzz              61     -2.434919  2 H  fxxx       
    64     -2.434228  2 H  fxyy              66     -2.434919  2 H  fxzz       
     5     -1.648521  1 H  px                40     -1.648521  2 H  px         

 Vector   18  Occ=0.000000D+00  E= 1.822218D+00  Symmetry=a
              MO Center= -8.6D-16,  5.2D-11,  4.8D-14, r^2= 4.0D+00
   Bfn.  Coefficient  Atom+Function         Bfn.  Coefficient  Atom+Function  
  ----- ------------  ---------------      ----- ------------  ---------------
    10      6.232890  1 H  pz                45      6.232890  2 H  pz         
    28     -2.434919  1 H  fxxz              33     -2.434228  1 H  fyyz       
    35     -2.434919  1 H  fzzz              63     -2.434919  2 H  fxxz       
    68     -2.434228  2 H  fyyz              70     -2.434919  2 H  fzzz       
     7     -1.648521  1 H  pz                42     -1.648521  2 H  pz         

 Vector   19  Occ=0.000000D+00  E= 1.870062D+00  Symmetry=a
              MO Center=  7.6D-15, -2.6D-09, -5.7D-15, r^2= 4.5D+00
   Bfn.  Coefficient  Atom+Function         Bfn.  Coefficient  Atom+Function  
  ----- ------------  ---------------      ----- ------------  ---------------
     9      4.676686  1 H  py                44     -4.676686  2 H  py         
    32     -1.846344  1 H  fyyy              67      1.846344  2 H  fyyy       
    27     -1.833578  1 H  fxxy              34     -1.833578  1 H  fyzz       
    62      1.833578  2 H  fxxy              69      1.833578  2 H  fyzz       
     6     -1.242469  1 H  py                41      1.242469  2 H  py         

 Vector   20  Occ=0.000000D+00  E= 2.043000D+00  Symmetry=a
              MO Center= -1.4D-14, -8.1D-10, -4.0D-15, r^2= 4.0D+00
   Bfn.  Coefficient  Atom+Function         Bfn.  Coefficient  Atom+Function  
  ----- ------------  ---------------      ----- ------------  ---------------
    24      1.217350  1 H  dyz               59     -1.217350  2 H  dyz        
    21     -0.439739  1 H  dxy               56      0.439739  2 H  dxy        
    10     -0.437443  1 H  pz                45     -0.437443  2 H  pz         
    33      0.173723  1 H  fyyz              68      0.173723  2 H  fyyz       
    28      0.171923  1 H  fxxz              35      0.171923  1 H  fzzz       


 Wrote Lagrangian and 1- and 2-particle density matrices to ./H2.mcpdm


     Multipole analysis of the density
     ---------------------------------

     L   x y z        total        nuclear
     -   - - -        -----        -------
     0   0 0 0     -0.000000      2.000000

     1   1 0 0     -0.000000      0.000000
     1   0 1 0     -0.000000      0.000000
     1   0 0 1      0.000000      0.000000

     2   2 0 0     -2.005941      0.000000
     2   1 1 0      0.000000      0.000000
     2   1 0 1     -0.000000      0.000000
     2   0 2 0     -1.944383     19.220000
     2   0 1 1     -0.000000      0.000000
     2   0 0 2     -2.005941      0.000000


  Mulliken analysis of the total density
  --------------------------------------

    Atom       Charge   Shell Charges
 -----------   ------   -------------------------------------------------------
    1 H    1     1.00   0.05  0.22  0.48  0.25  0.00 -0.00  0.00  0.00  0.00  0.00
    2 H    1     1.00   0.05  0.22  0.48  0.25  0.00 -0.00  0.00  0.00  0.00  0.00

    Mulliken analysis of the active space density
    ---------------------------------------------

    Atom       Charge   Shell Charges
 -----------   ------   -------------------------------------------------------
    1 H    1     1.00   0.05  0.22  0.48  0.25  0.00 -0.00  0.00  0.00  0.00  0.00
    2 H    1     1.00   0.05  0.22  0.48  0.25  0.00 -0.00  0.00  0.00  0.00  0.00

 Parallel integral file used      10 records with       0 large values


 Task  times  cpu:        0.7s     wall:        1.5s


                                NWChem Input Module
                                -------------------


                                 NWChem SCF Module
                                 -----------------


                                        H2



  ao basis        = "ao basis"
  functions       =    70
  atoms           =     2
  closed shells   =     1
  open shells     =     0
  charge          =   0.00
  wavefunction    = RHF 
  input vectors   = ./H2.mos
  output vectors  = ./H2-6.20.mos
  use symmetry    = F
  symmetry adapt  = F


 Summary of "ao basis" -> "ao basis" (cartesian)
 ------------------------------------------------------------------------------
       Tag                 Description            Shells   Functions and Types
 ---------------- ------------------------------  ------  ---------------------
 H                          cc-pVQZ                 10       35   4s3p2d1f



 Forming initial guess at       1.5s


 Loading old vectors from job with title :

H2


 Starting SCF solution at       1.5s



 ----------------------------------------------
         Quadratically convergent ROHF

 Convergence threshold     :          1.000E-04
 Maximum no. of iterations :           30
 Final Fock-matrix accuracy:          1.000E-07
 ----------------------------------------------


 Integral file          = ./H2.aoints.0
 Record size in doubles =  65536        No. of integs per rec  =  43688
 Max. records in memory =     99        Max. records in file   = 280222
 No. of bits per label  =      8        No. of bits per value  =     64


 #quartets = 1.556D+04 #integrals = 3.422D+05 #direct =  0.0% #cached =100.0%



       Final RHF  results 
       ------------------ 

         Total SCF energy =     -0.790173951102
      One-electron energy =     -1.338053903410
      Two-electron energy =      0.386589629728
 Nuclear repulsion energy =      0.161290322581

        Time for solution =      0.0s


             Final eigenvalues
             -----------------

              1      
    1   -0.2717
    2   -0.2282
    3   -0.0001
    4   -0.0000
    5   -0.0000
    6   -0.0000
    7   -0.0000
    8   -0.0000
    9   -0.0000
   10   -0.0000
   11    0.4269

                       ROHF Final Molecular Orbital Analysis
                       -------------------------------------

 Vector    1  Occ=2.000000D+00  E=-2.716540D-01
              MO Center=  5.9D-15,  4.4D-12, -4.1D-15, r^2= 3.5D+00
   Bfn.  Coefficient  Atom+Function         Bfn.  Coefficient  Atom+Function  
  ----- ------------  ---------------      ----- ------------  ---------------
     3      0.339407  1 H  s                 38      0.339407  2 H  s          
     4      0.209812  1 H  s                 39      0.209812  2 H  s          
     2      0.176127  1 H  s                 37      0.176127  2 H  s          

 Vector    2  Occ=0.000000D+00  E=-2.282157D-01
              MO Center=  2.6D-14, -4.1D-12, -1.8D-14, r^2= 3.6D+00
   Bfn.  Coefficient  Atom+Function         Bfn.  Coefficient  Atom+Function  
  ----- ------------  ---------------      ----- ------------  ---------------
     3      0.361132  1 H  s                 38     -0.361132  2 H  s          
     4      0.209754  1 H  s                 39     -0.209754  2 H  s          
     2      0.184136  1 H  s                 37     -0.184136  2 H  s          

 Vector    3  Occ=0.000000D+00  E=-6.053917D-05
              MO Center=  9.0D-14,  3.3D-09, -5.7D-14, r^2= 3.8D+00
   Bfn.  Coefficient  Atom+Function         Bfn.  Coefficient  Atom+Function  
  ----- ------------  ---------------      ----- ------------  ---------------
     9      1.682635  1 H  py                44     -1.682635  2 H  py         
    12     -0.977184  1 H  py                47      0.977184  2 H  py         
    32     -0.710688  1 H  fyyy              67      0.710688  2 H  fyyy       
    27     -0.692307  1 H  fxxy              34     -0.692307  1 H  fyzz       
    62      0.692307  2 H  fxxy              69      0.692307  2 H  fyzz       

 Vector    4  Occ=0.000000D+00  E=-1.752012D-05
              MO Center=  1.2D-14, -1.9D-11, -1.3D-13, r^2= 3.7D+00
   Bfn.  Coefficient  Atom+Function         Bfn.  Coefficient  Atom+Function  
  ----- ------------  ---------------      ----- ------------  ---------------
    10      1.550063  1 H  pz                45      1.550063  2 H  pz         
    13     -0.947380  1 H  pz                48     -0.947380  2 H  pz         
    33     -0.684360  1 H  fyyz              68     -0.684360  2 H  fyyz       
    28     -0.652929  1 H  fxxz              35     -0.652929  1 H  fzzz       
    63     -0.652929  2 H  fxxz              70     -0.652929  2 H  fzzz       

 Vector    5  Occ=0.000000D+00  E=-1.752012D-05
              MO Center=  1.4D-12, -1.8D-11,  1.5D-13, r^2= 3.7D+00
   Bfn.  Coefficient  Atom+Function         Bfn.  Coefficient  Atom+Function  
  ----- ------------  ---------------      ----- ------------  ---------------
     8      1.550063  1 H  px                43      1.550063  2 H  px         
    11     -0.947380  1 H  px                46     -0.947380  2 H  px         
    29     -0.684360  1 H  fxyy              64     -0.684360  2 H  fxyy       
    26     -0.652929  1 H  fxxx              31     -0.652929  1 H  fxzz       
    61     -0.652929  2 H  fxxx              66     -0.652929  2 H  fxzz       

 Vector    6  Occ=0.000000D+00  E=-4.383923D-07
              MO Center= -1.6D-12, -1.6D-09,  2.5D-14, r^2= 3.5D+00
   Bfn.  Coefficient  Atom+Function         Bfn.  Coefficient  Atom+Function  
  ----- ------------  ---------------      ----- ------------  ---------------
     9      1.124383  1 H  py                44     -1.124383  2 H  py         
     2      0.603863  1 H  s                 37      0.603863  2 H  s          
     4     -0.519758  1 H  s                 39     -0.519758  2 H  s          
    27     -0.461794  1 H  fxxy              34     -0.461794  1 H  fyzz       
    62      0.461794  2 H  fxxy              69      0.461794  2 H  fyzz       

 Vector    7  Occ=0.000000D+00  E=-2.414984D-07
              MO Center= -1.3D-12,  4.0D-09,  7.9D-13, r^2= 2.8D+00
   Bfn.  Coefficient  Atom+Function         Bfn.  Coefficient  Atom+Function  
  ----- ------------  ---------------      ----- ------------  ---------------
     9      1.444687  1 H  py                44      1.444687  2 H  py         
     3     -0.939679  1 H  s                 38      0.939679  2 H  s          
     2      0.852395  1 H  s                 37     -0.852395  2 H  s          
    27     -0.527695  1 H  fxxy              34     -0.527695  1 H  fyzz       
    62     -0.527695  2 H  fxxy              69     -0.527695  2 H  fyzz       

 Vector    8  Occ=0.000000D+00  E=-1.445036D-07
              MO Center=  6.4D-14,  2.9D-09,  2.0D-15, r^2= 3.5D+00
   Bfn.  Coefficient  Atom+Function         Bfn.  Coefficient  Atom+Function  
  ----- ------------  ---------------      ----- ------------  ---------------
     9      3.056417  1 H  py                44     -3.056417  2 H  py         
    27     -1.345758  1 H  fxxy              34     -1.345758  1 H  fyzz       
    62      1.345758  2 H  fxxy              69      1.345758  2 H  fyzz       
    32     -1.042772  1 H  fyyy              67      1.042772  2 H  fyyy       
     6     -0.754912  1 H  py                41      0.754912  2 H  py         

 Vector    9  Occ=0.000000D+00  E=-1.659125D-08
              MO Center=  1.1D-12,  6.6D-12, -7.7D-14, r^2= 2.6D+00
   Bfn.  Coefficient  Atom+Function         Bfn.  Coefficient  Atom+Function  
  ----- ------------  ---------------      ----- ------------  ---------------
     8      1.433450  1 H  px                43     -1.433450  2 H  px         
    26     -0.469370  1 H  fxxx              31     -0.469370  1 H  fxzz       
    61      0.469370  2 H  fxxx              66      0.469370  2 H  fxzz       
    21      0.383891  1 H  dxy               56      0.383891  2 H  dxy        
    29     -0.345426  1 H  fxyy              64      0.345426  2 H  fxyy       

 Vector   10  Occ=0.000000D+00  E=-1.659125D-08
              MO Center= -3.9D-14,  7.1D-12, -5.7D-13, r^2= 2.6D+00
   Bfn.  Coefficient  Atom+Function         Bfn.  Coefficient  Atom+Function  
  ----- ------------  ---------------      ----- ------------  ---------------
    10      1.433450  1 H  pz                45     -1.433450  2 H  pz         
    28     -0.469370  1 H  fxxz              35     -0.469370  1 H  fzzz       
    63      0.469370  2 H  fxxz              70      0.469370  2 H  fzzz       
    24      0.383891  1 H  dyz               59      0.383891  2 H  dyz        
    33     -0.345426  1 H  fyyz              68      0.345426  2 H  fyyz       

 Vector   11  Occ=0.000000D+00  E= 4.269449D-01
              MO Center=  2.4D-12,  3.2D-09, -1.5D-12, r^2= 8.6D+00
   Bfn.  Coefficient  Atom+Function         Bfn.  Coefficient  Atom+Function  
  ----- ------------  ---------------      ----- ------------  ---------------
     3      2.808372  1 H  s                 38     -2.808372  2 H  s          
     4     -1.732358  1 H  s                 39      1.732358  2 H  s          
     9     -0.949808  1 H  py                44     -0.949808  2 H  py         
     2     -0.697918  1 H  s                 37      0.697918  2 H  s          
    12      0.421970  1 H  py                47      0.421970  2 H  py         

 Vector   12  Occ=0.000000D+00  E= 6.422037D-01
              MO Center= -1.3D-12,  1.5D-09,  8.2D-13, r^2= 5.3D+00
   Bfn.  Coefficient  Atom+Function         Bfn.  Coefficient  Atom+Function  
  ----- ------------  ---------------      ----- ------------  ---------------
     3      1.633529  1 H  s                 38     -1.633529  2 H  s          
     9      1.348287  1 H  py                44      1.348287  2 H  py         
     4     -1.016850  1 H  s                 39      1.016850  2 H  s          
    12     -0.970992  1 H  py                47     -0.970992  2 H  py         
    27     -0.544065  1 H  fxxy              32     -0.545564  1 H  fyyy       


 center of mass
 --------------
 x =   0.00000000 y =   0.00000000 z =   0.00000000

 moments of inertia (a.u.)
 ------------------
          19.370396500000           0.000000000000           0.000000000000
           0.000000000000           0.000000000000           0.000000000000
           0.000000000000           0.000000000000          19.370396500000

  Mulliken analysis of the total density
  --------------------------------------

    Atom       Charge   Shell Charges
 -----------   ------   -------------------------------------------------------
    1 H    1     1.00   0.04  0.21  0.47  0.27  0.00  0.00 -0.00  0.00  0.00  0.00
    2 H    1     1.00   0.04  0.21  0.47  0.27  0.00  0.00 -0.00  0.00  0.00  0.00

       Multipole analysis of the density wrt the origin
       ------------------------------------------------

     L   x y z        total         open         nuclear
     -   - - -        -----         ----         -------
     0   0 0 0     -0.000000      0.000000      2.000000

     1   1 0 0     -0.000000      0.000000      0.000000
     1   0 1 0     -0.000000      0.000000      0.000000
     1   0 0 1      0.000000      0.000000      0.000000

     2   2 0 0     -2.082081      0.000000      0.000000
     2   1 1 0     -0.000000      0.000000      0.000000
     2   1 0 1      0.000000      0.000000      0.000000
     2   0 2 0     -1.468715      0.000000     19.220000
     2   0 1 1      0.000000      0.000000      0.000000
     2   0 0 2     -2.082081      0.000000      0.000000


 Parallel integral file used       8 records with       0 large values

                   NWChem Extensible Many-Electron Theory Module
                   ---------------------------------------------

              ======================================================
                   This portion of the program was automatically
                  generated by a Tensor Contraction Engine (TCE).
                  The development of this portion of the program
                 and TCE was supported by US Department of Energy,
                Office of Science, Office of Basic Energy Science.
                      TCE is a product of Battelle and PNNL.
              Please cite: S.Hirata, J.Phys.Chem.A 107, 9887 (2003).
              ======================================================

                                        H2


            General Information
            -------------------
      Number of processors :     1
         Wavefunction type : Restricted Hartree-Fock
          No. of electrons :     2
           Alpha electrons :     1
            Beta electrons :     1
           No. of orbitals :   140
            Alpha orbitals :    70
             Beta orbitals :    70
        Alpha frozen cores :     0
         Beta frozen cores :     0
     Alpha frozen virtuals :     0
      Beta frozen virtuals :     0
         Spin multiplicity : singlet 
    Number of AO functions :    70
       Number of AO shells :    20
        Use of symmetry is : off
      Symmetry adaption is : off
         Schwarz screening : 0.10D-09

          Correlation Information
          -----------------------
          Calculation type : Coupled-cluster singles & doubles                           
   Perturbative correction : none                                                        
            Max iterations :      300
        Residual threshold : 0.10D-06
     T(0) DIIS level shift : 0.80D+00
     L(0) DIIS level shift : 0.00D+00
     T(1) DIIS level shift : 0.00D+00
     L(1) DIIS level shift : 0.00D+00
     T(R) DIIS level shift : 0.00D+00
     T(I) DIIS level shift : 0.00D+00
   CC-T/L Amplitude update :  5-th order DIIS
                I/O scheme : Global Array Library
        L-threshold :  0.10D-06
        EOM-threshold :  0.10D-06
 no EOMCCSD initial starts read in
 TCE RESTART OPTIONS
 READ_INT:   F
 WRITE_INT:  F
 READ_TA:    F
 WRITE_TA:   F
 READ_XA:    F
 WRITE_XA:   F
 READ_IN3:   F
 WRITE_IN3:  F
 SLICE:      F
 D4D5:       F
 quantumc:   F
 qrotation:  F
 pwtce:      F
 qducc:      T
 nacto:                         0
 nrotv:                         0
 nrot:                          0

            Memory Information
            ------------------
          Available GA space size is    1610607836 doubles
          Available MA space size is    1610610644 doubles

 Maximum block size        32 doubles

 tile_dim =     23

 Block   Spin    Irrep     Size     Offset   Alpha
 -------------------------------------------------
   1    alpha     a      1 doubles       0       1
   2    beta      a      1 doubles       1       1
   3    alpha     a     23 doubles       2       3
   4    alpha     a     23 doubles      25       4
   5    alpha     a     23 doubles      48       5
   6    beta      a     23 doubles      71       3
   7    beta      a     23 doubles      94       4
   8    beta      a     23 doubles     117       5

 Global array virtual files algorithm will be used

 Parallel file system coherency ......... OK

 Integral file          = ./H2.aoints.0
 Record size in doubles =  65536        No. of integs per rec  =  43688
 Max. records in memory =     99        Max. records in file   = 280222
 No. of bits per label  =      8        No. of bits per value  =     64


 #quartets = 1.722D+04 #integrals = 4.198D+05 #direct =  0.0% #cached =100.0%


 Fock matrix recomputed
 1-e file size   =             4900
 1-e file name   = ./H2.f1
 Cpu & wall time / sec            0.0            0.0
 4-electron integrals stored in orbital form

 v2    file size   =          6102085
 4-index algorithm nr.  13 is used
 imaxsize =       30
 imaxsize ichop =        0
 Cpu & wall time / sec            2.0            2.0
 T1-number-of-tasks                    3

 t1 file size   =               69
 t1 file name   = ./H2.t1
 t1 file handle =       -998
 T2-number-of-boxes                   15

 t2 file size   =             7935
 t2 file name   = ./H2.t2
 t2 file handle =       -996
CCSD iterations
 ---------------------------------------------------------
 Iter          Residuum       Correlation     Cpu    Wall 
 ---------------------------------------------------------
NEW TASK SCHEDULING
CCSD_T1_NTS --- OK
CCSD_T2_NTS --- OK
    1   1.5355761777673  -0.4589746254840     0.1     0.1
    2   1.3212148801593  -0.4857263936443     0.0     0.1
    3   0.9334600514344  -0.2926978311729     0.1     0.1
    4   1.0863109685996  -0.3295993897077     0.1     0.1
    5   1.3448998419813  -0.2448536953522     0.1     0.1
 MICROCYCLE DIIS UPDATE:                    5                    5
    6   0.1580331701417  -0.2534305547222     0.1     0.1
    7   0.1135341394153  -0.2465668058930     0.1     0.1
    8   0.1036509693384  -0.2370508591223     0.1     0.1
    9   0.1077420947336  -0.2341065585414     0.1     0.1
   10   0.1167582284434  -0.2251540705114     0.1     0.1
 MICROCYCLE DIIS UPDATE:                   10                    5
   11   0.0160169697706  -0.2147217597897     0.1     0.1
   12   0.0111088581449  -0.2138267278438     0.0     0.1
   13   0.0107874864004  -0.2128724914041     0.1     0.1
   14   0.0125599754938  -0.2124886507998     0.1     0.1
   15   0.0157097102612  -0.2118728794306     0.1     0.1
 MICROCYCLE DIIS UPDATE:                   15                    5
   16   0.0020623799711  -0.2106418812900     0.1     0.1
   17   0.0010765720387  -0.2105662131184     0.1     0.1
   18   0.0008064325482  -0.2105253675081     0.2     0.2
   19   0.0006281796364  -0.2104756121129     0.1     0.1
   20   0.0005596446816  -0.2104249595838     0.1     0.1
 MICROCYCLE DIIS UPDATE:                   20                    5
   21   0.0003035774493  -0.2103477736738     0.1     0.1
   22   0.0002142565994  -0.2103292185464     0.1     0.1
   23   0.0001783820115  -0.2103068445188     0.1     0.1
   24   0.0001743869237  -0.2102968950782     0.1     0.1
   25   0.0001890050354  -0.2102835541463     0.1     0.1
 MICROCYCLE DIIS UPDATE:                   25                    5
   26   0.0000524005308  -0.2102535618654     0.1     0.1
   27   0.0000288921336  -0.2102519714883     0.1     0.1
   28   0.0000215402258  -0.2102508674167     0.0     0.1
   29   0.0000164948631  -0.2102494445461     0.1     0.1
   30   0.0000143274723  -0.2102482617444     0.1     0.1
 MICROCYCLE DIIS UPDATE:                   30                    5
   31   0.0000080795161  -0.2102457676970     0.1     0.1
   32   0.0000058849966  -0.2102453803413     0.0     0.1
   33   0.0000048371284  -0.2102447193666     0.1     0.1
   34   0.0000047096450  -0.2102445247175     0.1     0.1
   35   0.0000050135318  -0.2102441247093     0.0     0.1
 MICROCYCLE DIIS UPDATE:                   35                    5
   36   0.0000014124497  -0.2102433759955     0.1     0.1
   37   0.0000008139549  -0.2102433467636     0.1     0.1
   38   0.0000005919533  -0.2102433064640     0.1     0.1
   39   0.0000004624090  -0.2102432742749     0.1     0.1
   40   0.0000004006487  -0.2102432368361     0.1     0.1
 MICROCYCLE DIIS UPDATE:                   40                    5
   41   0.0000001436829  -0.2102431240027     0.1     0.1
   42   0.0000001197748  -0.2102431184993     0.0     0.1
   43   0.0000001176929  -0.2102431121875     0.1     0.1
   44   0.0000001317401  -0.2102431082638     0.1     0.1
   45   0.0000001559778  -0.2102431060252     0.1     0.1
 MICROCYCLE DIIS UPDATE:                   45                    5
   46   0.0000000186373  -0.2102430978202     0.1     0.1
 -----------------------------------------------------------------
 Iterations converged
 CCSD correlation energy / hartree =        -0.210243097820205
 CCSD total energy / hartree       =        -1.000417048922067

 Singles contributions

 Doubles contributions
     2a   (alpha)     2a   (beta ) ---     1a   (alpha)     1a   (beta )       -0.9020682888
 Ground state specification:
 exp(T)|Ref>~(1+T)|Ref>
 ------- a(p)+/a(q) strings ----------

 singles norm

 doubles norm

 Reference string
  0.74253002113249322      :(1a)+ (1b)+ |0>

 Singles strings

 Doubles strings
 -0.66981278557293855      :(2a)+ (2b)+ (1b)  (1a)  (1a)+ (1b)+ |0>
 -------------------------------------
 enrep_tce =   0.16129032258064513     
  EHF(total)         =        -0.79017395
  Shift (HFtot-HFA)  =         0.00000000
 ALL OCCUPIED ORBITALS ARE ACTIVE IN DUCC --> NO SHIFT
 Number of active orbitals                   10
 Number of active alpha electrons                    1
 Number of active beta electrons                    1
  nos                     2
  nvs                   138
 noas                     1
 nobs                     1
 nvas                    69
 nvbs                    69
 nactv                     9
 DUCC MODEL =                     3
 NONHF =  T
 F-T1 correlation    =    2.0065237440697754E-005
 V-T1-T1 correlation =    8.1001750356889359E-010
 V-T2 correlation    =  -0.21026316386765487     
 Total correlation   =  -0.21024309782019668     
 F-T1(Ext) correlation         =   -1.9757816632382905E-007
 V-T1(Ext)-T1(Ext) correlation =    2.8467355205867352E-011
 V-T2(Ext) correlation         =   -2.7622835099505641E-005
 Total Ext correlation         =   -2.7820384798474265E-005
1-BODY TIME =    0.035 SECONDS.
  HHHH TIME =    0.014 SECONDS.
  PPPP TIME =    0.001 SECONDS.
  HHHP TIME =    0.033 SECONDS.
  PPPH TIME =    0.078 SECONDS.
  HPHP TIME =    0.012 SECONDS.
  HHPP TIME =    0.308 SECONDS.
 ONE-BODY UNITARY CHECK
 TWO-BODY UNITARY CHECK
 TWO-BODY ANTISYMMETRY CHECK
 TRANSFORMED ~FOCK~ MATRIX
    1    1        -0.2824775363
    1    3         0.0188998935
    1    6         0.0852369326
    1    8        -0.0320464555
    2    2        -0.0987870819
    2    7         0.0813547012
    2    8         0.0000000003
    3    1         0.0188998935
    3    3         0.4945223079
    3    6        -0.0893219468
    3    7         0.0000000008
    3    8        -0.2412456125
    4    4         0.5741136685
    5    5         0.5741136685
    6    1         0.0852369326
    6    3        -0.0893219468
    6    6         0.8237921488
    6    7        -0.0000000020
    6    8         0.3164707408
    7    2         0.0813547012
    7    3         0.0000000008
    7    6        -0.0000000020
    7    7         1.4578298764
    7    8        -0.0000000020
    8    1        -0.0320464555
    8    2         0.0000000003
    8    3        -0.2412456125
    8    6         0.3164707408
    8    7        -0.0000000020
    8    8         2.1068537650
    9    9         1.4029306092
   10   10         1.4029306092
 begin_one_electron_integrals
    1    1        -0.6690269081
    1    3         0.0313048564
    1    6        -0.0005075654
    1    8        -0.0010250644
    2    2        -0.6528777186
    2    7        -0.0027143228
    3    1         0.0313048564
    3    3        -0.0972294202
    3    6        -0.0912434220
    3    7         0.0000000004
    3    8        -0.1536495376
    4    4        -0.0176993192
    5    5        -0.0176993192
    6    1        -0.0005075654
    6    3        -0.0912434220
    6    6         0.1699140244
    6    7        -0.0000000017
    6    8         0.3081061701
    7    2        -0.0027143228
    7    3         0.0000000004
    7    6        -0.0000000017
    7    7         0.7212865581
    7    8        -0.0000000023
    8    1        -0.0010250644
    8    3        -0.1536495376
    8    6         0.3081061701
    8    7        -0.0000000023
    8    8         1.3926401896
    9    9         0.6596824261
   10   10         0.6596824261
 end_one_electron_integrals
 begin_two_electron_integrals
    1    1    1    1        0.3865493718
    1    1    1    3       -0.0124049629
    1    1    1    6        0.0857444980
    1    1    1    8       -0.0310213912
    1    2    1    2        0.2319965682
    1    2    1    7        0.0711159931
    1    2    1    8        0.0000000002
    1    3    1    1       -0.0124049629
    1    3    1    3        0.0430112855
    1    3    1    6       -0.0027543795
    1    3    1    8       -0.0145379649
    1    4    1    4        0.0413601681
    1    5    1    5        0.0413601681
    1    6    1    1        0.0857444980
    1    6    1    3       -0.0027543795
    1    6    1    6        0.0647508493
    1    6    1    8       -0.0187195092
    1    7    1    2        0.0711159931
    1    7    1    7        0.0656429265
    1    7    1    8        0.0000000002
    1    8    1    1       -0.0310213912
    1    8    1    2        0.0000000002
    1    8    1    3       -0.0145379649
    1    8    1    6       -0.0187195092
    1    8    1    7        0.0000000002
    1    8    1    8        0.0335090864
    1    9    1    9        0.0573335615
    1   10    1   10        0.0573335615
    1    1    2    2        0.3930533000
    1    1    2    7        0.0776708057
    1    1    2    8        0.0000000003
    1    2    2    1        0.2320159634
    1    2    2    3        0.0210770457
    1    2    2    6        0.0947833682
    1    2    2    8       -0.0359527825
    1    3    2    2       -0.0086186235
    1    3    2    7       -0.0100050146
    1    3    2    8       -0.0000000002
    1    4    2    9        0.0084278477
    1    4    2   10       -0.0466672265
    1    5    2    9       -0.0466672265
    1    5    2   10       -0.0084278477
    1    6    2    2        0.0908874258
    1    6    2    7        0.0657076507
    1    6    2    8        0.0000000002
    1    7    2    1        0.0712725874
    1    7    2    3       -0.0073260737
    1    7    2    6        0.0653794118
    1    7    2    8       -0.0166179049
    1    8    2    1        0.0000000002
    1    8    2    2       -0.0340375052
    1    8    2    3       -0.0000000001
    1    8    2    6        0.0000000002
    1    8    2    7       -0.0157923605
    1    9    2    4        0.0077571395
    1    9    2    5       -0.0429533375
    1   10    2    4       -0.0429533375
    1   10    2    5       -0.0077571395
    1    1    3    1       -0.0124049629
    1    1    3    3        0.3172759920
    1    1    3    6       -0.0004032403
    1    1    3    7        0.0000000002
    1    1    3    8       -0.0510890960
    1    2    3    2        0.0210799858
    1    2    3    3       -0.0000000003
    1    2    3    6       -0.0000000001
    1    2    3    7       -0.0297646040
    1    2    3    8       -0.0000000005
    1    3    3    1        0.0428002559
    1    3    3    3       -0.0322442800
    1    3    3    6       -0.0093447414
    1    3    3    8        0.0341833312
    1    4    3    4       -0.0069175845
    1    5    3    5       -0.0069175845
    1    6    3    1       -0.0027279559
    1    6    3    3        0.0335642841
    1    6    3    6       -0.0101728439
    1    6    3    7        0.0000000001
    1    6    3    8       -0.0273562525
    1    7    3    2       -0.0073631420
    1    7    3    7       -0.0142242007
    1    8    3    1       -0.0145821171
    1    8    3    2       -0.0000000001
    1    8    3    3        0.0073854838
    1    8    3    6       -0.0056637392
    1    8    3    8       -0.0069028732
    1    9    3    9       -0.0101880078
    1   10    3   10       -0.0101880078
    1    1    4    4        0.3165479505
    1    2    4    9        0.0279677195
    1    2    4   10       -0.1548646756
    1    3    4    4       -0.0228379621
    1    4    4    1        0.0412829132
    1    4    4    3       -0.0069186650
    1    4    4    6       -0.0154130888
    1    4    4    8       -0.0049899276
    1    6    4    4        0.0328931330
    1    7    4    9        0.0064497204
    1    7    4   10       -0.0357138114
    1    8    4    4       -0.0117526916
    1    8    4   10       -0.0000000002
    1    9    4    2        0.0077632127
    1    9    4    7       -0.0021086323
    1   10    4    2       -0.0429869661
    1   10    4    7        0.0116760561
    1    1    5    5        0.3165479505
    1    2    5    9       -0.1548646756
    1    2    5   10       -0.0279677195
    1    3    5    5       -0.0228379621
    1    5    5    1        0.0412829132
    1    5    5    3       -0.0069186650
    1    5    5    6       -0.0154130888
    1    5    5    8       -0.0049899276
    1    6    5    5        0.0328931330
    1    7    5    9       -0.0357138114
    1    7    5   10       -0.0064497204
    1    8    5    5       -0.0117526916
    1    8    5    9       -0.0000000002
    1    9    5    2       -0.0429869661
    1    9    5    7        0.0116760561
    1   10    5    2       -0.0077632127
    1   10    5    7        0.0021086323
    1    1    6    1        0.0857444980
    1    1    6    3       -0.0004032403
    1    1    6    6        0.3593326353
    1    1    6    7       -0.0000000001
    1    1    6    8       -0.0052096318
    1    2    6    2        0.0947818521
    1    2    6    3       -0.0000000001
    1    2    6    6        0.0000000002
    1    2    6    7        0.1989932623
    1    2    6    8        0.0000000008
    1    3    6    1       -0.0027279559
    1    3    6    3       -0.0093447132
    1    3    6    6       -0.0314725814
    1    3    6    7        0.0000000001
    1    3    6    8       -0.0283304789
    1    4    6    4       -0.0154157548
    1    5    6    5       -0.0154157548
    1    6    6    1        0.0647871462
    1    6    6    3       -0.0101772848
    1    6    6    6        0.0809898737
    1    6    6    8       -0.0123388053
    1    7    6    2        0.0653883702
    1    7    6    7        0.0835064872
    1    7    6    8        0.0000000003
    1    8    6    1       -0.0187838344
    1    8    6    2        0.0000000002
    1    8    6    3       -0.0056634620
    1    8    6    6       -0.0225153377
    1    8    6    7        0.0000000003
    1    8    6    8        0.0260646270
    1    9    6    9        0.0173225933
    1   10    6   10        0.0173225933
    1    1    7    2        0.0776708057
    1    1    7    3        0.0000000002
    1    1    7    6       -0.0000000001
    1    1    7    7        0.4010915602
    1    1    7    8        0.0000000002
    1    2    7    1        0.0712725874
    1    2    7    3       -0.0297892188
    1    2    7    6        0.1989936161
    1    2    7    7       -0.0000000007
    1    2    7    8       -0.0109256231
    1    3    7    2       -0.0100666977
    1    3    7    6        0.0000000001
    1    3    7    7       -0.0352812126
    1    3    7    8        0.0000000001
    1    4    7    9       -0.0001879164
    1    4    7   10        0.0010405427
    1    5    7    9        0.0010405427
    1    5    7   10        0.0001879164
    1    6    7    2        0.0657169628
    1    6    7    3        0.0000000001
    1    6    7    7        0.1069191961
    1    6    7    8        0.0000000002
    1    7    7    1        0.0656398022
    1    7    7    3       -0.0142098760
    1    7    7    6        0.0835169612
    1    7    7    7       -0.0000000003
    1    7    7    8       -0.0076420198
    1    8    7    1        0.0000000002
    1    8    7    2       -0.0157602366
    1    8    7    6        0.0000000003
    1    8    7    7       -0.0268539308
    1    9    7    4       -0.0021099907
    1    9    7    5        0.0116835778
    1   10    7    4        0.0116835778
    1   10    7    5        0.0021099907
    1    1    8    1       -0.0310213912
    1    1    8    2        0.0000000003
    1    1    8    3       -0.0510890960
    1    1    8    6       -0.0052096318
    1    1    8    7        0.0000000002
    1    1    8    8        0.3738723411
    1    2    8    1        0.0000000002
    1    2    8    2       -0.0359604589
    1    2    8    3       -0.0000000005
    1    2    8    6        0.0000000008
    1    2    8    7       -0.0109363121
    1    2    8    8        0.0000000002
    1    3    8    1       -0.0145821171
    1    3    8    2       -0.0000000002
    1    3    8    3        0.0341812734
    1    3    8    6       -0.0283307426
    1    3    8    7        0.0000000001
    1    3    8    8       -0.0372514197
    1    4    8    4       -0.0049903564
    1    5    8    5       -0.0049903564
    1    6    8    1       -0.0187838344
    1    6    8    2        0.0000000002
    1    6    8    3       -0.0273562389
    1    6    8    6       -0.0123377333
    1    6    8    7        0.0000000002
    1    6    8    8        0.0806357345
    1    7    8    1        0.0000000002
    1    7    8    2       -0.0165964699
    1    7    8    6        0.0000000003
    1    7    8    7       -0.0076297170
    1    7    8    8        0.0000000001
    1    8    8    1        0.0335311068
    1    8    8    3       -0.0069047667
    1    8    8    6        0.0260643239
    1    8    8    8        0.0040687114
    1    9    8    9       -0.0112525695
    1   10    8   10       -0.0112525695
    1    1    9    9        0.4007452682
    1    2    9    4        0.0279681880
    1    2    9    5       -0.1548672697
    1    3    9    9       -0.0338611989
    1    4    9    2        0.0084343893
    1    4    9    7       -0.0001898127
    1    5    9    2       -0.0467034491
    1    5    9    7        0.0010510432
    1    6    9    9        0.0858179834
    1    7    9    4        0.0064464657
    1    7    9    5       -0.0356957893
    1    8    9    5       -0.0000000002
    1    8    9    9       -0.0246953707
    1    9    9    1        0.0582423533
    1    9    9    3       -0.0101836277
    1    9    9    6        0.0173073436
    1    9    9    8       -0.0112483499
    1    1   10   10        0.4007452682
    1    2   10    4       -0.1548672697
    1    2   10    5       -0.0279681880
    1    3   10   10       -0.0338611989
    1    4   10    2       -0.0467034491
    1    4   10    7        0.0010510432
    1    5   10    2       -0.0084343893
    1    5   10    7        0.0001898127
    1    6   10   10        0.0858179834
    1    7   10    4       -0.0356957893
    1    7   10    5       -0.0064464657
    1    8   10    4       -0.0000000002
    1    8   10   10       -0.0246953707
    1   10   10    1        0.0582423533
    1   10   10    3       -0.0101836277
    1   10   10    6        0.0173073436
    1   10   10    8       -0.0112483499
    2    1    1    2        0.2320159634
    2    1    1    7        0.0712725874
    2    1    1    8        0.0000000002
    2    2    1    1        0.3930533000
    2    2    1    3       -0.0086186235
    2    2    1    6        0.0908874258
    2    2    1    8       -0.0340375052
    2    3    1    2        0.0210770457
    2    3    1    7       -0.0073260737
    2    3    1    8       -0.0000000001
    2    4    1    9        0.0077571395
    2    4    1   10       -0.0429533375
    2    5    1    9       -0.0429533375
    2    5    1   10       -0.0077571395
    2    6    1    2        0.0947833682
    2    6    1    7        0.0653794118
    2    6    1    8        0.0000000002
    2    7    1    1        0.0776708057
    2    7    1    3       -0.0100050146
    2    7    1    6        0.0657076507
    2    7    1    8       -0.0157923605
    2    8    1    1        0.0000000003
    2    8    1    2       -0.0359527825
    2    8    1    3       -0.0000000002
    2    8    1    6        0.0000000002
    2    8    1    7       -0.0166179049
    2    9    1    4        0.0084278477
    2    9    1    5       -0.0466672265
    2   10    1    4       -0.0466672265
    2   10    1    5       -0.0084278477
    2    1    2    1        0.2319965682
    2    1    2    3        0.0210799858
    2    1    2    6        0.0947818521
    2    1    2    8       -0.0359604589
    2    2    2    2        0.4003910977
    2    2    2    7        0.0818507290
    2    2    2    8        0.0000000003
    2    3    2    1        0.0210799858
    2    3    2    3        0.0326538014
    2    3    2    6       -0.0020654090
    2    3    2    8       -0.0138331115
    2    4    2    4        0.0370629098
    2    5    2    5        0.0370629098
    2    6    2    1        0.0947818521
    2    6    2    3       -0.0020654090
    2    6    2    6        0.0697397862
    2    6    2    8       -0.0212399634
    2    7    2    2        0.0818507290
    2    7    2    7        0.0705925189
    2    7    2    8        0.0000000002
    2    8    2    1       -0.0359604589
    2    8    2    2        0.0000000003
    2    8    2    3       -0.0138331115
    2    8    2    6       -0.0212399634
    2    8    2    7        0.0000000002
    2    8    2    8        0.0348818552
    2    9    2    9        0.0631417352
    2   10    2   10        0.0631417352
    2    1    3    2        0.0210770457
    2    1    3    3       -0.0000000003
    2    1    3    6       -0.0000000001
    2    1    3    7       -0.0297892188
    2    1    3    8       -0.0000000005
    2    2    3    1       -0.0086186235
    2    2    3    3        0.3166663705
    2    2    3    6       -0.0026462169
    2    2    3    7        0.0000000002
    2    2    3    8       -0.0505403960
    2    3    3    2        0.0326538014
    2    3    3    7       -0.0058280361
    2    3    3    8       -0.0000000001
    2    4    3    9       -0.0012956357
    2    4    3   10        0.0071742784
    2    5    3    9        0.0071742784
    2    5    3   10        0.0012956357
    2    6    3    2       -0.0020654090
    2    6    3    7       -0.0153619984
    2    6    3    8       -0.0000000002
    2    7    3    1       -0.0100666977
    2    7    3    3        0.0301108067
    2    7    3    6       -0.0092931188
    2    7    3    7        0.0000000001
    2    7    3    8       -0.0294208858
    2    8    3    1       -0.0000000002
    2    8    3    2       -0.0138331115
    2    8    3    3        0.0000000002
    2    8    3    7       -0.0024506908
    2    8    3    8       -0.0000000002
    2    9    3    4       -0.0014707771
    2    9    3    5        0.0081440824
    2   10    3    4        0.0081440824
    2   10    3    5        0.0014707771
    2    1    4    9        0.0279681880
    2    1    4   10       -0.1548672697
    2    2    4    4        0.3182528776
    2    3    4    9        0.0002900075
    2    3    4   10       -0.0016058482
    2    4    4    2        0.0370629098
    2    4    4    7       -0.0168200687
    2    6    4    9        0.0094922771
    2    6    4   10       -0.0525612543
    2    7    4    4        0.0263727594
    2    8    4    4        0.0000000002
    2    8    4    9       -0.0030196543
    2    8    4   10        0.0167206261
    2    9    4    1        0.0084343893
    2    9    4    3       -0.0014707771
    2    9    4    6       -0.0014367519
    2    9    4    8       -0.0012450547
    2   10    4    1       -0.0467034491
    2   10    4    3        0.0081440824
    2   10    4    6        0.0079556761
    2   10    4    8        0.0068941978
    2    1    5    9       -0.1548672697
    2    1    5   10       -0.0279681880
    2    2    5    5        0.3182528776
    2    3    5    9       -0.0016058482
    2    3    5   10       -0.0002900075
    2    5    5    2        0.0370629098
    2    5    5    7       -0.0168200687
    2    6    5    9       -0.0525612543
    2    6    5   10       -0.0094922771
    2    7    5    5        0.0263727594
    2    8    5    5        0.0000000002
    2    8    5    9        0.0167206261
    2    8    5   10        0.0030196543
    2    9    5    1       -0.0467034491
    2    9    5    3        0.0081440824
    2    9    5    6        0.0079556761
    2    9    5    8        0.0068941978
    2   10    5    1       -0.0084343893
    2   10    5    3        0.0014707771
    2   10    5    6        0.0014367519
    2   10    5    8        0.0012450547
    2    1    6    2        0.0947833682
    2    1    6    3       -0.0000000001
    2    1    6    6        0.0000000002
    2    1    6    7        0.1989936161
    2    1    6    8        0.0000000008
    2    2    6    1        0.0908874258
    2    2    6    3       -0.0026462169
    2    2    6    6        0.3630347452
    2    2    6    7       -0.0000000001
    2    2    6    8       -0.0086212748
    2    3    6    2       -0.0020654090
    2    3    6    7        0.0000375318
    2    4    6    9        0.0013329180
    2    4    6   10       -0.0073807200
    2    5    6    9       -0.0073807200
    2    5    6   10       -0.0013329180
    2    6    6    2        0.0697397862
    2    6    6    6        0.0000000002
    2    6    6    7        0.0972530526
    2    6    6    8        0.0000000004
    2    7    6    1        0.0657169628
    2    7    6    3       -0.0092931188
    2    7    6    6        0.0821481593
    2    7    6    8       -0.0089804058
    2    8    6    1        0.0000000002
    2    8    6    2       -0.0212399634
    2    8    6    6        0.0000000004
    2    8    6    7       -0.0269616399
    2    9    6    4       -0.0014367519
    2    9    6    5        0.0079556761
    2   10    6    4        0.0079556761
    2   10    6    5        0.0014367519
    2    1    7    1        0.0711159931
    2    1    7    3       -0.0297646040
    2    1    7    6        0.1989932623
    2    1    7    7       -0.0000000007
    2    1    7    8       -0.0109363121
    2    2    7    2        0.0818507290
    2    2    7    3        0.0000000002
    2    2    7    6       -0.0000000001
    2    2    7    7        0.4069994256
    2    2    7    8        0.0000000002
    2    3    7    1       -0.0073631420
    2    3    7    3       -0.0058280361
    2    3    7    6        0.0000375318
    2    3    7    7        0.0000000001
    2    3    7    8       -0.0189023971
    2    4    7    4       -0.0168200687
    2    5    7    5       -0.0168200687
    2    6    7    1        0.0653883702
    2    6    7    3       -0.0153619984
    2    6    7    6        0.0972530526
    2    6    7    7       -0.0000000002
    2    6    7    8       -0.0093730793
    2    7    7    2        0.0705925189
    2    7    7    3        0.0000000001
    2    7    7    7        0.1084229405
    2    7    7    8        0.0000000001
    2    8    7    1       -0.0165964699
    2    8    7    2        0.0000000002
    2    8    7    3       -0.0024506908
    2    8    7    6       -0.0269616399
    2    8    7    7        0.0000000004
    2    8    7    8        0.0240857192
    2    9    7    9        0.0087998188
    2   10    7   10        0.0087998188
    2    1    8    1        0.0000000002
    2    1    8    2       -0.0359527825
    2    1    8    3       -0.0000000005
    2    1    8    6        0.0000000008
    2    1    8    7       -0.0109256231
    2    1    8    8        0.0000000002
    2    2    8    1       -0.0340375052
    2    2    8    2        0.0000000003
    2    2    8    3       -0.0505403960
    2    2    8    6       -0.0086212748
    2    2    8    7        0.0000000002
    2    2    8    8        0.3772317949
    2    3    8    1       -0.0000000001
    2    3    8    2       -0.0138331115
    2    3    8    3       -0.0000000001
    2    3    8    7       -0.0189023971
    2    3    8    8       -0.0000000003
    2    4    8    9       -0.0014977899
    2    4    8   10        0.0082936595
    2    5    8    9        0.0082936595
    2    5    8   10        0.0014977899
    2    6    8    1        0.0000000002
    2    6    8    2       -0.0212399634
    2    6    8    3       -0.0000000002
    2    6    8    6        0.0000000004
    2    6    8    7       -0.0093730793
    2    6    8    8        0.0000000002
    2    7    8    1       -0.0157602366
    2    7    8    2        0.0000000002
    2    7    8    3       -0.0294208858
    2    7    8    6       -0.0089804058
    2    7    8    7        0.0000000001
    2    7    8    8        0.0769990718
    2    8    8    2        0.0348818552
    2    8    8    3       -0.0000000002
    2    8    8    7        0.0240857192
    2    8    8    8        0.0000000006
    2    9    8    4       -0.0012450547
    2    9    8    5        0.0068941978
    2    9    8    9        0.0000000001
    2   10    8    4        0.0068941978
    2   10    8    5        0.0012450547
    2   10    8   10        0.0000000001
    2    1    9    4        0.0279677195
    2    1    9    5       -0.1548646756
    2    2    9    9        0.4061659220
    2    3    9    4        0.0002900075
    2    3    9    5       -0.0016058482
    2    4    9    1        0.0077632127
    2    4    9    3       -0.0012956357
    2    4    9    6        0.0013329180
    2    4    9    8       -0.0014977899
    2    5    9    1       -0.0429869661
    2    5    9    3        0.0071742784
    2    5    9    6       -0.0073807200
    2    5    9    8        0.0082936595
    2    6    9    4        0.0094922771
    2    6    9    5       -0.0525612543
    2    7    9    9        0.0780966810
    2    8    9    4       -0.0030196543
    2    8    9    5        0.0167206261
    2    8    9    9        0.0000000004
    2    9    9    2        0.0631417352
    2    9    9    7        0.0087998188
    2    9    9    8        0.0000000001
    2    1   10    4       -0.1548646756
    2    1   10    5       -0.0279677195
    2    2   10   10        0.4061659220
    2    3   10    4       -0.0016058482
    2    3   10    5       -0.0002900075
    2    4   10    1       -0.0429869661
    2    4   10    3        0.0071742784
    2    4   10    6       -0.0073807200
    2    4   10    8        0.0082936595
    2    5   10    1       -0.0077632127
    2    5   10    3        0.0012956357
    2    5   10    6       -0.0013329180
    2    5   10    8        0.0014977899
    2    6   10    4       -0.0525612543
    2    6   10    5       -0.0094922771
    2    7   10   10        0.0780966810
    2    8   10    4        0.0167206261
    2    8   10    5        0.0030196543
    2    8   10   10        0.0000000004
    2   10   10    2        0.0631417352
    2   10   10    7        0.0087998188
    2   10   10    8        0.0000000001
    3    1    1    1       -0.0124049629
    3    1    1    3        0.0428002559
    3    1    1    6       -0.0027279559
    3    1    1    8       -0.0145821171
[...]
    9    9    2    2        0.4061659220
    9    9    2    7        0.0780966810
    9    9    2    8        0.0000000004
    9    1    3    9       -0.0101836277
    9    2    3    4       -0.0014707771
    9    2    3    5        0.0081440824
    9    3    3    9        0.0114383160
    9    4    3    2        0.0002900075
    9    4    3    7       -0.0030709737
    9    5    3    2       -0.0016058482
    9    5    3    3        0.0000000002
    9    5    3    7        0.0170047953
    9    5    3    8        0.0000000004
    9    6    3    9       -0.0036669555
    9    7    3    4       -0.0001189467
    9    7    3    5        0.0006586395
    9    8    3    9       -0.0073230472
    9    9    3    1       -0.0338611989
    9    9    3    3        0.3313108342
    9    9    3    6       -0.0007119052
    9    9    3    7        0.0000000002
    9    9    3    8       -0.0692920574
    9    1    4    2        0.0077571395
    9    1    4    7       -0.0021099907
    9    2    4    1        0.0084278477
    9    2    4    3       -0.0014707771
    9    2    4    6       -0.0014367519
    9    2    4    8       -0.0012450547
    9    3    4    2       -0.0012956357
    9    3    4    7        0.0002946045
    9    4    4    9        0.0151339671
    9    4    4   10       -0.0216575940
    9    5    4    9       -0.0216575941
    9    5    4   10        0.1087011151
    9    6    4    2        0.0013329180
    9    6    4    7        0.0014573016
    9    7    4    1       -0.0001879164
    9    7    4    3       -0.0001189467
    9    7    4    6        0.0021743264
    9    7    4    8        0.0002495794
    9    8    4    2       -0.0014977899
    9    8    4    7        0.0006595205
    9    9    4    4        0.3289325248
    9    9    4    5       -0.0047521657
    9   10    4    4       -0.0047521657
    9   10    4    5        0.0127278929
    9    1    5    2       -0.0429533375
    9    1    5    7        0.0116835778
    9    2    5    1       -0.0466672265
    9    2    5    3        0.0081440824
    9    2    5    6        0.0079556761
    9    2    5    8        0.0068941978
    9    3    5    2        0.0071742784
    9    3    5    7       -0.0016313033
    9    4    5    9       -0.0216575941
    9    4    5   10        0.0073114793
    9    5    5    9        0.1311465615
    9    5    5   10        0.0216575940
    9    6    5    2       -0.0073807200
    9    6    5    7       -0.0080694653
    9    7    5    1        0.0010405427
    9    7    5    3        0.0006586395
    9    7    5    6       -0.0120398215
    9    7    5    8       -0.0013819875
    9    8    5    2        0.0082936595
    9    8    5    7       -0.0036519399
    9    9    5    4       -0.0047521657
    9    9    5    5        0.3543883107
    9   10    5    4        0.0127278929
    9   10    5    5        0.0047521657
    9    1    6    9        0.0173073436
    9    2    6    4       -0.0014367519
    9    2    6    5        0.0079556761
    9    3    6    9       -0.0036669555
    9    4    6    2        0.0094922771
    9    4    6    7        0.0238735713
    9    5    6    2       -0.0525612543
    9    5    6    6       -0.0000000001
    9    5    6    7       -0.1321942918
    9    5    6    8       -0.0000000005
    9    6    6    9        0.0149949627
    9    7    6    4        0.0021743264
    9    7    6    5       -0.0120398215
    9    8    6    9       -0.0017286030
    9    9    6    1        0.0858179834
    9    9    6    3       -0.0007119052
    9    9    6    6        0.3727246507
    9    9    6    7       -0.0000000002
    9    9    6    8        0.0117646057
    9    1    7    4       -0.0021086323
    9    1    7    5        0.0116760561
    9    2    7    9        0.0087998188
    9    3    7    4        0.0002946045
    9    3    7    5       -0.0016313033
    9    4    7    1        0.0064497204
    9    4    7    3       -0.0030709737
    9    4    7    6        0.0238735713
    9    4    7    8        0.0010644603
    9    5    7    1       -0.0357138114
    9    5    7    3        0.0170047953
    9    5    7    6       -0.1321942918
    9    5    7    7        0.0000000005
    9    5    7    8       -0.0058941986
    9    6    7    4        0.0014573016
    9    6    7    5       -0.0080694653
    9    7    7    9        0.0175220541
    9    8    7    4        0.0006595205
    9    8    7    5       -0.0036519399
    9    9    7    2        0.0780966810
    9    9    7    3        0.0000000002
    9    9    7    6       -0.0000000002
    9    9    7    7        0.4185849855
    9    9    7    8        0.0000000002
    9    1    8    9       -0.0112483499
    9    2    8    4       -0.0012450547
    9    2    8    5        0.0068941978
    9    2    8    9        0.0000000001
    9    3    8    9       -0.0073230472
    9    4    8    2       -0.0030196543
    9    4    8    7        0.0010644603
    9    5    8    1       -0.0000000002
    9    5    8    2        0.0167206261
    9    5    8    3        0.0000000004
    9    5    8    6       -0.0000000005
    9    5    8    7       -0.0058941986
    9    5    8    8       -0.0000000003
    9    6    8    9       -0.0017286030
    9    7    8    4        0.0002495794
    9    7    8    5       -0.0013819875
    9    8    8    9        0.0155635886
    9    9    8    1       -0.0246953707
    9    9    8    2        0.0000000004
    9    9    8    3       -0.0692920574
    9    9    8    6        0.0117646057
    9    9    8    7        0.0000000002
    9    9    8    8        0.3933074021
    9    1    9    1        0.0573335615
    9    1    9    3       -0.0101880078
    9    1    9    6        0.0173225933
    9    1    9    8       -0.0112525695
    9    2    9    2        0.0631417352
    9    2    9    7        0.0087998188
    9    2    9    8        0.0000000001
    9    3    9    1       -0.0101880078
    9    3    9    3        0.0114383160
    9    3    9    6       -0.0036669555
    9    3    9    8       -0.0073230472
    9    4    9    4        0.0151339671
    9    4    9    5       -0.0216575941
    9    5    9    4       -0.0216575941
    9    5    9    5        0.1311465615
    9    6    9    1        0.0173225933
    9    6    9    3       -0.0036669555
    9    6    9    6        0.0149949627
    9    6    9    8       -0.0017286030
    9    7    9    2        0.0087998188
    9    7    9    7        0.0175220541
    9    8    9    1       -0.0112525695
    9    8    9    2        0.0000000001
    9    8    9    3       -0.0073230472
    9    8    9    6       -0.0017286030
    9    8    9    8        0.0155635886
    9    9    9    9        0.4646020472
    9   10    9   10        0.0220974567
    9    4   10    4       -0.0216575940
    9    4   10    5        0.0073114793
    9    5   10    4        0.1087011151
    9    5   10    5        0.0216575940
    9    9   10   10        0.4204071340
    9   10   10    9        0.0220974567
   10    1    1   10        0.0582423533
   10    2    1    4       -0.0467034491
   10    2    1    5       -0.0084343893
   10    3    1   10       -0.0101836277
   10    4    1    2       -0.1548672697
   10    4    1    7       -0.0356957893
   10    4    1    8       -0.0000000002
   10    5    1    2       -0.0279681880
   10    5    1    7       -0.0064464657
   10    6    1   10        0.0173073436
   10    7    1    4        0.0010510432
   10    7    1    5        0.0001898127
   10    8    1   10       -0.0112483499
   10   10    1    1        0.4007452682
   10   10    1    3       -0.0338611989
   10   10    1    6        0.0858179834
   10   10    1    8       -0.0246953707
   10    1    2    4       -0.0429869661
   10    1    2    5       -0.0077632127
   10    2    2   10        0.0631417352
   10    3    2    4        0.0071742784
   10    3    2    5        0.0012956357
   10    4    2    1       -0.1548646756
   10    4    2    3       -0.0016058482
   10    4    2    6       -0.0525612543
   10    4    2    8        0.0167206261
   10    5    2    1       -0.0279677195
   10    5    2    3       -0.0002900075
   10    5    2    6       -0.0094922771
   10    5    2    8        0.0030196543
   10    6    2    4       -0.0073807200
   10    6    2    5       -0.0013329180
   10    7    2   10        0.0087998188
   10    8    2    4        0.0082936595
   10    8    2    5        0.0014977899
   10    8    2   10        0.0000000001
   10   10    2    2        0.4061659220
   10   10    2    7        0.0780966810
   10   10    2    8        0.0000000004
   10    1    3   10       -0.0101836277
   10    2    3    4        0.0081440824
   10    2    3    5        0.0014707771
   10    3    3   10        0.0114383160
   10    4    3    2       -0.0016058482
   10    4    3    3        0.0000000002
   10    4    3    7        0.0170047953
   10    4    3    8        0.0000000004
   10    5    3    2       -0.0002900075
   10    5    3    7        0.0030709737
   10    6    3   10       -0.0036669555
   10    7    3    4        0.0006586395
   10    7    3    5        0.0001189467
   10    8    3   10       -0.0073230472
   10   10    3    1       -0.0338611989
   10   10    3    3        0.3313108342
   10   10    3    6       -0.0007119052
   10   10    3    7        0.0000000002
   10   10    3    8       -0.0692920574
   10    1    4    2       -0.0429533375
   10    1    4    7        0.0116835778
   10    2    4    1       -0.0466672265
   10    2    4    3        0.0081440824
   10    2    4    6        0.0079556761
   10    2    4    8        0.0068941978
   10    3    4    2        0.0071742784
   10    3    4    7       -0.0016313033
   10    4    4    9       -0.0216575940
   10    4    4   10        0.1311465615
   10    5    4    9        0.0073114793
   10    5    4   10        0.0216575941
   10    6    4    2       -0.0073807200
   10    6    4    7       -0.0080694653
   10    7    4    1        0.0010405427
   10    7    4    3        0.0006586395
   10    7    4    6       -0.0120398215
   10    7    4    8       -0.0013819875
   10    8    4    2        0.0082936595
   10    8    4    7       -0.0036519399
   10    9    4    4       -0.0047521657
   10    9    4    5        0.0127278929
   10   10    4    4        0.3543883107
   10   10    4    5        0.0047521657
   10    1    5    2       -0.0077571395
   10    1    5    7        0.0021099907
   10    2    5    1       -0.0084278477
   10    2    5    3        0.0014707771
   10    2    5    6        0.0014367519
   10    2    5    8        0.0012450547
   10    3    5    2        0.0012956357
   10    3    5    7       -0.0002946045
   10    4    5    9        0.1087011151
   10    4    5   10        0.0216575941
   10    5    5    9        0.0216575940
   10    5    5   10        0.0151339671
   10    6    5    2       -0.0013329180
   10    6    5    7       -0.0014573016
   10    7    5    1        0.0001879164
   10    7    5    3        0.0001189467
   10    7    5    6       -0.0021743264
   10    7    5    8       -0.0002495794
   10    8    5    2        0.0014977899
   10    8    5    7       -0.0006595205
   10    9    5    4        0.0127278929
   10    9    5    5        0.0047521657
   10   10    5    4        0.0047521657
   10   10    5    5        0.3289325248
   10    1    6   10        0.0173073436
   10    2    6    4        0.0079556761
   10    2    6    5        0.0014367519
   10    3    6   10       -0.0036669555
   10    4    6    2       -0.0525612543
   10    4    6    6       -0.0000000001
   10    4    6    7       -0.1321942918
   10    4    6    8       -0.0000000005
   10    5    6    2       -0.0094922771
   10    5    6    7       -0.0238735713
   10    6    6   10        0.0149949627
   10    7    6    4       -0.0120398215
   10    7    6    5       -0.0021743264
   10    8    6   10       -0.0017286030
   10   10    6    1        0.0858179834
   10   10    6    3       -0.0007119052
   10   10    6    6        0.3727246507
   10   10    6    7       -0.0000000002
   10   10    6    8        0.0117646057
   10    1    7    4        0.0116760561
   10    1    7    5        0.0021086323
   10    2    7   10        0.0087998188
   10    3    7    4       -0.0016313033
   10    3    7    5       -0.0002946045
   10    4    7    1       -0.0357138114
   10    4    7    3        0.0170047953
   10    4    7    6       -0.1321942918
   10    4    7    7        0.0000000005
   10    4    7    8       -0.0058941986
   10    5    7    1       -0.0064497204
   10    5    7    3        0.0030709737
   10    5    7    6       -0.0238735713
   10    5    7    8       -0.0010644603
   10    6    7    4       -0.0080694653
   10    6    7    5       -0.0014573016
   10    7    7   10        0.0175220541
   10    8    7    4       -0.0036519399
   10    8    7    5       -0.0006595205
   10   10    7    2        0.0780966810
   10   10    7    3        0.0000000002
   10   10    7    6       -0.0000000002
   10   10    7    7        0.4185849855
   10   10    7    8        0.0000000002
   10    1    8   10       -0.0112483499
   10    2    8    4        0.0068941978
   10    2    8    5        0.0012450547
   10    2    8   10        0.0000000001
   10    3    8   10       -0.0073230472
   10    4    8    1       -0.0000000002
   10    4    8    2        0.0167206261
   10    4    8    3        0.0000000004
   10    4    8    6       -0.0000000005
   10    4    8    7       -0.0058941986
   10    4    8    8       -0.0000000003
   10    5    8    2        0.0030196543
   10    5    8    7       -0.0010644603
   10    6    8   10       -0.0017286030
   10    7    8    4       -0.0013819875
   10    7    8    5       -0.0002495794
   10    8    8   10        0.0155635886
   10   10    8    1       -0.0246953707
   10   10    8    2        0.0000000004
   10   10    8    3       -0.0692920574
   10   10    8    6        0.0117646057
   10   10    8    7        0.0000000002
   10   10    8    8        0.3933074021
   10    4    9    4       -0.0216575940
   10    4    9    5        0.1087011151
   10    5    9    4        0.0073114793
   10    5    9    5        0.0216575940
   10    9    9   10        0.0220974567
   10   10    9    9        0.4204071340
   10    1   10    1        0.0573335615
   10    1   10    3       -0.0101880078
   10    1   10    6        0.0173225933
   10    1   10    8       -0.0112525695
   10    2   10    2        0.0631417352
   10    2   10    7        0.0087998188
   10    2   10    8        0.0000000001
   10    3   10    1       -0.0101880078
   10    3   10    3        0.0114383160
   10    3   10    6       -0.0036669555
   10    3   10    8       -0.0073230472
   10    4   10    4        0.1311465615
   10    4   10    5        0.0216575941
   10    5   10    4        0.0216575941
   10    5   10    5        0.0151339671
   10    6   10    1        0.0173225933
   10    6   10    3       -0.0036669555
   10    6   10    6        0.0149949627
   10    6   10    8       -0.0017286030
   10    7   10    2        0.0087998188
   10    7   10    7        0.0175220541
   10    8   10    1       -0.0112525695
   10    8   10    2        0.0000000001
   10    8   10    3       -0.0073230472
   10    8   10    6       -0.0017286030
   10    8   10    8        0.0155635886
   10    9   10    9        0.0220974567
   10   10   10   10        0.4646020472
 end_two_electron_integrals

 Parallel integral file used      10 records with       0 large values


 Task  times  cpu:       35.2s     wall:       38.1s


                                NWChem Input Module
                                -------------------


 Summary of allocated global arrays
-----------------------------------
  No active global arrays


MA_summarize_allocated_blocks: starting scan ...
MA_summarize_allocated_blocks: scan completed: 0 heap blocks, 0 stack blocks
MA usage statistics:

	allocation statistics:
					      heap	     stack
					      ----	     -----
	current number of blocks	         0	         0
	maximum number of blocks	        18	        42
	current total bytes		         0	         0
	maximum total bytes		  51983048	9994007128
	maximum total K-bytes		     51984	   9994008
	maximum total M-bytes		        52	      9995


                                     CITATION
                                     --------
                Please cite the following reference when publishing
                           results obtained with NWChem:

          E. Apra, E. J. Bylaska, W. A. de Jong, N. Govind, K. Kowalski,
       T. P. Straatsma, M. Valiev, H. J. J. van Dam, Y. Alexeev, J. Anchell,
       V. Anisimov, F. W. Aquino, R. Atta-Fynn, J. Autschbach, N. P. Bauman,
     J. C. Becca, D. E. Bernholdt, K. Bhaskaran-Nair, S. Bogatko, P. Borowski,
         J. Boschen, J. Brabec, A. Bruner, E. Cauet, Y. Chen, G. N. Chuev,
      C. J. Cramer, J. Daily, M. J. O. Deegan, T. H. Dunning Jr., M. Dupuis,
   K. G. Dyall, G. I. Fann, S. A. Fischer, A. Fonari, H. Fruchtl, L. Gagliardi,
      J. Garza, N. Gawande, S. Ghosh, K. Glaesemann, A. W. Gotz, J. Hammond,
       V. Helms, E. D. Hermes, K. Hirao, S. Hirata, M. Jacquelin, L. Jensen,
   B. G. Johnson, H. Jonsson, R. A. Kendall, M. Klemm, R. Kobayashi, V. Konkov,
      S. Krishnamoorthy, M. Krishnan, Z. Lin, R. D. Lins, R. J. Littlefield,
      A. J. Logsdail, K. Lopata, W. Ma, A. V. Marenich, J. Martin del Campo,
   D. Mejia-Rodriguez, J. E. Moore, J. M. Mullin, T. Nakajima, D. R. Nascimento,
    J. A. Nichols, P. J. Nichols, J. Nieplocha, A. Otero-de-la-Roza, B. Palmer,
    A. Panyala, T. Pirojsirikul, B. Peng, R. Peverati, J. Pittner, L. Pollack,
   R. M. Richard, P. Sadayappan, G. C. Schatz, W. A. Shelton, D. W. Silverstein,
   D. M. A. Smith, T. A. Soares, D. Song, M. Swart, H. L. Taylor, G. S. Thomas,
            V. Tipparaju, D. G. Truhlar, K. Tsemekhman, T. Van Voorhis,
      A. Vazquez-Mayagoitia, P. Verma, O. Villa, A. Vishnu, K. D. Vogiatzis,
        D. Wang, J. H. Weare, M. J. Williamson, T. L. Windus, K. Wolinski,
        A. T. Wong, Q. Wu, C. Yang, Q. Yu, M. Zacharias, Z. Zhang, Y. Zhao,
                                and R. J. Harrison
                        "NWChem: Past, present, and future
                         J. Chem. Phys. 152, 184102 (2020)
                               doi:10.1063/5.0004997

                                      AUTHORS
                                      -------
  E. Apra, E. J. Bylaska, N. Govind, K. Kowalski, M. Valiev, D. Mejia-Rodriguez,
       A. Kunitsa, N. P. Bauman, A. Panyala, W. A. de Jong, T. P. Straatsma,
        H. J. J. van Dam, D. Wang, T. L. Windus, J. Hammond, J. Autschbach,
    K. Bhaskaran-Nair, J. Brabec, K. Lopata, S. A. Fischer, S. Krishnamoorthy,
     M. Jacquelin, W. Ma, M. Klemm, O. Villa, Y. Chen, V. Anisimov, F. Aquino,
    S. Hirata, M. T. Hackler, Eric Hermes, L. Jensen, J. E. Moore, J. C. Becca,
      V. Konjkov, T. Risthaus, M. Malagoli, A. Marenich, A. Otero-de-la-Roza,
        J. Mullin, P. Nichols, R. Peverati, J. Pittner, Y. Zhao, P.-D. Fan,
        A. Fonari, M. J. Williamson, R. J. Harrison, J. R. Rehr, M. Dupuis,
     D. Silverstein, D. M. A. Smith, J. Nieplocha, V. Tipparaju, M. Krishnan,
     B. E. Van Kuiken, A. Vazquez-Mayagoitia, M. Swart, Q. Wu, T. Van Voorhis,
     A. A. Auer, M. Nooijen, L. D. Crosby, E. Brown, G. Cisneros, G. I. Fann,
   H. Fruchtl, J. Garza, K. Hirao, R. A. Kendall, J. A. Nichols, K. Tsemekhman,
    K. Wolinski, J. Anchell, D. E. Bernholdt, P. Borowski, T. Clark, D. Clerc,
   H. Dachsel, M. J. O. Deegan, K. Dyall, D. Elwood, E. Glendening, M. Gutowski,
   A. C. Hess, J. Jaffe, B. G. Johnson, J. Ju, R. Kobayashi, R. Kutteh, Z. Lin,
   R. Littlefield, X. Long, B. Meng, T. Nakajima, S. Niu, L. Pollack, M. Rosing,
   K. Glaesemann, G. Sandrone, M. Stave, H. Taylor, G. Thomas, J. H. van Lenthe,
                               A. T. Wong, Z. Zhang.

 Total times  cpu:       35.9s     wall:       39.6s
