 argument  1 = input.nw
  NWChem w/ OpenMP: maximum threads =    1



============================== echo of input deck ==============================
 echo
 start Li2
 title "Li2"

 memory total 24 gb

 geometry units bohr
 symmetry c1
        Li  0.00000000  0.00000000  0.00000000
        Li  0.00000000  10.3  0.00000000
 end

 basis
   * library cc-pVTZ
 end

 mcscf
   active  4
   actelec 6
   multiplicity 1
   maxiter 40
   vectors input Li2.mos
   vectors output Li2.mos
 end

 task mcscf

 scf
   vectors input Li2.mos
   vectors output Li2-10.3.mos
   noscf
 end

 tce
   2eorb
   2emet 13
   ccsd
   maxiter 300
   lshift 0.3
 end

 set tce:print_integrals T
 set tce:qorb 4
 set tce:qela 3
 set tce:qelb 3

# set tce:qducc T
# set tce:nactv 1
# set tce:nonhf T
# set tce:ducc_model 3

 set tce:printtol 0.02

 task tce
================================================================================


                                         
                                         


             Northwest Computational Chemistry Package (NWChem) 7.0.1
             --------------------------------------------------------


                    Environmental Molecular Sciences Laboratory
                       Pacific Northwest National Laboratory
                                Richland, WA 99352

                              Copyright (c) 1994-2020
                       Pacific Northwest National Laboratory
                            Battelle Memorial Institute

             NWChem is an open-source computational chemistry package
                        distributed under the terms of the
                      Educational Community License (ECL) 2.0
             A copy of the license is included with this distribution
                              in the LICENSE.TXT file

                                  ACKNOWLEDGMENT
                                  --------------

            This software and its documentation were developed at the
            EMSL at Pacific Northwest National Laboratory, a multiprogram
            national laboratory, operated for the U.S. Department of Energy
            by Battelle under Contract Number DE-AC05-76RL01830. Support
            for this work was provided by the Department of Energy Office
            of Biological and Environmental Research, Office of Basic
            Energy Sciences, and the Office of Advanced Scientific Computing.


           Job information
           ---------------

    hostname        = WE46210
    program         = /home/baum612/code/nwchem/bin/LINUX64/nwchem
    date            = Thu Nov 16 00:33:13 2023

    compiled        = Mon_Nov_06_10:06:57_2023
    source          = /home/baum612/code/nwchem
    nwchem branch   = 7.0.0
    nwchem revision = nwchem_on_git-4191-g39d87d64de
    ga revision     = 5.8.1
    use scalapack   = F
    input           = input.nw
    prefix          = Li2.
    data base       = ./Li2.db
    status          = startup
    nproc           =        1
    time left       =     -1s



           Memory information
           ------------------

    heap     =  805306362 doubles =   6144.0 Mbytes
    stack    =  805306367 doubles =   6144.0 Mbytes
    global   = 1610612736 doubles =  12288.0 Mbytes (distinct from heap & stack)
    total    = 3221225465 doubles =  24576.0 Mbytes
    verify   = yes
    hardfail = no 


           Directory information
           ---------------------

  0 permanent = .
  0 scratch   = .




                                NWChem Input Module
                                -------------------


                                        Li2
                                        ---
 Turning off AUTOSYM since
 SYMMETRY directive was detected!


          ------
          auto-z
          ------
     1 autoz failed with cvr_scaling = 1.2 changing to 1.3
     2 autoz failed with cvr_scaling = 1.3 changing to 1.4
     3 autoz failed with cvr_scaling = 1.4 changing to 1.5
     4 autoz failed with cvr_scaling = 1.5 changing to 1.6
     5 autoz failed with cvr_scaling = 1.6 changing to 1.7

 AUTOZ failed to generate good internal coordinates.
 Cartesian coordinates will be used in optimizations.



                             Geometry "geometry" -> ""
                             -------------------------

 Output coordinates in a.u. (scale by  1.000000000 to convert to a.u.)

  No.       Tag          Charge          X              Y              Z
 ---- ---------------- ---------- -------------- -------------- --------------
    1 Li                   3.0000     0.00000000    -5.15000000     0.00000000
    2 Li                   3.0000     0.00000000     5.15000000     0.00000000

      Atomic Mass 
      ----------- 

      Li                 7.016000


 Effective nuclear repulsion energy (a.u.)       0.8737864078

            Nuclear Dipole moment (a.u.) 
            ----------------------------
        X                 Y               Z
 ---------------- ---------------- ----------------
     0.0000000000     0.0000000000     0.0000000000


            XYZ format geometry
            -------------------
     2
 geometry
 Li                    0.00000000    -2.72526283     0.00000000
 Li                    0.00000000     2.72526283     0.00000000



 Summary of "ao basis" -> "" (cartesian)
 ------------------------------------------------------------------------------
       Tag                 Description            Shells   Functions and Types
 ---------------- ------------------------------  ------  ---------------------
 *                          cc-pVTZ                   on all atoms 


                      Basis "ao basis" -> "ao basis" (cartesian)
                      -----
  Li (Lithium)
  ------------
            Exponent  Coefficients 
       -------------- ---------------------------------------------------------
  1 S  5.98800000E+03  0.000133
  1 S  8.98900000E+02  0.001025
  1 S  2.05900000E+02  0.005272
  1 S  5.92400000E+01  0.020929
  1 S  1.98700000E+01  0.066340
  1 S  7.40600000E+00  0.165775
  1 S  2.93000000E+00  0.315038
  1 S  1.18900000E+00  0.393523
  1 S  4.79800000E-01  0.190870

  2 S  5.98800000E+03 -0.000021
  2 S  8.98900000E+02 -0.000161
  2 S  2.05900000E+02 -0.000820
  2 S  5.92400000E+01 -0.003326
  2 S  1.98700000E+01 -0.010519
  2 S  7.40600000E+00 -0.028097
  2 S  2.93000000E+00 -0.055936
  2 S  1.18900000E+00 -0.099237
  2 S  4.79800000E-01 -0.112189

  3 S  7.50900000E-02  1.000000

  4 S  2.83200000E-02  1.000000

  5 P  3.26600000E+00  0.008630
  5 P  6.51100000E-01  0.047538
  5 P  1.69600000E-01  0.209772

  6 P  5.57800000E-02  1.000000

  7 P  2.05000000E-02  1.000000

  8 D  1.87400000E-01  1.000000

  9 D  8.01000000E-02  1.000000

 10 F  1.82900000E-01  1.000000



 Summary of "ao basis" -> "ao basis" (cartesian)
 ------------------------------------------------------------------------------
       Tag                 Description            Shells   Functions and Types
 ---------------- ------------------------------  ------  ---------------------
 Li                         cc-pVTZ                 10       35   4s3p2d1f



                            NWChem Direct MCSCF Module
                            --------------------------


                                        Li2


     -----------------------------------
       Basis functions:             70
       Inactive shells:              0
       Active shells:                4
       Active electrons:             6
       Symmetry:                    a       
       Multiplicity:                 1
       Orbital rotations:          264
     -----------------------------------

     -----------------------------------
       E2 extrapolation:             F
       Conjugacy:                    T
       Micro CI relax:               T
       Canonical orbitals:           T
       Maximum iterations:          40
       Converge threshold:    1.00E-04
       Conjugacy resets:            20
       Initial levelshift:        0.10
     -----------------------------------

 Loading old vectors from job with title :

Li2


   input molecular orbitals = ./Li2.mos
  output molecular orbtials = ./Li2.mos

       No. of determinants:            16


  Starting Orbital Energies
    -2.478568    -2.478568    -0.122746    -0.072539     0.026361     0.026361
     0.032183     0.042611     0.042611     0.048298     0.102487     0.109856
     0.117348     0.117348     0.124388     0.124388     0.126085     0.138200
     0.205716     0.205716     0.222966     0.222966     0.231611     0.234291
     0.234291     0.267213     0.267213     0.311934     0.360787     0.360787
     0.374173     0.374173     0.374917     0.396612     0.397107     0.458134
     0.711357     0.711357     0.724433     0.724433     0.734240     0.734240
     0.738103     0.738103     0.738256     0.739145     0.750903     0.750903
     0.751462     0.751462     0.751721     0.751721     0.752146     0.752146
     0.754571     0.754571     0.762034     0.790352     0.790352     0.874576
     0.928509     0.928509     0.935811     0.935811     0.955953     0.965076
     1.355173     1.378499     6.353519     6.369643

  Orbital Symmetry Irreps
a    a    a    a    a    a    a    a    a    a    a    a    a    a    a   
a    a    a    a    a    a    a    a    a    a    a    a    a    a    a   
a    a    a    a    a    a    a    a    a    a    a    a    a    a    a   
a    a    a    a    a    a    a    a    a    a    a    a    a    a    a   
a    a    a    a    a    a    a    a    a    a   

 Integral file          = ./Li2.aoints.0
 Record size in doubles =  65536        No. of integs per rec  =  43688
 Max. records in memory =     99        Max. records in file   = 280040
 No. of bits per label  =      8        No. of bits per value  =     64


 #quartets = 2.122D+04 #integrals = 8.138D+05 #direct =  0.0% #cached =100.0%




          %%%%% MacroIteration   1 %%%%%


          Number of sigma calls:        5
                       o<<<<< (aa):             0.00
                       o<<<<< (bb):             0.00
                       o<<<<< (ab):             0.00
                       o<<<<< (total)           0.00
                       o<<<<< (aa) ff           0.00
                       o<<<<< (aa) gop          0.00
                       o<<<<< (aa) dot          0.00
                       o<<<<< (ab) str          0.00
                       o<<<<< (ab) gath         0.00
                       o<<<<< (ab) dotab        0.00
                       o<<<<< (ab) scat         0.00
                       o<<<<< (ab) sync         0.00
                       o<<<<< Density           0.00
                       o<<<<< Density one       0.00
                       o<<<<< Density two       0.00
                       o<<<<< Density ab        0.00
                       o<<<<< Spin adapt        0.00
                       o<<<<< Symm adapt        0.00

                       o<<<<< (ab) max sync:      0.00

           >>>| Valence CI:            -15.740311843863
           >>>| MCSCF energy:          -14.866525436096
           >>>| Gradient norm:          0.645083062D-03
     --- Warning:   16 Hessian diagonals < 0.05 ---

                              ----- Line search ------

        step       energy         lsg     num-lsg   num-lsh   lsrat    time
      ------- ---------------- --------- --------- --------- ------- --------
       0.0000     -14.86652544 -4.54D-07  0.00D+00  0.00D+00 0.0D+00      0.6

          Number of sigma calls:        4
                       o<<<<< (aa):             0.00
                       o<<<<< (bb):             0.00
                       o<<<<< (ab):             0.00
                       o<<<<< (total)           0.00
                       o<<<<< (aa) ff           0.00
                       o<<<<< (aa) gop          0.00
                       o<<<<< (aa) dot          0.00
                       o<<<<< (ab) str          0.00
                       o<<<<< (ab) gath         0.00
                       o<<<<< (ab) dotab        0.00
                       o<<<<< (ab) scat         0.00
                       o<<<<< (ab) sync         0.00
                       o<<<<< Density           0.00
                       o<<<<< Density one       0.00
                       o<<<<< Density two       0.00
                       o<<<<< Density ab        0.00
                       o<<<<< Spin adapt        0.00
                       o<<<<< Symm adapt        0.00

                       o<<<<< (ab) max sync:      0.00
       1.0000     -14.86652569 -5.22D-08 -5.22D-08  4.01D-07 1.2D-01      0.7

          Number of sigma calls:        3
                       o<<<<< (aa):             0.00
                       o<<<<< (bb):             0.00
                       o<<<<< (ab):             0.00
                       o<<<<< (total)           0.00
                       o<<<<< (aa) ff           0.00
                       o<<<<< (aa) gop          0.00
                       o<<<<< (aa) dot          0.00
                       o<<<<< (ab) str          0.00
                       o<<<<< (ab) gath         0.00
                       o<<<<< (ab) dotab        0.00
                       o<<<<< (ab) scat         0.00
                       o<<<<< (ab) sync         0.00
                       o<<<<< Density           0.00
                       o<<<<< Density one       0.00
                       o<<<<< Density two       0.00
                       o<<<<< Density ab        0.00
                       o<<<<< Spin adapt        0.00
                       o<<<<< Symm adapt        0.00

                       o<<<<< (ab) max sync:      0.00
       1.1300     -14.86652569 -1.30D-13  1.05D-12  4.01D-07 2.9D-07      0.7
     --- Orbitals canonicalized ---



          %%%%% MacroIteration   2 %%%%%


          Number of sigma calls:        5
                       o<<<<< (aa):             0.00
                       o<<<<< (bb):             0.00
                       o<<<<< (ab):             0.00
                       o<<<<< (total)           0.00
                       o<<<<< (aa) ff           0.00
                       o<<<<< (aa) gop          0.00
                       o<<<<< (aa) dot          0.00
                       o<<<<< (ab) str          0.00
                       o<<<<< (ab) gath         0.00
                       o<<<<< (ab) dotab        0.00
                       o<<<<< (ab) scat         0.00
                       o<<<<< (ab) sync         0.00
                       o<<<<< Density           0.00
                       o<<<<< Density one       0.00
                       o<<<<< Density two       0.00
                       o<<<<< Density ab        0.00
                       o<<<<< Spin adapt        0.00
                       o<<<<< Symm adapt        0.00

                       o<<<<< (ab) max sync:      0.00

           >>>| Valence CI:            -15.740312100176
           >>>| MCSCF energy:          -14.866525692409
           >>>| Gradient norm:          0.677967101D-04




     ==============================
            MCSCF Converged
     ==============================



          Canonical Eigenvalues

              1      
    1   -2.4785
    2   -2.4785
    3   -0.1218
    4   -0.0735
    5    0.0264
    6    0.0264
    7    0.0321
    8    0.0424
    9    0.0424
   10    0.0482
   11    0.1024
   12    0.1101
   13    0.1175
   14    0.1175
   15    0.1242
   16    0.1242
   17    0.1255
   18    0.1377
   19    0.2060
   20    0.2060
   21    0.2232
   22    0.2232
   23    0.2299
   24    0.2339
   25    0.2339
   26    0.2658
   27    0.2658
   28    0.3106
   29    0.3607
   30    0.3607
   31    0.3734
   32    0.3740
   33    0.3740
   34    0.3964
   35    0.3971
   36    0.4567
   37    0.7115
   38    0.7115
   39    0.7247
   40    0.7247
   41    0.7341
   42    0.7341
   43    0.7383
   44    0.7383
   45    0.7385
   46    0.7387
   47    0.7510
   48    0.7510
   49    0.7515
   50    0.7515
   51    0.7517
   52    0.7517
   53    0.7523
   54    0.7523
   55    0.7542
   56    0.7542
   57    0.7604
   58    0.7876
   59    0.7876
   60    0.8693
   61    0.9283
   62    0.9283
   63    0.9357
   64    0.9357
   65    0.9549
   66    0.9648
   67    1.3545
   68    1.3781
   69    6.3538
   70    6.3693


          Converged CI vector

   Index           Coefficient          Config. Occupation
         1         -0.80474394          1  2  3  1  2  3
         6          0.59362113          1  2  4  1  2  4

          Number of sigma calls:        1
                       o<<<<< (aa):             0.00
                       o<<<<< (bb):             0.00
                       o<<<<< (ab):             0.00
                       o<<<<< (total)           0.00
                       o<<<<< (aa) ff           0.00
                       o<<<<< (aa) gop          0.00
                       o<<<<< (aa) dot          0.00
                       o<<<<< (ab) str          0.00
                       o<<<<< (ab) gath         0.00
                       o<<<<< (ab) dotab        0.00
                       o<<<<< (ab) scat         0.00
                       o<<<<< (ab) sync         0.00
                       o<<<<< Density           0.00
                       o<<<<< Density one       0.00
                       o<<<<< Density two       0.00
                       o<<<<< Density ab        0.00
                       o<<<<< Spin adapt        0.00
                       o<<<<< Symm adapt        0.00

                       o<<<<< (ab) max sync:      0.00



          Natural orbital occupation numbers

              1      
    1    2.0000
    2    2.0000
    3    1.2952
    4    0.7048


          Number of sigma calls:        5
                       o<<<<< (aa):             0.00
                       o<<<<< (bb):             0.00
                       o<<<<< (ab):             0.00
                       o<<<<< (total)           0.00
                       o<<<<< (aa) ff           0.00
                       o<<<<< (aa) gop          0.00
                       o<<<<< (aa) dot          0.00
                       o<<<<< (ab) str          0.00
                       o<<<<< (ab) gath         0.00
                       o<<<<< (ab) dotab        0.00
                       o<<<<< (ab) scat         0.00
                       o<<<<< (ab) sync         0.00
                       o<<<<< Density           0.00
                       o<<<<< Density one       0.00
                       o<<<<< Density two       0.00
                       o<<<<< Density ab        0.00
                       o<<<<< Spin adapt        0.00
                       o<<<<< Symm adapt        0.00

                       o<<<<< (ab) max sync:      0.00


       Final MCSCF results 
       ------------------- 

       Total MCSCF energy =    -14.866525692409
            Gradient norm =      6.8D-05

    CPU time for solution =      0.9s
   Wall time for solution =      1.0s



                        Analysis of MCSCF natural orbitals
                        ----------------------------------

 Vector    1  Occ=2.000000D+00  E=-2.478549D+00  Symmetry=a
              MO Center=  2.7D-13, -9.0D-08, -5.0D-14, r^2= 7.6D+00
   Bfn.  Coefficient  Atom+Function         Bfn.  Coefficient  Atom+Function  
  ----- ------------  ---------------      ----- ------------  ---------------
     1      0.704566  1 Li s                 36      0.704566  2 Li s          

 Vector    2  Occ=2.000000D+00  E=-2.478549D+00  Symmetry=a
              MO Center=  2.3D-13,  9.0D-08,  8.5D-14, r^2= 7.6D+00
   Bfn.  Coefficient  Atom+Function         Bfn.  Coefficient  Atom+Function  
  ----- ------------  ---------------      ----- ------------  ---------------
     1      0.704548  1 Li s                 36     -0.704548  2 Li s          

 Vector    3  Occ=1.295227D+00  E=-1.218478D-01  Symmetry=a
              MO Center=  9.8D-13, -6.6D-12, -2.7D-12, r^2= 1.2D+01
   Bfn.  Coefficient  Atom+Function         Bfn.  Coefficient  Atom+Function  
  ----- ------------  ---------------      ----- ------------  ---------------
     3      0.368417  1 Li s                  4      0.367711  1 Li s          
    38      0.368417  2 Li s                 39      0.367711  2 Li s          
     2      0.182710  1 Li s                 37      0.182710  2 Li s          

 Vector    4  Occ=7.047739D-01  E=-7.351146D-02  Symmetry=a
              MO Center=  2.6D-12, -1.4D-11,  8.3D-13, r^2= 1.3D+01
   Bfn.  Coefficient  Atom+Function         Bfn.  Coefficient  Atom+Function  
  ----- ------------  ---------------      ----- ------------  ---------------
     3      0.447831  1 Li s                 38     -0.447831  2 Li s          
     4      0.380048  1 Li s                 39     -0.380048  2 Li s          
     2      0.205287  1 Li s                 37     -0.205287  2 Li s          

 Vector    5  Occ=0.000000D+00  E= 2.639947D-02  Symmetry=a
              MO Center= -3.3D-12,  3.9D-11,  4.3D-12, r^2= 2.3D+01
   Bfn.  Coefficient  Atom+Function         Bfn.  Coefficient  Atom+Function  
  ----- ------------  ---------------      ----- ------------  ---------------
    13      0.523932  1 Li pz                48      0.523932  2 Li pz         
    11     -0.375145  1 Li px                46     -0.375145  2 Li px         

 Vector    6  Occ=0.000000D+00  E= 2.639947D-02  Symmetry=a
              MO Center= -1.4D-13,  3.9D-11,  2.6D-13, r^2= 2.3D+01
   Bfn.  Coefficient  Atom+Function         Bfn.  Coefficient  Atom+Function  
  ----- ------------  ---------------      ----- ------------  ---------------
    11      0.523932  1 Li px                46      0.523932  2 Li px         
    13      0.375145  1 Li pz                48      0.375145  2 Li pz         

 Vector    7  Occ=0.000000D+00  E= 3.208571D-02  Symmetry=a
              MO Center= -5.0D-13,  1.4D-10,  1.9D-13, r^2= 2.7D+01
   Bfn.  Coefficient  Atom+Function         Bfn.  Coefficient  Atom+Function  
  ----- ------------  ---------------      ----- ------------  ---------------
    12      0.648003  1 Li py                47     -0.648003  2 Li py         
     4     -0.381800  1 Li s                 39     -0.381800  2 Li s          

 Vector    8  Occ=0.000000D+00  E= 4.242368D-02  Symmetry=a
              MO Center= -3.6D-13, -3.7D-11, -4.2D-13, r^2= 2.9D+01
   Bfn.  Coefficient  Atom+Function         Bfn.  Coefficient  Atom+Function  
  ----- ------------  ---------------      ----- ------------  ---------------
    13      0.939357  1 Li pz                48     -0.939357  2 Li pz         
    10     -0.157345  1 Li pz                45      0.157345  2 Li pz         

 Vector    9  Occ=0.000000D+00  E= 4.242368D-02  Symmetry=a
              MO Center= -9.4D-12, -3.7D-11,  3.7D-13, r^2= 2.9D+01
   Bfn.  Coefficient  Atom+Function         Bfn.  Coefficient  Atom+Function  
  ----- ------------  ---------------      ----- ------------  ---------------
    11      0.939357  1 Li px                46     -0.939357  2 Li px         
     8     -0.157345  1 Li px                43      0.157345  2 Li px         

 Vector   10  Occ=0.000000D+00  E= 4.824823D-02  Symmetry=a
              MO Center=  4.8D-12, -1.1D-10,  7.6D-13, r^2= 4.5D+01
   Bfn.  Coefficient  Atom+Function         Bfn.  Coefficient  Atom+Function  
  ----- ------------  ---------------      ----- ------------  ---------------
    12      1.455956  1 Li py                47      1.455956  2 Li py         
     4      0.776292  1 Li s                 39     -0.776292  2 Li s          
     9     -0.291509  1 Li py                44     -0.291509  2 Li py         

 Vector   11  Occ=0.000000D+00  E= 1.023843D-01  Symmetry=a
              MO Center= -5.1D-12,  1.7D-11,  2.0D-13, r^2= 2.4D+01
   Bfn.  Coefficient  Atom+Function         Bfn.  Coefficient  Atom+Function  
  ----- ------------  ---------------      ----- ------------  ---------------
     4      1.852004  1 Li s                 39      1.852004  2 Li s          
     3     -1.470685  1 Li s                 38     -1.470685  2 Li s          
    23     -0.457010  1 Li dyy               58     -0.457010  2 Li dyy        
    20     -0.335446  1 Li dxx               25     -0.335446  1 Li dzz        
    55     -0.335446  2 Li dxx               60     -0.335446  2 Li dzz        

 Vector   12  Occ=0.000000D+00  E= 1.100846D-01  Symmetry=a
              MO Center= -4.0D-13,  4.0D-11,  2.6D-13, r^2= 2.3D+01
   Bfn.  Coefficient  Atom+Function         Bfn.  Coefficient  Atom+Function  
  ----- ------------  ---------------      ----- ------------  ---------------
     9      1.251321  1 Li py                44     -1.251321  2 Li py         
    12     -0.966242  1 Li py                47      0.966242  2 Li py         
     3      0.157076  1 Li s                 38      0.157076  2 Li s          
    23      0.152302  1 Li dyy               58      0.152302  2 Li dyy        

 Vector   13  Occ=0.000000D+00  E= 1.174699D-01  Symmetry=a
              MO Center=  2.0D-12,  9.6D-11, -4.2D-12, r^2= 2.1D+01
   Bfn.  Coefficient  Atom+Function         Bfn.  Coefficient  Atom+Function  
  ----- ------------  ---------------      ----- ------------  ---------------
    10      1.076176  1 Li pz                45      1.076176  2 Li pz         
    13     -0.671576  1 Li pz                48     -0.671576  2 Li pz         
     8     -0.608508  1 Li px                43     -0.608508  2 Li px         
    11      0.379733  1 Li px                46      0.379733  2 Li px         

 Vector   14  Occ=0.000000D+00  E= 1.174699D-01  Symmetry=a
              MO Center=  3.9D-12,  9.6D-11,  2.6D-12, r^2= 2.1D+01
   Bfn.  Coefficient  Atom+Function         Bfn.  Coefficient  Atom+Function  
  ----- ------------  ---------------      ----- ------------  ---------------
     8      1.076176  1 Li px                43      1.076176  2 Li px         
    11     -0.671576  1 Li px                46     -0.671576  2 Li px         
    10      0.608508  1 Li pz                45      0.608508  2 Li pz         
    13     -0.379733  1 Li pz                48     -0.379733  2 Li pz         


 Wrote Lagrangian and 1- and 2-particle density matrices to ./Li2.mcpdm


     Multipole analysis of the density
     ---------------------------------

     L   x y z        total        nuclear
     -   - - -        -----        -------
     0   0 0 0     -0.000000      6.000000

     1   1 0 0     -0.000000      0.000000
     1   0 1 0      0.000000      0.000000
     1   0 0 1      0.000000      0.000000

     2   2 0 0    -12.488342      0.000000
     2   1 1 0     -0.000000      0.000000
     2   1 0 1     -0.000000      0.000000
     2   0 2 0    -10.376381    159.135000
     2   0 1 1      0.000000      0.000000
     2   0 0 2    -12.488342      0.000000


  Mulliken analysis of the total density
  --------------------------------------

    Atom       Charge   Shell Charges
 -----------   ------   -------------------------------------------------------
    1 Li   3     3.00   1.99 -0.01  0.51  0.51  0.00 -0.00  0.00 -0.00 -0.00 -0.00
    2 Li   3     3.00   1.99 -0.01  0.51  0.51  0.00 -0.00  0.00 -0.00 -0.00 -0.00

    Mulliken analysis of the active space density
    ---------------------------------------------

    Atom       Charge   Shell Charges
 -----------   ------   -------------------------------------------------------
    1 Li   3     3.00   1.99 -0.01  0.51  0.51  0.00 -0.00  0.00 -0.00 -0.00 -0.00
    2 Li   3     3.00   1.99 -0.01  0.51  0.51  0.00 -0.00  0.00 -0.00 -0.00 -0.00

 Parallel integral file used      19 records with       0 large values


 Task  times  cpu:        0.9s     wall:        1.1s


                                NWChem Input Module
                                -------------------


                                 NWChem SCF Module
                                 -----------------


                                        Li2



  ao basis        = "ao basis"
  functions       =    70
  atoms           =     2
  closed shells   =     3
  open shells     =     0
  charge          =   0.00
  wavefunction    = RHF 
  input vectors   = ./Li2.mos
  output vectors  = ./Li2-10.3.mos
  use symmetry    = F
  symmetry adapt  = F


 Summary of "ao basis" -> "ao basis" (cartesian)
 ------------------------------------------------------------------------------
       Tag                 Description            Shells   Functions and Types
 ---------------- ------------------------------  ------  ---------------------
 Li                         cc-pVTZ                 10       35   4s3p2d1f



 Forming initial guess at       1.1s


 Loading old vectors from job with title :

Li2


 Starting SCF solution at       1.1s



 ----------------------------------------------
         Quadratically convergent ROHF

 Convergence threshold     :          1.000E-04
 Maximum no. of iterations :           30
 Final Fock-matrix accuracy:          1.000E-07
 ----------------------------------------------


 Integral file          = ./Li2.aoints.0
 Record size in doubles =  65536        No. of integs per rec  =  43688
 Max. records in memory =     99        Max. records in file   = 280089
 No. of bits per label  =      8        No. of bits per value  =     64


 #quartets = 2.115D+04 #integrals = 8.030D+05 #direct =  0.0% #cached =100.0%



       Final RHF  results 
       ------------------ 

         Total SCF energy =    -14.815416589472
      One-electron energy =    -21.169244713897
      Two-electron energy =      5.480041716658
 Nuclear repulsion energy =      0.873786407767

        Time for solution =      0.1s


             Final eigenvalues
             -----------------

              1      
    1   -2.4785
    2   -2.4785
    3   -0.1218
    4   -0.0735
    5    0.0264
    6    0.0264
    7    0.0321
    8    0.0424
    9    0.0424
   10    0.0482
   11    0.1024
   12    0.1101
   13    0.1175

                       ROHF Final Molecular Orbital Analysis
                       -------------------------------------

 Vector    2  Occ=2.000000D+00  E=-2.478549D+00
              MO Center=  2.3D-13,  9.0D-08,  8.5D-14, r^2= 7.6D+00
   Bfn.  Coefficient  Atom+Function         Bfn.  Coefficient  Atom+Function  
  ----- ------------  ---------------      ----- ------------  ---------------
     1      0.704548  1 Li s                 36     -0.704548  2 Li s          

 Vector    3  Occ=2.000000D+00  E=-1.218478D-01
              MO Center=  9.8D-13, -6.6D-12, -2.7D-12, r^2= 1.2D+01
   Bfn.  Coefficient  Atom+Function         Bfn.  Coefficient  Atom+Function  
  ----- ------------  ---------------      ----- ------------  ---------------
     3      0.368417  1 Li s                  4      0.367711  1 Li s          
    38      0.368417  2 Li s                 39      0.367711  2 Li s          
     2      0.182710  1 Li s                 37      0.182710  2 Li s          

 Vector    4  Occ=0.000000D+00  E=-7.351146D-02
              MO Center=  2.6D-12, -1.4D-11,  8.3D-13, r^2= 1.3D+01
   Bfn.  Coefficient  Atom+Function         Bfn.  Coefficient  Atom+Function  
  ----- ------------  ---------------      ----- ------------  ---------------
     3      0.447831  1 Li s                 38     -0.447831  2 Li s          
     4      0.380048  1 Li s                 39     -0.380048  2 Li s          
     2      0.205287  1 Li s                 37     -0.205287  2 Li s          

 Vector    5  Occ=0.000000D+00  E= 2.639947D-02
              MO Center= -3.3D-12,  3.9D-11,  4.3D-12, r^2= 2.3D+01
   Bfn.  Coefficient  Atom+Function         Bfn.  Coefficient  Atom+Function  
  ----- ------------  ---------------      ----- ------------  ---------------
    13      0.523932  1 Li pz                48      0.523932  2 Li pz         
    11     -0.375145  1 Li px                46     -0.375145  2 Li px         

 Vector    6  Occ=0.000000D+00  E= 2.639947D-02
              MO Center= -1.4D-13,  3.9D-11,  2.6D-13, r^2= 2.3D+01
   Bfn.  Coefficient  Atom+Function         Bfn.  Coefficient  Atom+Function  
  ----- ------------  ---------------      ----- ------------  ---------------
    11      0.523932  1 Li px                46      0.523932  2 Li px         
    13      0.375145  1 Li pz                48      0.375145  2 Li pz         

 Vector    7  Occ=0.000000D+00  E= 3.208571D-02
              MO Center= -5.0D-13,  1.4D-10,  1.9D-13, r^2= 2.7D+01
   Bfn.  Coefficient  Atom+Function         Bfn.  Coefficient  Atom+Function  
  ----- ------------  ---------------      ----- ------------  ---------------
    12      0.648003  1 Li py                47     -0.648003  2 Li py         
     4     -0.381800  1 Li s                 39     -0.381800  2 Li s          

 Vector    8  Occ=0.000000D+00  E= 4.242368D-02
              MO Center= -3.6D-13, -3.7D-11, -4.2D-13, r^2= 2.9D+01
   Bfn.  Coefficient  Atom+Function         Bfn.  Coefficient  Atom+Function  
  ----- ------------  ---------------      ----- ------------  ---------------
    13      0.939357  1 Li pz                48     -0.939357  2 Li pz         
    10     -0.157345  1 Li pz                45      0.157345  2 Li pz         

 Vector    9  Occ=0.000000D+00  E= 4.242368D-02
              MO Center= -9.4D-12, -3.7D-11,  3.7D-13, r^2= 2.9D+01
   Bfn.  Coefficient  Atom+Function         Bfn.  Coefficient  Atom+Function  
  ----- ------------  ---------------      ----- ------------  ---------------
    11      0.939357  1 Li px                46     -0.939357  2 Li px         
     8     -0.157345  1 Li px                43      0.157345  2 Li px         

 Vector   10  Occ=0.000000D+00  E= 4.824823D-02
              MO Center=  4.8D-12, -1.1D-10,  7.6D-13, r^2= 4.5D+01
   Bfn.  Coefficient  Atom+Function         Bfn.  Coefficient  Atom+Function  
  ----- ------------  ---------------      ----- ------------  ---------------
    12      1.455956  1 Li py                47      1.455956  2 Li py         
     4      0.776292  1 Li s                 39     -0.776292  2 Li s          
     9     -0.291509  1 Li py                44     -0.291509  2 Li py         

 Vector   11  Occ=0.000000D+00  E= 1.023843D-01
              MO Center= -5.1D-12,  1.7D-11,  2.0D-13, r^2= 2.4D+01
   Bfn.  Coefficient  Atom+Function         Bfn.  Coefficient  Atom+Function  
  ----- ------------  ---------------      ----- ------------  ---------------
     4      1.852004  1 Li s                 39      1.852004  2 Li s          
     3     -1.470685  1 Li s                 38     -1.470685  2 Li s          
    23     -0.457010  1 Li dyy               58     -0.457010  2 Li dyy        
    20     -0.335446  1 Li dxx               25     -0.335446  1 Li dzz        
    55     -0.335446  2 Li dxx               60     -0.335446  2 Li dzz        

 Vector   12  Occ=0.000000D+00  E= 1.100846D-01
              MO Center= -4.0D-13,  4.0D-11,  2.6D-13, r^2= 2.3D+01
   Bfn.  Coefficient  Atom+Function         Bfn.  Coefficient  Atom+Function  
  ----- ------------  ---------------      ----- ------------  ---------------
     9      1.251321  1 Li py                44     -1.251321  2 Li py         
    12     -0.966242  1 Li py                47      0.966242  2 Li py         
     3      0.157076  1 Li s                 38      0.157076  2 Li s          
    23      0.152302  1 Li dyy               58      0.152302  2 Li dyy        

 Vector   13  Occ=0.000000D+00  E= 1.174699D-01
              MO Center=  2.0D-12,  9.6D-11, -4.2D-12, r^2= 2.1D+01
   Bfn.  Coefficient  Atom+Function         Bfn.  Coefficient  Atom+Function  
  ----- ------------  ---------------      ----- ------------  ---------------
    10      1.076176  1 Li pz                45      1.076176  2 Li pz         
    13     -0.671576  1 Li pz                48     -0.671576  2 Li pz         
     8     -0.608508  1 Li px                43     -0.608508  2 Li px         
    11      0.379733  1 Li px                46      0.379733  2 Li px         

 Vector   14  Occ=0.000000D+00  E= 1.174699D-01
              MO Center=  3.9D-12,  9.6D-11,  2.6D-12, r^2= 2.1D+01
   Bfn.  Coefficient  Atom+Function         Bfn.  Coefficient  Atom+Function  
  ----- ------------  ---------------      ----- ------------  ---------------
     8      1.076176  1 Li px                43      1.076176  2 Li px         
    11     -0.671576  1 Li px                46     -0.671576  2 Li px         
    10      0.608508  1 Li pz                45      0.608508  2 Li pz         
    13     -0.379733  1 Li pz                48     -0.379733  2 Li pz         

 Vector   15  Occ=0.000000D+00  E= 1.242138D-01
              MO Center= -5.1D-12, -9.4D-11,  8.0D-12, r^2= 2.3D+01
   Bfn.  Coefficient  Atom+Function         Bfn.  Coefficient  Atom+Function  
  ----- ------------  ---------------      ----- ------------  ---------------
    10      1.089341  1 Li pz                45     -1.089341  2 Li pz         
    13     -0.891616  1 Li pz                48      0.891616  2 Li pz         
     8     -0.646895  1 Li px                43      0.646895  2 Li px         
    11      0.529477  1 Li px                46     -0.529477  2 Li px         

 Vector   16  Occ=0.000000D+00  E= 1.242138D-01
              MO Center= -3.6D-12, -9.4D-11, -1.7D-12, r^2= 2.3D+01
   Bfn.  Coefficient  Atom+Function         Bfn.  Coefficient  Atom+Function  
  ----- ------------  ---------------      ----- ------------  ---------------
     8      1.089341  1 Li px                43     -1.089341  2 Li px         
    11     -0.891616  1 Li px                46      0.891616  2 Li px         
    10      0.646895  1 Li pz                45     -0.646895  2 Li pz         
    13     -0.529477  1 Li pz                48      0.529477  2 Li pz         

 Vector   17  Occ=0.000000D+00  E= 1.254984D-01
              MO Center=  6.8D-12, -3.9D-11, -5.7D-12, r^2= 2.1D+01
   Bfn.  Coefficient  Atom+Function         Bfn.  Coefficient  Atom+Function  
  ----- ------------  ---------------      ----- ------------  ---------------
     4      1.531563  1 Li s                 39     -1.531563  2 Li s          
     3     -0.982209  1 Li s                 38      0.982209  2 Li s          
     9      0.938017  1 Li py                44      0.938017  2 Li py         
    23     -0.321249  1 Li dyy               58      0.321249  2 Li dyy        
    12     -0.212868  1 Li py                47     -0.212868  2 Li py         

 Vector   18  Occ=0.000000D+00  E= 1.376821D-01
              MO Center=  1.1D-12, -1.8D-11, -9.9D-13, r^2= 2.5D+01
   Bfn.  Coefficient  Atom+Function         Bfn.  Coefficient  Atom+Function  
  ----- ------------  ---------------      ----- ------------  ---------------
     4      3.204968  1 Li s                 39     -3.204968  2 Li s          
     3     -1.739627  1 Li s                 38      1.739627  2 Li s          
    12      1.477093  1 Li py                47      1.477093  2 Li py         
     9     -0.732084  1 Li py                44     -0.732084  2 Li py         
    20     -0.430322  1 Li dxx               25     -0.430322  1 Li dzz        

 Vector   19  Occ=0.000000D+00  E= 2.060335D-01
              MO Center= -9.9D-14,  1.2D-11, -2.1D-13, r^2= 1.4D+01
   Bfn.  Coefficient  Atom+Function         Bfn.  Coefficient  Atom+Function  
  ----- ------------  ---------------      ----- ------------  ---------------
    24      1.339679  1 Li dyz               59     -1.339679  2 Li dyz        
    18     -0.283578  1 Li dyz               53      0.283578  2 Li dyz        

 Vector   20  Occ=0.000000D+00  E= 2.060335D-01
              MO Center=  5.1D-13,  1.2D-11,  9.3D-14, r^2= 1.4D+01
   Bfn.  Coefficient  Atom+Function         Bfn.  Coefficient  Atom+Function  
  ----- ------------  ---------------      ----- ------------  ---------------
    21      1.339679  1 Li dxy               56     -1.339679  2 Li dxy        
    15     -0.283578  1 Li dxy               50      0.283578  2 Li dxy        

 Vector   21  Occ=0.000000D+00  E= 2.232355D-01
              MO Center=  5.9D-13,  7.5D-11, -1.3D-13, r^2= 1.4D+01
   Bfn.  Coefficient  Atom+Function         Bfn.  Coefficient  Atom+Function  
  ----- ------------  ---------------      ----- ------------  ---------------
    20      0.705465  1 Li dxx               25     -0.705465  1 Li dzz        
    55      0.705465  2 Li dxx               60     -0.705465  2 Li dzz        

 Vector   22  Occ=0.000000D+00  E= 2.232355D-01
              MO Center=  5.9D-13,  7.5D-11, -1.3D-13, r^2= 1.4D+01
   Bfn.  Coefficient  Atom+Function         Bfn.  Coefficient  Atom+Function  
  ----- ------------  ---------------      ----- ------------  ---------------
    22      1.410930  1 Li dxz               57      1.410930  2 Li dxz        
    16     -0.289827  1 Li dxz               51     -0.289827  2 Li dxz        

 Vector   23  Occ=0.000000D+00  E= 2.298790D-01
              MO Center=  1.2D-13,  4.3D-12, -2.9D-14, r^2= 1.6D+01
   Bfn.  Coefficient  Atom+Function         Bfn.  Coefficient  Atom+Function  
  ----- ------------  ---------------      ----- ------------  ---------------
    23      0.726685  1 Li dyy               58      0.726685  2 Li dyy        
     9     -0.453198  1 Li py                44      0.453198  2 Li py         
    20     -0.362169  1 Li dxx               25     -0.362169  1 Li dzz        
    55     -0.362169  2 Li dxx               60     -0.362169  2 Li dzz        
    12      0.323825  1 Li py                47     -0.323825  2 Li py         

 Vector   24  Occ=0.000000D+00  E= 2.339256D-01
              MO Center=  5.6D-13, -7.4D-11, -1.3D-13, r^2= 1.4D+01
   Bfn.  Coefficient  Atom+Function         Bfn.  Coefficient  Atom+Function  
  ----- ------------  ---------------      ----- ------------  ---------------
    22      1.424732  1 Li dxz               57     -1.424732  2 Li dxz        
    16     -0.276128  1 Li dxz               51      0.276128  2 Li dxz        

 Vector   25  Occ=0.000000D+00  E= 2.339256D-01
              MO Center=  5.7D-13, -7.5D-11, -1.3D-13, r^2= 1.4D+01
   Bfn.  Coefficient  Atom+Function         Bfn.  Coefficient  Atom+Function  
  ----- ------------  ---------------      ----- ------------  ---------------
    20      0.712366  1 Li dxx               25     -0.712366  1 Li dzz        
    55     -0.712366  2 Li dxx               60      0.712366  2 Li dzz        

 Vector   26  Occ=0.000000D+00  E= 2.657903D-01
              MO Center= -1.1D-13, -1.4D-11, -1.9D-13, r^2= 1.5D+01
   Bfn.  Coefficient  Atom+Function         Bfn.  Coefficient  Atom+Function  
  ----- ------------  ---------------      ----- ------------  ---------------
    24      1.500631  1 Li dyz               59      1.500631  2 Li dyz        
    18     -0.252237  1 Li dyz               53     -0.252237  2 Li dyz        
    13      0.240543  1 Li pz                48     -0.240543  2 Li pz         

 Vector   27  Occ=0.000000D+00  E= 2.657903D-01
              MO Center=  5.5D-13, -1.4D-11,  8.7D-14, r^2= 1.5D+01
   Bfn.  Coefficient  Atom+Function         Bfn.  Coefficient  Atom+Function  
  ----- ------------  ---------------      ----- ------------  ---------------
    21      1.500631  1 Li dxy               56      1.500631  2 Li dxy        
    15     -0.252237  1 Li dxy               50     -0.252237  2 Li dxy        
    11      0.240543  1 Li px                46     -0.240543  2 Li px         

 Vector   28  Occ=0.000000D+00  E= 3.106156D-01
              MO Center= -1.5D-13, -1.8D-12,  4.9D-14, r^2= 1.9D+01
   Bfn.  Coefficient  Atom+Function         Bfn.  Coefficient  Atom+Function  
  ----- ------------  ---------------      ----- ------------  ---------------
     4      1.525568  1 Li s                 39     -1.525568  2 Li s          
    12      0.880878  1 Li py                47      0.880878  2 Li py         
    23      0.730143  1 Li dyy               58     -0.730143  2 Li dyy        
     3     -0.691238  1 Li s                 38      0.691238  2 Li s          
    20     -0.578254  1 Li dxx               25     -0.578254  1 Li dzz        

 Vector   29  Occ=0.000000D+00  E= 3.607339D-01
              MO Center= -1.7D-12,  5.3D-11,  3.6D-12, r^2= 1.5D+01
   Bfn.  Coefficient  Atom+Function         Bfn.  Coefficient  Atom+Function  
  ----- ------------  ---------------      ----- ------------  ---------------
    10      1.385975  1 Li pz                45      1.385975  2 Li pz         
     7     -0.591112  1 Li pz                42     -0.591112  2 Li pz         
     8     -0.551613  1 Li px                43     -0.551613  2 Li px         
    28     -0.489564  1 Li fxxz              35     -0.489564  1 Li fzzz       
    63     -0.489564  2 Li fxxz              70     -0.489564  2 Li fzzz       

 Vector   30  Occ=0.000000D+00  E= 3.607339D-01
              MO Center= -4.4D-12,  5.4D-11, -1.6D-12, r^2= 1.5D+01
   Bfn.  Coefficient  Atom+Function         Bfn.  Coefficient  Atom+Function  
  ----- ------------  ---------------      ----- ------------  ---------------
     8      1.385975  1 Li px                43      1.385975  2 Li px         
     5     -0.591112  1 Li px                40     -0.591112  2 Li px         
    10      0.551613  1 Li pz                45      0.551613  2 Li pz         
    26     -0.489564  1 Li fxxx              31     -0.489564  1 Li fxzz       
    61     -0.489564  2 Li fxxx              66     -0.489564  2 Li fxzz       

 Vector   31  Occ=0.000000D+00  E= 3.733856D-01
              MO Center=  3.6D-14,  1.6D-11, -1.4D-13, r^2= 1.4D+01
   Bfn.  Coefficient  Atom+Function         Bfn.  Coefficient  Atom+Function  
  ----- ------------  ---------------      ----- ------------  ---------------
     9      1.444879  1 Li py                44     -1.444879  2 Li py         
     6     -0.653056  1 Li py                41      0.653056  2 Li py         
    12     -0.558919  1 Li py                47      0.558919  2 Li py         
    27     -0.496998  1 Li fxxy              34     -0.496998  1 Li fyzz       
    62      0.496998  2 Li fxxy              69      0.496998  2 Li fyzz       

 Vector   32  Occ=0.000000D+00  E= 3.739559D-01
              MO Center= -1.3D-12, -5.3D-11,  2.5D-12, r^2= 1.5D+01
   Bfn.  Coefficient  Atom+Function         Bfn.  Coefficient  Atom+Function  
  ----- ------------  ---------------      ----- ------------  ---------------
    10      1.494219  1 Li pz                45     -1.494219  2 Li pz         
    13     -0.610243  1 Li pz                48      0.610243  2 Li pz         
     7     -0.607188  1 Li pz                 8     -0.609317  1 Li px         
    42      0.607188  2 Li pz                43      0.609317  2 Li px         
    33     -0.530019  1 Li fyyz              68      0.530019  2 Li fyyz       

 Vector   33  Occ=0.000000D+00  E= 3.739559D-01
              MO Center= -2.7D-12, -5.3D-11, -9.5D-13, r^2= 1.5D+01
   Bfn.  Coefficient  Atom+Function         Bfn.  Coefficient  Atom+Function  
  ----- ------------  ---------------      ----- ------------  ---------------
     8      1.494219  1 Li px                43     -1.494219  2 Li px         
    11     -0.610243  1 Li px                46      0.610243  2 Li px         
     5     -0.607188  1 Li px                10      0.609317  1 Li pz         
    40      0.607188  2 Li px                45     -0.609317  2 Li pz         
    29     -0.530019  1 Li fxyy              64      0.530019  2 Li fxyy       

 Vector   34  Occ=0.000000D+00  E= 3.963531D-01
              MO Center=  2.3D-12,  1.6D-09, -1.1D-12, r^2= 1.9D+01
   Bfn.  Coefficient  Atom+Function         Bfn.  Coefficient  Atom+Function  
  ----- ------------  ---------------      ----- ------------  ---------------
     4      1.859612  1 Li s                 39     -1.859612  2 Li s          
     9      1.436569  1 Li py                44      1.436569  2 Li py         
    20     -0.877958  1 Li dxx               25     -0.877958  1 Li dzz        
    55      0.877958  2 Li dxx               60      0.877958  2 Li dzz        
     3     -0.553759  1 Li s                 38      0.553759  2 Li s          

 Vector   35  Occ=0.000000D+00  E= 3.970747D-01
              MO Center=  5.1D-12, -1.7D-09, -1.8D-12, r^2= 1.7D+01
   Bfn.  Coefficient  Atom+Function         Bfn.  Coefficient  Atom+Function  
  ----- ------------  ---------------      ----- ------------  ---------------
     4      1.449987  1 Li s                 39      1.449987  2 Li s          
    20     -0.957561  1 Li dxx               25     -0.957561  1 Li dzz        
    55     -0.957561  2 Li dxx               60     -0.957561  2 Li dzz        
    23     -0.805407  1 Li dyy               58     -0.805407  2 Li dyy        
    14      0.337594  1 Li dxx               19      0.337594  1 Li dzz        

 Vector   36  Occ=0.000000D+00  E= 4.567069D-01
              MO Center=  1.2D-12, -1.1D-12, -6.5D-13, r^2= 1.1D+01
   Bfn.  Coefficient  Atom+Function         Bfn.  Coefficient  Atom+Function  
  ----- ------------  ---------------      ----- ------------  ---------------
     4      1.899347  1 Li s                 39     -1.899347  2 Li s          
     9     -1.206546  1 Li py                44     -1.206546  2 Li py         
    23     -1.185718  1 Li dyy               58      1.185718  2 Li dyy        
    20     -0.755985  1 Li dxx               25     -0.755985  1 Li dzz        
    55      0.755985  2 Li dxx               60      0.755985  2 Li dzz        

 Vector   37  Occ=0.000000D+00  E= 7.114770D-01
              MO Center= -9.0D-13,  2.0D-11,  1.6D-13, r^2= 1.2D+01
   Bfn.  Coefficient  Atom+Function         Bfn.  Coefficient  Atom+Function  
  ----- ------------  ---------------      ----- ------------  ---------------
    18      1.546245  1 Li dyz               53     -1.546245  2 Li dyz        
    24     -0.869516  1 Li dyz               59      0.869516  2 Li dyz        
    33     -0.738842  1 Li fyyz              68     -0.738842  2 Li fyyz       
    28      0.192581  1 Li fxxz              35      0.192581  1 Li fzzz       
    63      0.192581  2 Li fxxz              70      0.192581  2 Li fzzz       


 center of mass
 --------------
 x =   0.00000000 y =   0.00000000 z =   0.00000000

 moments of inertia (a.u.)
 ------------------
         372.163720000000           0.000000000000           0.000000000000
           0.000000000000           0.000000000000           0.000000000000
           0.000000000000           0.000000000000         372.163720000000

  Mulliken analysis of the total density
  --------------------------------------

    Atom       Charge   Shell Charges
 -----------   ------   -------------------------------------------------------
    1 Li   3     3.00   1.99 -0.01  0.47  0.55  0.00  0.00  0.00  0.00 -0.01 -0.00
    2 Li   3     3.00   1.99 -0.01  0.47  0.55  0.00  0.00  0.00  0.00 -0.01 -0.00

       Multipole analysis of the density wrt the origin
       ------------------------------------------------

     L   x y z        total         open         nuclear
     -   - - -        -----         ----         -------
     0   0 0 0     -0.000000      0.000000      6.000000

     1   1 0 0     -0.000000      0.000000      0.000000
     1   0 1 0      0.000000      0.000000      0.000000
     1   0 0 1      0.000000      0.000000      0.000000

     2   2 0 0    -12.813315      0.000000      0.000000
     2   1 1 0     -0.000000      0.000000      0.000000
     2   1 0 1      0.000000      0.000000      0.000000
     2   0 2 0     -6.550297      0.000000    159.135000
     2   0 1 1      0.000000      0.000000      0.000000
     2   0 0 2    -12.813315      0.000000      0.000000


 Parallel integral file used      19 records with       0 large values

 ------------------------------------
     Number of active orbitals      4
     Number of active alpha electrons      3
     Number of active beta electrons       3
 ------------------------------------
                   NWChem Extensible Many-Electron Theory Module
                   ---------------------------------------------

              ======================================================
                   This portion of the program was automatically
                  generated by a Tensor Contraction Engine (TCE).
                  The development of this portion of the program
                 and TCE was supported by US Department of Energy,
                Office of Science, Office of Basic Energy Science.
                      TCE is a product of Battelle and PNNL.
              Please cite: S.Hirata, J.Phys.Chem.A 107, 9887 (2003).
              ======================================================

                                        Li2


            General Information
            -------------------
      Number of processors :     1
         Wavefunction type : Restricted Hartree-Fock
          No. of electrons :     6
           Alpha electrons :     3
            Beta electrons :     3
           No. of orbitals :   140
            Alpha orbitals :    70
             Beta orbitals :    70
        Alpha frozen cores :     0
         Beta frozen cores :     0
     Alpha frozen virtuals :    66
      Beta frozen virtuals :    66
         Spin multiplicity : singlet 
    Number of AO functions :    70
       Number of AO shells :    20
        Use of symmetry is : off
      Symmetry adaption is : off
         Schwarz screening : 0.10D-09

          Correlation Information
          -----------------------
          Calculation type : Coupled-cluster singles & doubles                           
   Perturbative correction : none                                                        
            Max iterations :      300
        Residual threshold : 0.10D-06
     T(0) DIIS level shift : 0.30D+00
     L(0) DIIS level shift : 0.00D+00
     T(1) DIIS level shift : 0.00D+00
     L(1) DIIS level shift : 0.00D+00
     T(R) DIIS level shift : 0.00D+00
     T(I) DIIS level shift : 0.00D+00
   CC-T/L Amplitude update :  5-th order DIIS
                I/O scheme : Global Array Library
        L-threshold :  0.10D-06
        EOM-threshold :  0.10D-06
 no EOMCCSD initial starts read in
 TCE RESTART OPTIONS
 READ_INT:   F
 WRITE_INT:  F
 READ_TA:    F
 WRITE_TA:   F
 READ_XA:    F
 WRITE_XA:   F
 READ_IN3:   F
 WRITE_IN3:  F
 SLICE:      F
 D4D5:       F
 quantumc:   T
 qrotation:  F
 pwtce:      F
 qducc:      F
 nacto:                         0
 nrotv:                         0
 nrot:                          0

            Memory Information
            ------------------
          Available GA space size is    1610607836 doubles
          Available MA space size is    1610609956 doubles

 Maximum block size supplied by input
 Maximum block size         1 doubles

 tile_dim =      1

 Block   Spin    Irrep     Size     Offset   Alpha
 -------------------------------------------------
   1    alpha     a      1 doubles       0       1
   2    alpha     a      1 doubles       1       2
   3    alpha     a      1 doubles       2       3
   4    beta      a      1 doubles       3       1
   5    beta      a      1 doubles       4       2
   6    beta      a      1 doubles       5       3
   7    alpha     a      1 doubles       6       7
   8    beta      a      1 doubles       7       7

 Global array virtual files algorithm will be used

 Parallel file system coherency ......... OK

 Integral file          = ./Li2.aoints.0
 Record size in doubles =  65536        No. of integs per rec  =  43688
 Max. records in memory =     99        Max. records in file   = 280089
 No. of bits per label  =      8        No. of bits per value  =     64


 #quartets = 2.126D+04 #integrals = 8.434D+05 #direct =  0.0% #cached =100.0%


 Fock matrix recomputed
 1-e file size   =               16
 1-e file name   = ./Li2.f1
 Cpu & wall time / sec            0.1            0.1
 4-electron integrals stored in orbital form

 v2    file size   =               55
 4-index algorithm nr.  13 is used
 imaxsize =       30
 imaxsize ichop =        0
 begin_one_electron_integrals
    1    1        -4.7343471957
    3    1         0.1216984734
    4    1         0.0000000022
    2    2        -4.7344547277
    3    2        -0.0000000020
    4    2         0.1319291737
    1    3         0.1216984734
    2    3        -0.0000000020
    3    3        -1.1158204336
    1    4         0.0000000022
    2    4         0.1319291737
    4    4        -1.1249959606
 end_one_electron_integrals
 begin_two_electron_integrals
    1    1    1    1        0.8734477025
    2    1    1    1        0.0000000257
    2    1    2    1        0.7764158376
    3    1    1    1       -0.0591367564
    3    1    2    1       -0.0000000010
    3    1    3    1        0.0065745109
    3    1    2    2       -0.0591425872
    4    1    1    1       -0.0000000032
    4    1    2    1       -0.0646448449
    4    1    3    1        0.0000000002
    4    1    4    1        0.0079053778
    4    1    2    2        0.0000000011
    4    1    3    2        0.0072088656
    2    2    1    1        0.8735001589
    2    2    2    1       -0.0000000257
    2    2    2    2        0.8735526203
    3    2    1    1       -0.0000000010
    3    2    2    1       -0.0592235110
    3    2    2    2        0.0000000029
    3    2    3    2        0.0065756347
    4    2    1    1       -0.0647075525
    4    2    2    1        0.0000000011
    4    2    3    1        0.0072088886
    4    2    2    2       -0.0647139451
    4    2    3    2       -0.0000000002
    4    2    4    2        0.0079066979
    4    2    3    3       -0.0013792724
    3    3    1    1        0.2065639854
    3    3    3    1       -0.0012484732
    3    3    2    2        0.2065650632
    3    3    3    3        0.1656565306
    4    3    1    1        0.0000000038
    4    3    2    1        0.1134764378
    4    3    4    1       -0.0014660164
    4    3    2    2       -0.0000000038
    4    3    3    2       -0.0014474231
    4    3    4    3        0.0692751308
    4    4    1    1        0.2146287272
    4    4    3    1       -0.0015307534
    4    4    2    2        0.2146300766
    4    4    4    2       -0.0016586416
    4    4    3    3        0.1653159926
    4    4    4    4        0.1676071094
 end_two_electron_integrals
 enrep_tce =   0.87378640776699024     
  EHF(A)             =       -14.81541659
  EHF(total)         =       -14.81541659
  Shift (HFtot-HFA)  =        -0.00000000
 Cpu & wall time / sec            1.1            1.1
 T1-number-of-tasks                    3

 t1 file size   =                3
 t1 file name   = ./Li2.t1
 t1 file handle =       -998
 T2-number-of-boxes                   15

 t2 file size   =               15
 t2 file name   = ./Li2.t2
 t2 file handle =       -996
CCSD iterations
 ---------------------------------------------------------
 Iter          Residuum       Correlation     Cpu    Wall 
 ---------------------------------------------------------
NEW TASK SCHEDULING
CCSD_T1_NTS --- OK
CCSD_T2_NTS --- OK
    1   0.0100827954610  -0.0496697222666     0.1     0.1
    2   0.0026222189218  -0.0499463882482     0.1     0.1
    3   0.0019233258627  -0.0501883724949     0.1     0.1
    4   0.0015221008176  -0.0503784815863     0.1     0.1
    5   0.0012081363720  -0.0505297585074     0.0     0.1
 MICROCYCLE DIIS UPDATE:                    5                    5
    6   0.0000047186529  -0.0511113570204     0.1     0.1
    7   0.0000037370223  -0.0511108878987     0.0     0.1
    8   0.0000029593662  -0.0511105164955     0.0     0.1
    9   0.0000023435802  -0.0511102223665     0.1     0.1
   10   0.0000018559238  -0.0511099894421     0.0     0.1
 MICROCYCLE DIIS UPDATE:                   10                    5
   11   0.0000000000324  -0.0511091029760     0.0     0.1
 -----------------------------------------------------------------
 Iterations converged
 CCSD correlation energy / hartree =        -0.051109102976015
 CCSD total energy / hartree       =       -14.866525692448212

 Singles contributions

 Doubles contributions
     4a   (alpha)     4a   (beta ) ---     3a   (alpha)     3a   (beta )       -0.7376526532
 Ground state specification:
 exp(T)|Ref>~(1+T)|Ref>
 ------- a(p)+/a(q) strings ----------

 singles norm

 doubles norm

 Reference string
  0.80474422280372282      :(1a)+ (2a)+ (3a)+ (1b)+ (2b)+ (3b)+ |0>

 Singles strings

 Doubles strings
 -0.59362171107872397      :(4a)+ (4b)+ (3b)  (3a)  (1a)+ (2a)+ (3a)+ (1b)+ (2b)+ (3b)+ |0>
 -------------------------------------

 Parallel integral file used      20 records with       0 large values


 Task  times  cpu:        1.9s     wall:        2.2s


                                NWChem Input Module
                                -------------------


 Summary of allocated global arrays
-----------------------------------
  No active global arrays


MA_summarize_allocated_blocks: starting scan ...
MA_summarize_allocated_blocks: scan completed: 0 heap blocks, 0 stack blocks
MA usage statistics:

	allocation statistics:
					      heap	     stack
					      ----	     -----
	current number of blocks	         0	         0
	maximum number of blocks	        18	        42
	current total bytes		         0	         0
	maximum total bytes		  51988456	  58642712
	maximum total K-bytes		     51989	     58643
	maximum total M-bytes		        52	        59


                                     CITATION
                                     --------
                Please cite the following reference when publishing
                           results obtained with NWChem:

          E. Apra, E. J. Bylaska, W. A. de Jong, N. Govind, K. Kowalski,
       T. P. Straatsma, M. Valiev, H. J. J. van Dam, Y. Alexeev, J. Anchell,
       V. Anisimov, F. W. Aquino, R. Atta-Fynn, J. Autschbach, N. P. Bauman,
     J. C. Becca, D. E. Bernholdt, K. Bhaskaran-Nair, S. Bogatko, P. Borowski,
         J. Boschen, J. Brabec, A. Bruner, E. Cauet, Y. Chen, G. N. Chuev,
      C. J. Cramer, J. Daily, M. J. O. Deegan, T. H. Dunning Jr., M. Dupuis,
   K. G. Dyall, G. I. Fann, S. A. Fischer, A. Fonari, H. Fruchtl, L. Gagliardi,
      J. Garza, N. Gawande, S. Ghosh, K. Glaesemann, A. W. Gotz, J. Hammond,
       V. Helms, E. D. Hermes, K. Hirao, S. Hirata, M. Jacquelin, L. Jensen,
   B. G. Johnson, H. Jonsson, R. A. Kendall, M. Klemm, R. Kobayashi, V. Konkov,
      S. Krishnamoorthy, M. Krishnan, Z. Lin, R. D. Lins, R. J. Littlefield,
      A. J. Logsdail, K. Lopata, W. Ma, A. V. Marenich, J. Martin del Campo,
   D. Mejia-Rodriguez, J. E. Moore, J. M. Mullin, T. Nakajima, D. R. Nascimento,
    J. A. Nichols, P. J. Nichols, J. Nieplocha, A. Otero-de-la-Roza, B. Palmer,
    A. Panyala, T. Pirojsirikul, B. Peng, R. Peverati, J. Pittner, L. Pollack,
   R. M. Richard, P. Sadayappan, G. C. Schatz, W. A. Shelton, D. W. Silverstein,
   D. M. A. Smith, T. A. Soares, D. Song, M. Swart, H. L. Taylor, G. S. Thomas,
            V. Tipparaju, D. G. Truhlar, K. Tsemekhman, T. Van Voorhis,
      A. Vazquez-Mayagoitia, P. Verma, O. Villa, A. Vishnu, K. D. Vogiatzis,
        D. Wang, J. H. Weare, M. J. Williamson, T. L. Windus, K. Wolinski,
        A. T. Wong, Q. Wu, C. Yang, Q. Yu, M. Zacharias, Z. Zhang, Y. Zhao,
                                and R. J. Harrison
                        "NWChem: Past, present, and future
                         J. Chem. Phys. 152, 184102 (2020)
                               doi:10.1063/5.0004997

                                      AUTHORS
                                      -------
  E. Apra, E. J. Bylaska, N. Govind, K. Kowalski, M. Valiev, D. Mejia-Rodriguez,
       A. Kunitsa, N. P. Bauman, A. Panyala, W. A. de Jong, T. P. Straatsma,
        H. J. J. van Dam, D. Wang, T. L. Windus, J. Hammond, J. Autschbach,
    K. Bhaskaran-Nair, J. Brabec, K. Lopata, S. A. Fischer, S. Krishnamoorthy,
     M. Jacquelin, W. Ma, M. Klemm, O. Villa, Y. Chen, V. Anisimov, F. Aquino,
    S. Hirata, M. T. Hackler, Eric Hermes, L. Jensen, J. E. Moore, J. C. Becca,
      V. Konjkov, T. Risthaus, M. Malagoli, A. Marenich, A. Otero-de-la-Roza,
        J. Mullin, P. Nichols, R. Peverati, J. Pittner, Y. Zhao, P.-D. Fan,
        A. Fonari, M. J. Williamson, R. J. Harrison, J. R. Rehr, M. Dupuis,
     D. Silverstein, D. M. A. Smith, J. Nieplocha, V. Tipparaju, M. Krishnan,
     B. E. Van Kuiken, A. Vazquez-Mayagoitia, M. Swart, Q. Wu, T. Van Voorhis,
     A. A. Auer, M. Nooijen, L. D. Crosby, E. Brown, G. Cisneros, G. I. Fann,
   H. Fruchtl, J. Garza, K. Hirao, R. A. Kendall, J. A. Nichols, K. Tsemekhman,
    K. Wolinski, J. Anchell, D. E. Bernholdt, P. Borowski, T. Clark, D. Clerc,
   H. Dachsel, M. J. O. Deegan, K. Dyall, D. Elwood, E. Glendening, M. Gutowski,
   A. C. Hess, J. Jaffe, B. G. Johnson, J. Ju, R. Kobayashi, R. Kutteh, Z. Lin,
   R. Littlefield, X. Long, B. Meng, T. Nakajima, S. Niu, L. Pollack, M. Rosing,
   K. Glaesemann, G. Sandrone, M. Stave, H. Taylor, G. Thomas, J. H. van Lenthe,
                               A. T. Wong, Z. Zhang.

 Total times  cpu:        2.8s     wall:        3.3s
