 argument  1 = input.nw
  NWChem w/ OpenMP: maximum threads =    1



============================== echo of input deck ==============================
 echo
 start Li2
 title "Li2"

 memory total 24 gb

 geometry units bohr
 symmetry c1
        Li  0.00000000  0.00000000  0.00000000
        Li  0.00000000  12.5  0.00000000
 end

 basis
   * library cc-pVTZ
 end

 mcscf
   active  4
   actelec 6
   multiplicity 1
   maxiter 40
   vectors input Li2.mos
   vectors output Li2.mos
 end

 task mcscf

 scf
   vectors input Li2.mos
   vectors output Li2-12.5.mos
   noscf
 end

 tce
   2eorb
   2emet 13
   ccsd
   maxiter 300
   lshift 0.3
 end

 set tce:print_integrals T
 set tce:qorb 4
 set tce:qela 3
 set tce:qelb 3

# set tce:qducc T
# set tce:nactv 1
# set tce:nonhf T
# set tce:ducc_model 3

 set tce:printtol 0.02

 task tce
================================================================================


                                         
                                         


             Northwest Computational Chemistry Package (NWChem) 7.0.1
             --------------------------------------------------------


                    Environmental Molecular Sciences Laboratory
                       Pacific Northwest National Laboratory
                                Richland, WA 99352

                              Copyright (c) 1994-2020
                       Pacific Northwest National Laboratory
                            Battelle Memorial Institute

             NWChem is an open-source computational chemistry package
                        distributed under the terms of the
                      Educational Community License (ECL) 2.0
             A copy of the license is included with this distribution
                              in the LICENSE.TXT file

                                  ACKNOWLEDGMENT
                                  --------------

            This software and its documentation were developed at the
            EMSL at Pacific Northwest National Laboratory, a multiprogram
            national laboratory, operated for the U.S. Department of Energy
            by Battelle under Contract Number DE-AC05-76RL01830. Support
            for this work was provided by the Department of Energy Office
            of Biological and Environmental Research, Office of Basic
            Energy Sciences, and the Office of Advanced Scientific Computing.


           Job information
           ---------------

    hostname        = WE46210
    program         = /home/baum612/code/nwchem/bin/LINUX64/nwchem
    date            = Thu Nov 16 00:34:50 2023

    compiled        = Mon_Nov_06_10:06:57_2023
    source          = /home/baum612/code/nwchem
    nwchem branch   = 7.0.0
    nwchem revision = nwchem_on_git-4191-g39d87d64de
    ga revision     = 5.8.1
    use scalapack   = F
    input           = input.nw
    prefix          = Li2.
    data base       = ./Li2.db
    status          = startup
    nproc           =        1
    time left       =     -1s



           Memory information
           ------------------

    heap     =  805306362 doubles =   6144.0 Mbytes
    stack    =  805306367 doubles =   6144.0 Mbytes
    global   = 1610612736 doubles =  12288.0 Mbytes (distinct from heap & stack)
    total    = 3221225465 doubles =  24576.0 Mbytes
    verify   = yes
    hardfail = no 


           Directory information
           ---------------------

  0 permanent = .
  0 scratch   = .




                                NWChem Input Module
                                -------------------


                                        Li2
                                        ---
 Turning off AUTOSYM since
 SYMMETRY directive was detected!


          ------
          auto-z
          ------
     1 autoz failed with cvr_scaling = 1.2 changing to 1.3
     2 autoz failed with cvr_scaling = 1.3 changing to 1.4
     3 autoz failed with cvr_scaling = 1.4 changing to 1.5
     4 autoz failed with cvr_scaling = 1.5 changing to 1.6
     5 autoz failed with cvr_scaling = 1.6 changing to 1.7

 AUTOZ failed to generate good internal coordinates.
 Cartesian coordinates will be used in optimizations.



                             Geometry "geometry" -> ""
                             -------------------------

 Output coordinates in a.u. (scale by  1.000000000 to convert to a.u.)

  No.       Tag          Charge          X              Y              Z
 ---- ---------------- ---------- -------------- -------------- --------------
    1 Li                   3.0000     0.00000000    -6.25000000     0.00000000
    2 Li                   3.0000     0.00000000     6.25000000     0.00000000

      Atomic Mass 
      ----------- 

      Li                 7.016000


 Effective nuclear repulsion energy (a.u.)       0.7200000000

            Nuclear Dipole moment (a.u.) 
            ----------------------------
        X                 Y               Z
 ---------------- ---------------- ----------------
     0.0000000000     0.0000000000     0.0000000000


            XYZ format geometry
            -------------------
     2
 geometry
 Li                    0.00000000    -3.30735781     0.00000000
 Li                    0.00000000     3.30735781     0.00000000



 Summary of "ao basis" -> "" (cartesian)
 ------------------------------------------------------------------------------
       Tag                 Description            Shells   Functions and Types
 ---------------- ------------------------------  ------  ---------------------
 *                          cc-pVTZ                   on all atoms 


                      Basis "ao basis" -> "ao basis" (cartesian)
                      -----
  Li (Lithium)
  ------------
            Exponent  Coefficients 
       -------------- ---------------------------------------------------------
  1 S  5.98800000E+03  0.000133
  1 S  8.98900000E+02  0.001025
  1 S  2.05900000E+02  0.005272
  1 S  5.92400000E+01  0.020929
  1 S  1.98700000E+01  0.066340
  1 S  7.40600000E+00  0.165775
  1 S  2.93000000E+00  0.315038
  1 S  1.18900000E+00  0.393523
  1 S  4.79800000E-01  0.190870

  2 S  5.98800000E+03 -0.000021
  2 S  8.98900000E+02 -0.000161
  2 S  2.05900000E+02 -0.000820
  2 S  5.92400000E+01 -0.003326
  2 S  1.98700000E+01 -0.010519
  2 S  7.40600000E+00 -0.028097
  2 S  2.93000000E+00 -0.055936
  2 S  1.18900000E+00 -0.099237
  2 S  4.79800000E-01 -0.112189

  3 S  7.50900000E-02  1.000000

  4 S  2.83200000E-02  1.000000

  5 P  3.26600000E+00  0.008630
  5 P  6.51100000E-01  0.047538
  5 P  1.69600000E-01  0.209772

  6 P  5.57800000E-02  1.000000

  7 P  2.05000000E-02  1.000000

  8 D  1.87400000E-01  1.000000

  9 D  8.01000000E-02  1.000000

 10 F  1.82900000E-01  1.000000



 Summary of "ao basis" -> "ao basis" (cartesian)
 ------------------------------------------------------------------------------
       Tag                 Description            Shells   Functions and Types
 ---------------- ------------------------------  ------  ---------------------
 Li                         cc-pVTZ                 10       35   4s3p2d1f



                            NWChem Direct MCSCF Module
                            --------------------------


                                        Li2


     -----------------------------------
       Basis functions:             70
       Inactive shells:              0
       Active shells:                4
       Active electrons:             6
       Symmetry:                    a       
       Multiplicity:                 1
       Orbital rotations:          264
     -----------------------------------

     -----------------------------------
       E2 extrapolation:             F
       Conjugacy:                    T
       Micro CI relax:               T
       Canonical orbitals:           T
       Maximum iterations:          40
       Converge threshold:    1.00E-04
       Conjugacy resets:            20
       Initial levelshift:        0.10
     -----------------------------------

 Loading old vectors from job with title :

Li2


   input molecular orbitals = ./Li2.mos
  output molecular orbtials = ./Li2.mos

       No. of determinants:            16


  Starting Orbital Energies
    -2.478002    -2.478002    -0.108449    -0.087688     0.027423     0.027423
     0.030178     0.039135     0.039135     0.046524     0.099568     0.115863
     0.118442     0.118442     0.122214     0.122271     0.122271     0.130516
     0.209359     0.218559     0.218559     0.226984     0.226984     0.229477
     0.229477     0.242341     0.242341     0.281549     0.356280     0.363002
     0.363002     0.369721     0.369721     0.385539     0.402108     0.425486
     0.717545     0.720466     0.720466     0.728726     0.728726     0.731179
     0.731179     0.741188     0.741188     0.744841     0.751518     0.751518
     0.751523     0.751523     0.751526     0.751526     0.751621     0.751621
     0.751758     0.751758     0.752877     0.754557     0.754557     0.794112
     0.927089     0.927578     0.927578     0.933702     0.933702     0.953021
     1.357016     1.364670     6.358167     6.365136

  Orbital Symmetry Irreps
a    a    a    a    a    a    a    a    a    a    a    a    a    a    a   
a    a    a    a    a    a    a    a    a    a    a    a    a    a    a   
a    a    a    a    a    a    a    a    a    a    a    a    a    a    a   
a    a    a    a    a    a    a    a    a    a    a    a    a    a    a   
a    a    a    a    a    a    a    a    a    a   

 Integral file          = ./Li2.aoints.0
 Record size in doubles =  65536        No. of integs per rec  =  43688
 Max. records in memory =     99        Max. records in file   = 280038
 No. of bits per label  =      8        No. of bits per value  =     64


 #quartets = 2.033D+04 #integrals = 6.983D+05 #direct =  0.0% #cached =100.0%




          %%%%% MacroIteration   1 %%%%%


          Number of sigma calls:        5
                       o<<<<< (aa):             0.00
                       o<<<<< (bb):             0.00
                       o<<<<< (ab):             0.00
                       o<<<<< (total)           0.00
                       o<<<<< (aa) ff           0.00
                       o<<<<< (aa) gop          0.00
                       o<<<<< (aa) dot          0.00
                       o<<<<< (ab) str          0.00
                       o<<<<< (ab) gath         0.00
                       o<<<<< (ab) dotab        0.00
                       o<<<<< (ab) scat         0.00
                       o<<<<< (ab) sync         0.00
                       o<<<<< Density           0.00
                       o<<<<< Density one       0.00
                       o<<<<< Density two       0.00
                       o<<<<< Density ab        0.00
                       o<<<<< Spin adapt        0.00
                       o<<<<< Symm adapt        0.00

                       o<<<<< (ab) max sync:      0.00

           >>>| Valence CI:            -15.585537122550
           >>>| MCSCF energy:          -14.865537122550
           >>>| Gradient norm:          0.228131258D-03
     --- Warning:   23 Hessian diagonals < 0.05 ---

                              ----- Line search ------

        step       energy         lsg     num-lsg   num-lsh   lsrat    time
      ------- ---------------- --------- --------- --------- ------- --------
       0.0000     -14.86553712 -5.68D-08  0.00D+00  0.00D+00 0.0D+00      0.6

          Number of sigma calls:        4
                       o<<<<< (aa):             0.00
                       o<<<<< (bb):             0.00
                       o<<<<< (ab):             0.00
                       o<<<<< (total)           0.00
                       o<<<<< (aa) ff           0.00
                       o<<<<< (aa) gop          0.00
                       o<<<<< (aa) dot          0.00
                       o<<<<< (ab) str          0.00
                       o<<<<< (ab) gath         0.00
                       o<<<<< (ab) dotab        0.00
                       o<<<<< (ab) scat         0.00
                       o<<<<< (ab) sync         0.00
                       o<<<<< Density           0.00
                       o<<<<< Density one       0.00
                       o<<<<< Density two       0.00
                       o<<<<< Density ab        0.00
                       o<<<<< Spin adapt        0.00
                       o<<<<< Symm adapt        0.00

                       o<<<<< (ab) max sync:      0.00
       1.0000     -14.86553715 -4.28D-09 -4.29D-09  5.25D-08 7.5D-02      0.7
     --- Orbitals canonicalized ---



          %%%%% MacroIteration   2 %%%%%


          Number of sigma calls:        5
                       o<<<<< (aa):             0.00
                       o<<<<< (bb):             0.00
                       o<<<<< (ab):             0.00
                       o<<<<< (total)           0.00
                       o<<<<< (aa) ff           0.00
                       o<<<<< (aa) gop          0.00
                       o<<<<< (aa) dot          0.00
                       o<<<<< (ab) str          0.00
                       o<<<<< (ab) gath         0.00
                       o<<<<< (ab) dotab        0.00
                       o<<<<< (ab) scat         0.00
                       o<<<<< (ab) sync         0.00
                       o<<<<< Density           0.00
                       o<<<<< Density one       0.00
                       o<<<<< Density two       0.00
                       o<<<<< Density ab        0.00
                       o<<<<< Spin adapt        0.00
                       o<<<<< Symm adapt        0.00

                       o<<<<< (ab) max sync:      0.00

           >>>| Valence CI:            -15.585537153071
           >>>| MCSCF energy:          -14.865537153071
           >>>| Gradient norm:          0.182494308D-04




     ==============================
            MCSCF Converged
     ==============================



          Canonical Eigenvalues

              1      
    1   -2.4780
    2   -2.4780
    3   -0.1080
    4   -0.0881
    5    0.0275
    6    0.0275
    7    0.0301
    8    0.0390
    9    0.0390
   10    0.0464
   11    0.0994
   12    0.1155
   13    0.1184
   14    0.1184
   15    0.1222
   16    0.1222
   17    0.1230
   18    0.1303
   19    0.2094
   20    0.2191
   21    0.2191
   22    0.2271
   23    0.2271
   24    0.2294
   25    0.2294
   26    0.2416
   27    0.2416
   28    0.2801
   29    0.3564
   30    0.3632
   31    0.3632
   32    0.3696
   33    0.3696
   34    0.3847
   35    0.4024
   36    0.4245
   37    0.7171
   38    0.7210
   39    0.7210
   40    0.7288
   41    0.7288
   42    0.7311
   43    0.7311
   44    0.7409
   45    0.7409
   46    0.7452
   47    0.7515
   48    0.7515
   49    0.7515
   50    0.7515
   51    0.7515
   52    0.7515
   53    0.7516
   54    0.7516
   55    0.7517
   56    0.7517
   57    0.7527
   58    0.7541
   59    0.7541
   60    0.7917
   61    0.9265
   62    0.9277
   63    0.9277
   64    0.9336
   65    0.9336
   66    0.9522
   67    1.3573
   68    1.3642
   69    6.3583
   70    6.3649


          Converged CI vector

   Index           Coefficient          Config. Occupation
         1          0.74905117          1  2  3  1  2  3
         6         -0.66251154          1  2  4  1  2  4

          Number of sigma calls:        1
                       o<<<<< (aa):             0.00
                       o<<<<< (bb):             0.00
                       o<<<<< (ab):             0.00
                       o<<<<< (total)           0.00
                       o<<<<< (aa) ff           0.00
                       o<<<<< (aa) gop          0.00
                       o<<<<< (aa) dot          0.00
                       o<<<<< (ab) str          0.00
                       o<<<<< (ab) gath         0.00
                       o<<<<< (ab) dotab        0.00
                       o<<<<< (ab) scat         0.00
                       o<<<<< (ab) sync         0.00
                       o<<<<< Density           0.00
                       o<<<<< Density one       0.00
                       o<<<<< Density two       0.00
                       o<<<<< Density ab        0.00
                       o<<<<< Spin adapt        0.00
                       o<<<<< Symm adapt        0.00

                       o<<<<< (ab) max sync:      0.00



          Natural orbital occupation numbers

              1      
    1    2.0000
    2    2.0000
    3    1.1222
    4    0.8778


          Number of sigma calls:        5
                       o<<<<< (aa):             0.00
                       o<<<<< (bb):             0.00
                       o<<<<< (ab):             0.00
                       o<<<<< (total)           0.00
                       o<<<<< (aa) ff           0.00
                       o<<<<< (aa) gop          0.00
                       o<<<<< (aa) dot          0.00
                       o<<<<< (ab) str          0.00
                       o<<<<< (ab) gath         0.00
                       o<<<<< (ab) dotab        0.00
                       o<<<<< (ab) scat         0.00
                       o<<<<< (ab) sync         0.00
                       o<<<<< Density           0.00
                       o<<<<< Density one       0.00
                       o<<<<< Density two       0.00
                       o<<<<< Density ab        0.00
                       o<<<<< Spin adapt        0.00
                       o<<<<< Symm adapt        0.00

                       o<<<<< (ab) max sync:      0.00


       Final MCSCF results 
       ------------------- 

       Total MCSCF energy =    -14.865537153071
            Gradient norm =      1.8D-05

    CPU time for solution =      0.9s
   Wall time for solution =      0.9s



                        Analysis of MCSCF natural orbitals
                        ----------------------------------

 Vector    1  Occ=2.000000D+00  E=-2.477983D+00  Symmetry=a
              MO Center=  2.7D-13, -3.8D-08, -4.9D-14, r^2= 1.1D+01
   Bfn.  Coefficient  Atom+Function         Bfn.  Coefficient  Atom+Function  
  ----- ------------  ---------------      ----- ------------  ---------------
     1      0.704543  1 Li s                 36      0.704543  2 Li s          

 Vector    2  Occ=2.000000D+00  E=-2.477983D+00  Symmetry=a
              MO Center=  6.4D-14,  3.8D-08,  2.0D-14, r^2= 1.1D+01
   Bfn.  Coefficient  Atom+Function         Bfn.  Coefficient  Atom+Function  
  ----- ------------  ---------------      ----- ------------  ---------------
     1      0.704539  1 Li s                 36     -0.704539  2 Li s          

 Vector    3  Occ=1.122156D+00  E=-1.080302D-01  Symmetry=a
              MO Center=  8.3D-13,  3.2D-12, -2.7D-12, r^2= 1.5D+01
   Bfn.  Coefficient  Atom+Function         Bfn.  Coefficient  Atom+Function  
  ----- ------------  ---------------      ----- ------------  ---------------
     3      0.388669  1 Li s                 38      0.388669  2 Li s          
     4      0.372264  1 Li s                 39      0.372264  2 Li s          
     2      0.187950  1 Li s                 37      0.187950  2 Li s          

 Vector    4  Occ=8.778441D-01  E=-8.812062D-02  Symmetry=a
              MO Center=  2.4D-12,  5.7D-12,  8.2D-13, r^2= 1.6D+01
   Bfn.  Coefficient  Atom+Function         Bfn.  Coefficient  Atom+Function  
  ----- ------------  ---------------      ----- ------------  ---------------
     3      0.421706  1 Li s                 38     -0.421706  2 Li s          
     4      0.375652  1 Li s                 39     -0.375652  2 Li s          
     2      0.198309  1 Li s                 37     -0.198309  2 Li s          

 Vector    5  Occ=0.000000D+00  E= 2.747551D-02  Symmetry=a
              MO Center= -3.3D-12, -1.6D-11,  4.1D-12, r^2= 2.7D+01
   Bfn.  Coefficient  Atom+Function         Bfn.  Coefficient  Atom+Function  
  ----- ------------  ---------------      ----- ------------  ---------------
    13      0.550806  1 Li pz                48      0.550806  2 Li pz         
    11     -0.411673  1 Li px                46     -0.411673  2 Li px         

 Vector    6  Occ=0.000000D+00  E= 2.747551D-02  Symmetry=a
              MO Center= -1.4D-13, -1.6D-11,  1.6D-13, r^2= 2.7D+01
   Bfn.  Coefficient  Atom+Function         Bfn.  Coefficient  Atom+Function  
  ----- ------------  ---------------      ----- ------------  ---------------
    11      0.550806  1 Li px                46      0.550806  2 Li px         
    13      0.411673  1 Li pz                48      0.411673  2 Li pz         

 Vector    7  Occ=0.000000D+00  E= 3.010016D-02  Symmetry=a
              MO Center=  1.1D-13, -4.5D-11, -5.3D-14, r^2= 2.7D+01
   Bfn.  Coefficient  Atom+Function         Bfn.  Coefficient  Atom+Function  
  ----- ------------  ---------------      ----- ------------  ---------------
    12      0.621768  1 Li py                47     -0.621768  2 Li py         
     4     -0.225470  1 Li s                 39     -0.225470  2 Li s          

 Vector    8  Occ=0.000000D+00  E= 3.900597D-02  Symmetry=a
              MO Center= -2.9D-13,  1.5D-11, -3.5D-13, r^2= 3.1D+01
   Bfn.  Coefficient  Atom+Function         Bfn.  Coefficient  Atom+Function  
  ----- ------------  ---------------      ----- ------------  ---------------
    13      0.844157  1 Li pz                48     -0.844157  2 Li pz         

 Vector    9  Occ=0.000000D+00  E= 3.900597D-02  Symmetry=a
              MO Center= -6.1D-12,  1.6D-11, -8.1D-14, r^2= 3.1D+01
   Bfn.  Coefficient  Atom+Function         Bfn.  Coefficient  Atom+Function  
  ----- ------------  ---------------      ----- ------------  ---------------
    11      0.844157  1 Li px                46     -0.844157  2 Li px         

 Vector   10  Occ=0.000000D+00  E= 4.642081D-02  Symmetry=a
              MO Center=  1.6D-12,  2.8D-11,  6.8D-13, r^2= 4.6D+01
   Bfn.  Coefficient  Atom+Function         Bfn.  Coefficient  Atom+Function  
  ----- ------------  ---------------      ----- ------------  ---------------
    12      1.188693  1 Li py                47      1.188693  2 Li py         
     9     -0.243222  1 Li py                44     -0.243222  2 Li py         
     4      0.236268  1 Li s                 39     -0.236268  2 Li s          

 Vector   11  Occ=0.000000D+00  E= 9.939066D-02  Symmetry=a
              MO Center= -2.7D-12,  6.3D-13, -4.3D-13, r^2= 3.1D+01
   Bfn.  Coefficient  Atom+Function         Bfn.  Coefficient  Atom+Function  
  ----- ------------  ---------------      ----- ------------  ---------------
     4      1.828104  1 Li s                 39      1.828104  2 Li s          
     3     -1.401530  1 Li s                 38     -1.401530  2 Li s          
    20     -0.343750  1 Li dxx               25     -0.343750  1 Li dzz        
    55     -0.343750  2 Li dxx               60     -0.343750  2 Li dzz        
    23     -0.339660  1 Li dyy               58     -0.339660  2 Li dyy        

 Vector   12  Occ=0.000000D+00  E= 1.155215D-01  Symmetry=a
              MO Center= -1.5D-12, -8.3D-12,  1.8D-12, r^2= 2.8D+01
   Bfn.  Coefficient  Atom+Function         Bfn.  Coefficient  Atom+Function  
  ----- ------------  ---------------      ----- ------------  ---------------
     4      1.174827  1 Li s                 39     -1.174827  2 Li s          
     9      0.897571  1 Li py                44      0.897571  2 Li py         
     3     -0.887061  1 Li s                 38      0.887061  2 Li s          
    12     -0.486167  1 Li py                47     -0.486167  2 Li py         
    23     -0.300823  1 Li dyy               58      0.300823  2 Li dyy        

 Vector   13  Occ=0.000000D+00  E= 1.184164D-01  Symmetry=a
              MO Center= -2.4D-13, -4.3D-11, -3.4D-13, r^2= 2.4D+01
   Bfn.  Coefficient  Atom+Function         Bfn.  Coefficient  Atom+Function  
  ----- ------------  ---------------      ----- ------------  ---------------
    10      1.112791  1 Li pz                45      1.112791  2 Li pz         
    13     -0.695925  1 Li pz                48     -0.695925  2 Li pz         
     8     -0.485191  1 Li px                43     -0.485191  2 Li px         
    11      0.303432  1 Li px                46      0.303432  2 Li px         

 Vector   14  Occ=0.000000D+00  E= 1.184164D-01  Symmetry=a
              MO Center=  1.5D-12, -4.4D-11,  9.6D-13, r^2= 2.4D+01
   Bfn.  Coefficient  Atom+Function         Bfn.  Coefficient  Atom+Function  
  ----- ------------  ---------------      ----- ------------  ---------------
     8      1.112791  1 Li px                43      1.112791  2 Li px         
    11     -0.695925  1 Li px                46     -0.695925  2 Li px         
    10      0.485191  1 Li pz                45      0.485191  2 Li pz         
    13     -0.303432  1 Li pz                48     -0.303432  2 Li pz         


 Wrote Lagrangian and 1- and 2-particle density matrices to ./Li2.mcpdm


     Multipole analysis of the density
     ---------------------------------

     L   x y z        total        nuclear
     -   - - -        -----        -------
     0   0 0 0     -0.000000      6.000000

     1   1 0 0     -0.000000      0.000000
     1   0 1 0     -0.000000      0.000000
     1   0 0 1      0.000000      0.000000

     2   2 0 0    -12.418519      0.000000
     2   1 1 0     -0.000000      0.000000
     2   1 0 1     -0.000000      0.000000
     2   0 2 0    -11.949180    234.375000
     2   0 1 1      0.000000      0.000000
     2   0 0 2    -12.418519      0.000000


  Mulliken analysis of the total density
  --------------------------------------

    Atom       Charge   Shell Charges
 -----------   ------   -------------------------------------------------------
    1 Li   3     3.00   1.99 -0.01  0.52  0.51  0.00 -0.00  0.00 -0.00 -0.00  0.00
    2 Li   3     3.00   1.99 -0.01  0.52  0.51  0.00 -0.00  0.00 -0.00 -0.00  0.00

    Mulliken analysis of the active space density
    ---------------------------------------------

    Atom       Charge   Shell Charges
 -----------   ------   -------------------------------------------------------
    1 Li   3     3.00   1.99 -0.01  0.52  0.51  0.00 -0.00  0.00 -0.00 -0.00  0.00
    2 Li   3     3.00   1.99 -0.01  0.52  0.51  0.00 -0.00  0.00 -0.00 -0.00  0.00

 Parallel integral file used      16 records with       0 large values


 Task  times  cpu:        0.9s     wall:        0.9s


                                NWChem Input Module
                                -------------------


                                 NWChem SCF Module
                                 -----------------


                                        Li2



  ao basis        = "ao basis"
  functions       =    70
  atoms           =     2
  closed shells   =     3
  open shells     =     0
  charge          =   0.00
  wavefunction    = RHF 
  input vectors   = ./Li2.mos
  output vectors  = ./Li2-12.5.mos
  use symmetry    = F
  symmetry adapt  = F


 Summary of "ao basis" -> "ao basis" (cartesian)
 ------------------------------------------------------------------------------
       Tag                 Description            Shells   Functions and Types
 ---------------- ------------------------------  ------  ---------------------
 Li                         cc-pVTZ                 10       35   4s3p2d1f



 Forming initial guess at       1.0s


 Loading old vectors from job with title :

Li2


 Starting SCF solution at       1.0s



 ----------------------------------------------
         Quadratically convergent ROHF

 Convergence threshold     :          1.000E-04
 Maximum no. of iterations :           30
 Final Fock-matrix accuracy:          1.000E-07
 ----------------------------------------------


 Integral file          = ./Li2.aoints.0
 Record size in doubles =  65536        No. of integs per rec  =  43688
 Max. records in memory =     99        Max. records in file   = 280086
 No. of bits per label  =      8        No. of bits per value  =     64


 #quartets = 1.960D+04 #integrals = 6.686D+05 #direct =  0.0% #cached =100.0%



       Final RHF  results 
       ------------------ 

         Total SCF energy =    -14.797251055894
      One-electron energy =    -20.858207269856
      Two-electron energy =      5.340956213961
 Nuclear repulsion energy =      0.720000000000

        Time for solution =      0.1s


             Final eigenvalues
             -----------------

              1      
    1   -2.4780
    2   -2.4780
    3   -0.1080
    4   -0.0881
    5    0.0275
    6    0.0275
    7    0.0301
    8    0.0390
    9    0.0390
   10    0.0464
   11    0.0994
   12    0.1155
   13    0.1184

                       ROHF Final Molecular Orbital Analysis
                       -------------------------------------

 Vector    2  Occ=2.000000D+00  E=-2.477983D+00
              MO Center=  6.4D-14,  3.8D-08,  2.0D-14, r^2= 1.1D+01
   Bfn.  Coefficient  Atom+Function         Bfn.  Coefficient  Atom+Function  
  ----- ------------  ---------------      ----- ------------  ---------------
     1      0.704539  1 Li s                 36     -0.704539  2 Li s          

 Vector    3  Occ=2.000000D+00  E=-1.080302D-01
              MO Center=  8.3D-13,  3.2D-12, -2.7D-12, r^2= 1.5D+01
   Bfn.  Coefficient  Atom+Function         Bfn.  Coefficient  Atom+Function  
  ----- ------------  ---------------      ----- ------------  ---------------
     3      0.388669  1 Li s                 38      0.388669  2 Li s          
     4      0.372264  1 Li s                 39      0.372264  2 Li s          
     2      0.187950  1 Li s                 37      0.187950  2 Li s          

 Vector    4  Occ=0.000000D+00  E=-8.812062D-02
              MO Center=  2.4D-12,  5.7D-12,  8.2D-13, r^2= 1.6D+01
   Bfn.  Coefficient  Atom+Function         Bfn.  Coefficient  Atom+Function  
  ----- ------------  ---------------      ----- ------------  ---------------
     3      0.421706  1 Li s                 38     -0.421706  2 Li s          
     4      0.375652  1 Li s                 39     -0.375652  2 Li s          
     2      0.198309  1 Li s                 37     -0.198309  2 Li s          

 Vector    5  Occ=0.000000D+00  E= 2.747551D-02
              MO Center= -3.3D-12, -1.6D-11,  4.1D-12, r^2= 2.7D+01
   Bfn.  Coefficient  Atom+Function         Bfn.  Coefficient  Atom+Function  
  ----- ------------  ---------------      ----- ------------  ---------------
    13      0.550806  1 Li pz                48      0.550806  2 Li pz         
    11     -0.411673  1 Li px                46     -0.411673  2 Li px         

 Vector    6  Occ=0.000000D+00  E= 2.747551D-02
              MO Center= -1.4D-13, -1.6D-11,  1.6D-13, r^2= 2.7D+01
   Bfn.  Coefficient  Atom+Function         Bfn.  Coefficient  Atom+Function  
  ----- ------------  ---------------      ----- ------------  ---------------
    11      0.550806  1 Li px                46      0.550806  2 Li px         
    13      0.411673  1 Li pz                48      0.411673  2 Li pz         

 Vector    7  Occ=0.000000D+00  E= 3.010016D-02
              MO Center=  1.1D-13, -4.5D-11, -5.3D-14, r^2= 2.7D+01
   Bfn.  Coefficient  Atom+Function         Bfn.  Coefficient  Atom+Function  
  ----- ------------  ---------------      ----- ------------  ---------------
    12      0.621768  1 Li py                47     -0.621768  2 Li py         
     4     -0.225470  1 Li s                 39     -0.225470  2 Li s          

 Vector    8  Occ=0.000000D+00  E= 3.900597D-02
              MO Center= -2.9D-13,  1.5D-11, -3.5D-13, r^2= 3.1D+01
   Bfn.  Coefficient  Atom+Function         Bfn.  Coefficient  Atom+Function  
  ----- ------------  ---------------      ----- ------------  ---------------
    13      0.844157  1 Li pz                48     -0.844157  2 Li pz         

 Vector    9  Occ=0.000000D+00  E= 3.900597D-02
              MO Center= -6.1D-12,  1.6D-11, -8.1D-14, r^2= 3.1D+01
   Bfn.  Coefficient  Atom+Function         Bfn.  Coefficient  Atom+Function  
  ----- ------------  ---------------      ----- ------------  ---------------
    11      0.844157  1 Li px                46     -0.844157  2 Li px         

 Vector   10  Occ=0.000000D+00  E= 4.642081D-02
              MO Center=  1.6D-12,  2.8D-11,  6.8D-13, r^2= 4.6D+01
   Bfn.  Coefficient  Atom+Function         Bfn.  Coefficient  Atom+Function  
  ----- ------------  ---------------      ----- ------------  ---------------
    12      1.188693  1 Li py                47      1.188693  2 Li py         
     9     -0.243222  1 Li py                44     -0.243222  2 Li py         
     4      0.236268  1 Li s                 39     -0.236268  2 Li s          

 Vector   11  Occ=0.000000D+00  E= 9.939066D-02
              MO Center= -2.7D-12,  6.3D-13, -4.3D-13, r^2= 3.1D+01
   Bfn.  Coefficient  Atom+Function         Bfn.  Coefficient  Atom+Function  
  ----- ------------  ---------------      ----- ------------  ---------------
     4      1.828104  1 Li s                 39      1.828104  2 Li s          
     3     -1.401530  1 Li s                 38     -1.401530  2 Li s          
    20     -0.343750  1 Li dxx               25     -0.343750  1 Li dzz        
    55     -0.343750  2 Li dxx               60     -0.343750  2 Li dzz        
    23     -0.339660  1 Li dyy               58     -0.339660  2 Li dyy        

 Vector   12  Occ=0.000000D+00  E= 1.155215D-01
              MO Center= -1.5D-12, -8.3D-12,  1.8D-12, r^2= 2.8D+01
   Bfn.  Coefficient  Atom+Function         Bfn.  Coefficient  Atom+Function  
  ----- ------------  ---------------      ----- ------------  ---------------
     4      1.174827  1 Li s                 39     -1.174827  2 Li s          
     9      0.897571  1 Li py                44      0.897571  2 Li py         
     3     -0.887061  1 Li s                 38      0.887061  2 Li s          
    12     -0.486167  1 Li py                47     -0.486167  2 Li py         
    23     -0.300823  1 Li dyy               58      0.300823  2 Li dyy        

 Vector   13  Occ=0.000000D+00  E= 1.184164D-01
              MO Center= -2.4D-13, -4.3D-11, -3.4D-13, r^2= 2.4D+01
   Bfn.  Coefficient  Atom+Function         Bfn.  Coefficient  Atom+Function  
  ----- ------------  ---------------      ----- ------------  ---------------
    10      1.112791  1 Li pz                45      1.112791  2 Li pz         
    13     -0.695925  1 Li pz                48     -0.695925  2 Li pz         
     8     -0.485191  1 Li px                43     -0.485191  2 Li px         
    11      0.303432  1 Li px                46      0.303432  2 Li px         

 Vector   14  Occ=0.000000D+00  E= 1.184164D-01
              MO Center=  1.5D-12, -4.4D-11,  9.6D-13, r^2= 2.4D+01
   Bfn.  Coefficient  Atom+Function         Bfn.  Coefficient  Atom+Function  
  ----- ------------  ---------------      ----- ------------  ---------------
     8      1.112791  1 Li px                43      1.112791  2 Li px         
    11     -0.695925  1 Li px                46     -0.695925  2 Li px         
    10      0.485191  1 Li pz                45      0.485191  2 Li pz         
    13     -0.303432  1 Li pz                48     -0.303432  2 Li pz         

 Vector   15  Occ=0.000000D+00  E= 1.222386D-01
              MO Center= -3.3D-13,  4.2D-11, -1.4D-13, r^2= 2.7D+01
   Bfn.  Coefficient  Atom+Function         Bfn.  Coefficient  Atom+Function  
  ----- ------------  ---------------      ----- ------------  ---------------
    10      1.238209  1 Li pz                45     -1.238209  2 Li pz         
    13     -0.958074  1 Li pz                48      0.958074  2 Li pz         
     8     -0.282678  1 Li px                43      0.282678  2 Li px         
    11      0.218724  1 Li px                46     -0.218724  2 Li px         

 Vector   16  Occ=0.000000D+00  E= 1.222386D-01
              MO Center= -2.5D-13,  4.3D-11,  1.4D-13, r^2= 2.7D+01
   Bfn.  Coefficient  Atom+Function         Bfn.  Coefficient  Atom+Function  
  ----- ------------  ---------------      ----- ------------  ---------------
     8      1.238209  1 Li px                43     -1.238209  2 Li px         
    11     -0.958074  1 Li px                46      0.958074  2 Li px         
    10      0.282678  1 Li pz                45     -0.282678  2 Li pz         
    13     -0.218724  1 Li pz                48      0.218724  2 Li pz         

 Vector   17  Occ=0.000000D+00  E= 1.230208D-01
              MO Center=  1.7D-12,  1.1D-11, -1.1D-12, r^2= 2.3D+01
   Bfn.  Coefficient  Atom+Function         Bfn.  Coefficient  Atom+Function  
  ----- ------------  ---------------      ----- ------------  ---------------
     9      1.360880  1 Li py                44     -1.360880  2 Li py         
    12     -0.898024  1 Li py                47      0.898024  2 Li py         
     3      0.395411  1 Li s                 38      0.395411  2 Li s          
     4     -0.371715  1 Li s                 39     -0.371715  2 Li s          
    23      0.277774  1 Li dyy               58      0.277774  2 Li dyy        

 Vector   18  Occ=0.000000D+00  E= 1.303030D-01
              MO Center=  1.9D-12,  2.3D-12, -2.1D-12, r^2= 2.5D+01
   Bfn.  Coefficient  Atom+Function         Bfn.  Coefficient  Atom+Function  
  ----- ------------  ---------------      ----- ------------  ---------------
     4      2.481530  1 Li s                 39     -2.481530  2 Li s          
     3     -1.536355  1 Li s                 38      1.536355  2 Li s          
    12      1.242368  1 Li py                47      1.242368  2 Li py         
     9     -0.834546  1 Li py                44     -0.834546  2 Li py         
    23     -0.391247  1 Li dyy               58      0.391247  2 Li dyy        

 Vector   19  Occ=0.000000D+00  E= 2.093789D-01
              MO Center=  1.7D-14, -4.0D-12, -7.3D-15, r^2= 1.8D+01
   Bfn.  Coefficient  Atom+Function         Bfn.  Coefficient  Atom+Function  
  ----- ------------  ---------------      ----- ------------  ---------------
    23      0.821771  1 Li dyy               58      0.821771  2 Li dyy        
    20     -0.329912  1 Li dxx               25     -0.329912  1 Li dzz        
    55     -0.329912  2 Li dxx               60     -0.329912  2 Li dzz        
    17     -0.190801  1 Li dyy               52     -0.190801  2 Li dyy        
     4     -0.157918  1 Li s                 39     -0.157918  2 Li s          

 Vector   20  Occ=0.000000D+00  E= 2.191378D-01
              MO Center= -4.2D-14, -1.2D-11, -2.4D-13, r^2= 1.8D+01
   Bfn.  Coefficient  Atom+Function         Bfn.  Coefficient  Atom+Function  
  ----- ------------  ---------------      ----- ------------  ---------------
    24      1.381405  1 Li dyz               59     -1.381405  2 Li dyz        
    21     -0.305471  1 Li dxy               56      0.305471  2 Li dxy        
    18     -0.292790  1 Li dyz               53      0.292790  2 Li dyz        

 Vector   21  Occ=0.000000D+00  E= 2.191378D-01
              MO Center=  4.2D-13, -1.2D-11,  1.4D-13, r^2= 1.8D+01
   Bfn.  Coefficient  Atom+Function         Bfn.  Coefficient  Atom+Function  
  ----- ------------  ---------------      ----- ------------  ---------------
    21      1.381405  1 Li dxy               56     -1.381405  2 Li dxy        
    24      0.305471  1 Li dyz               59     -0.305471  2 Li dyz        
    15     -0.292790  1 Li dxy               50      0.292790  2 Li dxy        

 Vector   22  Occ=0.000000D+00  E= 2.270780D-01
              MO Center=  4.9D-13, -5.8D-11, -9.7D-14, r^2= 1.8D+01
   Bfn.  Coefficient  Atom+Function         Bfn.  Coefficient  Atom+Function  
  ----- ------------  ---------------      ----- ------------  ---------------
    20      0.709075  1 Li dxx               25     -0.709075  1 Li dzz        
    55      0.709075  2 Li dxx               60     -0.709075  2 Li dzz        

 Vector   23  Occ=0.000000D+00  E= 2.270780D-01
              MO Center=  4.9D-13, -5.1D-11, -9.7D-14, r^2= 1.8D+01
   Bfn.  Coefficient  Atom+Function         Bfn.  Coefficient  Atom+Function  
  ----- ------------  ---------------      ----- ------------  ---------------
    22      1.418150  1 Li dxz               57      1.418150  2 Li dxz        
    16     -0.285970  1 Li dxz               51     -0.285970  2 Li dxz        

 Vector   24  Occ=0.000000D+00  E= 2.293784D-01
              MO Center=  4.8D-13,  5.1D-11, -1.1D-13, r^2= 1.8D+01
   Bfn.  Coefficient  Atom+Function         Bfn.  Coefficient  Atom+Function  
  ----- ------------  ---------------      ----- ------------  ---------------
    22      1.418347  1 Li dxz               57     -1.418347  2 Li dxz        
    16     -0.281334  1 Li dxz               51      0.281334  2 Li dxz        

 Vector   25  Occ=0.000000D+00  E= 2.293784D-01
              MO Center=  4.8D-13,  5.8D-11, -1.1D-13, r^2= 1.8D+01
   Bfn.  Coefficient  Atom+Function         Bfn.  Coefficient  Atom+Function  
  ----- ------------  ---------------      ----- ------------  ---------------
    20      0.709173  1 Li dxx               25     -0.709173  1 Li dzz        
    55     -0.709173  2 Li dxx               60      0.709173  2 Li dzz        

 Vector   26  Occ=0.000000D+00  E= 2.415621D-01
              MO Center= -5.0D-14,  1.3D-11, -2.6D-13, r^2= 1.8D+01
   Bfn.  Coefficient  Atom+Function         Bfn.  Coefficient  Atom+Function  
  ----- ------------  ---------------      ----- ------------  ---------------
    24      1.390542  1 Li dyz               59      1.390542  2 Li dyz        
    21     -0.326956  1 Li dxy               56     -0.326956  2 Li dxy        
    18     -0.254954  1 Li dyz               53     -0.254954  2 Li dyz        
    13      0.154646  1 Li pz                48     -0.154646  2 Li pz         

 Vector   27  Occ=0.000000D+00  E= 2.415621D-01
              MO Center=  3.8D-13,  1.3D-11,  1.4D-13, r^2= 1.8D+01
   Bfn.  Coefficient  Atom+Function         Bfn.  Coefficient  Atom+Function  
  ----- ------------  ---------------      ----- ------------  ---------------
    21      1.390542  1 Li dxy               56      1.390542  2 Li dxy        
    24      0.326956  1 Li dyz               59      0.326956  2 Li dyz        
    15     -0.254954  1 Li dxy               50     -0.254954  2 Li dxy        
    11      0.154646  1 Li px                46     -0.154646  2 Li px         

 Vector   28  Occ=0.000000D+00  E= 2.800775D-01
              MO Center= -3.6D-14,  3.6D-12, -8.6D-15, r^2= 2.1D+01
   Bfn.  Coefficient  Atom+Function         Bfn.  Coefficient  Atom+Function  
  ----- ------------  ---------------      ----- ------------  ---------------
     4      0.991786  1 Li s                 39     -0.991786  2 Li s          
    23      0.771801  1 Li dyy               58     -0.771801  2 Li dyy        
    12      0.672065  1 Li py                47      0.672065  2 Li py         
     3     -0.598289  1 Li s                 38      0.598289  2 Li s          
    20     -0.518987  1 Li dxx               25     -0.518987  1 Li dzz        

 Vector   29  Occ=0.000000D+00  E= 3.564419D-01
              MO Center= -2.9D-13, -6.1D-12,  2.4D-13, r^2= 1.8D+01
   Bfn.  Coefficient  Atom+Function         Bfn.  Coefficient  Atom+Function  
  ----- ------------  ---------------      ----- ------------  ---------------
     9      1.569376  1 Li py                44     -1.569376  2 Li py         
     6     -0.626666  1 Li py                41      0.626666  2 Li py         
    12     -0.577182  1 Li py                47      0.577182  2 Li py         
    27     -0.553140  1 Li fxxy              34     -0.553140  1 Li fyzz       
    62      0.553140  2 Li fxxy              69      0.553140  2 Li fyzz       

 Vector   30  Occ=0.000000D+00  E= 3.631562D-01
              MO Center= -1.2D-12, -1.4D-11,  2.4D-12, r^2= 1.8D+01
   Bfn.  Coefficient  Atom+Function         Bfn.  Coefficient  Atom+Function  
  ----- ------------  ---------------      ----- ------------  ---------------
    10      1.413088  1 Li pz                45      1.413088  2 Li pz         
     7     -0.593353  1 Li pz                42     -0.593353  2 Li pz         
     8     -0.568753  1 Li px                43     -0.568753  2 Li px         
    28     -0.490633  1 Li fxxz              35     -0.490633  1 Li fzzz       
    63     -0.490633  2 Li fxxz              70     -0.490633  2 Li fzzz       

 Vector   31  Occ=0.000000D+00  E= 3.631562D-01
              MO Center= -3.2D-12, -1.3D-11, -1.2D-12, r^2= 1.8D+01
   Bfn.  Coefficient  Atom+Function         Bfn.  Coefficient  Atom+Function  
  ----- ------------  ---------------      ----- ------------  ---------------
     8      1.413088  1 Li px                43      1.413088  2 Li px         
     5     -0.593353  1 Li px                40     -0.593353  2 Li px         
    10      0.568753  1 Li pz                45      0.568753  2 Li pz         
    26     -0.490633  1 Li fxxx              31     -0.490633  1 Li fxzz       
    61     -0.490633  2 Li fxxx              66     -0.490633  2 Li fxzz       

 Vector   32  Occ=0.000000D+00  E= 3.695631D-01
              MO Center= -1.2D-12,  1.3D-11,  2.4D-12, r^2= 1.9D+01
   Bfn.  Coefficient  Atom+Function         Bfn.  Coefficient  Atom+Function  
  ----- ------------  ---------------      ----- ------------  ---------------
    10      1.469739  1 Li pz                45     -1.469739  2 Li pz         
     7     -0.604917  1 Li pz                42      0.604917  2 Li pz         
     8     -0.585255  1 Li px                13     -0.585704  1 Li pz         
    43      0.585255  2 Li px                48      0.585704  2 Li pz         
    28     -0.491559  1 Li fxxz              33     -0.493925  1 Li fyyz       

 Vector   33  Occ=0.000000D+00  E= 3.695631D-01
              MO Center= -2.3D-12,  1.3D-11, -7.8D-13, r^2= 1.9D+01
   Bfn.  Coefficient  Atom+Function         Bfn.  Coefficient  Atom+Function  
  ----- ------------  ---------------      ----- ------------  ---------------
     8      1.469739  1 Li px                43     -1.469739  2 Li px         
     5     -0.604917  1 Li px                40      0.604917  2 Li px         
    10      0.585255  1 Li pz                11     -0.585704  1 Li px         
    45     -0.585255  2 Li pz                46      0.585704  2 Li px         
    26     -0.491559  1 Li fxxx              29     -0.493925  1 Li fxyy       

 Vector   34  Occ=0.000000D+00  E= 3.847365D-01
              MO Center=  9.3D-13, -1.1D-11, -4.7D-13, r^2= 2.2D+01
   Bfn.  Coefficient  Atom+Function         Bfn.  Coefficient  Atom+Function  
  ----- ------------  ---------------      ----- ------------  ---------------
     9      1.438193  1 Li py                44      1.438193  2 Li py         
     6     -0.620168  1 Li py                41     -0.620168  2 Li py         
     4      0.569340  1 Li s                 39     -0.569340  2 Li s          
    32     -0.506433  1 Li fyyy              67     -0.506433  2 Li fyyy       
    27     -0.454020  1 Li fxxy              34     -0.454020  1 Li fyzz       

 Vector   35  Occ=0.000000D+00  E= 4.024158D-01
              MO Center=  3.9D-12,  1.5D-11, -1.4D-12, r^2= 2.0D+01
   Bfn.  Coefficient  Atom+Function         Bfn.  Coefficient  Atom+Function  
  ----- ------------  ---------------      ----- ------------  ---------------
     4      1.472884  1 Li s                 39      1.472884  2 Li s          
    20     -0.923585  1 Li dxx               25     -0.923585  1 Li dzz        
    55     -0.923585  2 Li dxx               60     -0.923585  2 Li dzz        
    23     -0.912527  1 Li dyy               58     -0.912527  2 Li dyy        
    17      0.362019  1 Li dyy               52      0.362019  2 Li dyy        

 Vector   36  Occ=0.000000D+00  E= 4.244509D-01
              MO Center=  2.1D-12,  3.8D-12, -1.1D-12, r^2= 1.5D+01
   Bfn.  Coefficient  Atom+Function         Bfn.  Coefficient  Atom+Function  
  ----- ------------  ---------------      ----- ------------  ---------------
     4      2.113737  1 Li s                 39     -2.113737  2 Li s          
    20     -1.027295  1 Li dxx               25     -1.027295  1 Li dzz        
    55      1.027295  2 Li dxx               60      1.027295  2 Li dzz        
    23     -0.878470  1 Li dyy               58      0.878470  2 Li dyy        
     9     -0.622002  1 Li py                44     -0.622002  2 Li py         

 Vector   37  Occ=0.000000D+00  E= 7.171213D-01
              MO Center= -1.0D-12, -4.3D-12,  1.4D-13, r^2= 1.6D+01
   Bfn.  Coefficient  Atom+Function         Bfn.  Coefficient  Atom+Function  
  ----- ------------  ---------------      ----- ------------  ---------------
    17      0.980120  1 Li dyy               52      0.980120  2 Li dyy        
    23     -0.529440  1 Li dyy               58     -0.529440  2 Li dyy        
    14     -0.486854  1 Li dxx               19     -0.486854  1 Li dzz        
    49     -0.486854  2 Li dxx               54     -0.486854  2 Li dzz        
    20      0.331011  1 Li dxx               25      0.331011  1 Li dzz        


 center of mass
 --------------
 x =   0.00000000 y =   0.00000000 z =   0.00000000

 moments of inertia (a.u.)
 ------------------
         548.125000000000           0.000000000000           0.000000000000
           0.000000000000           0.000000000000           0.000000000000
           0.000000000000           0.000000000000         548.125000000000

  Mulliken analysis of the total density
  --------------------------------------

    Atom       Charge   Shell Charges
 -----------   ------   -------------------------------------------------------
    1 Li   3     3.00   1.99 -0.01  0.50  0.53  0.00 -0.00  0.00 -0.00 -0.00  0.00
    2 Li   3     3.00   1.99 -0.01  0.50  0.53  0.00 -0.00  0.00 -0.00 -0.00  0.00

       Multipole analysis of the density wrt the origin
       ------------------------------------------------

     L   x y z        total         open         nuclear
     -   - - -        -----         ----         -------
     0   0 0 0     -0.000000      0.000000      6.000000

     1   1 0 0     -0.000000      0.000000      0.000000
     1   0 1 0     -0.000000      0.000000      0.000000
     1   0 0 1      0.000000      0.000000      0.000000

     2   2 0 0    -12.624362      0.000000      0.000000
     2   1 1 0     -0.000000      0.000000      0.000000
     2   1 0 1      0.000000      0.000000      0.000000
     2   0 2 0     -9.035532      0.000000    234.375000
     2   0 1 1      0.000000      0.000000      0.000000
     2   0 0 2    -12.624362      0.000000      0.000000


 Parallel integral file used      16 records with       0 large values

 ------------------------------------
     Number of active orbitals      4
     Number of active alpha electrons      3
     Number of active beta electrons       3
 ------------------------------------
                   NWChem Extensible Many-Electron Theory Module
                   ---------------------------------------------

              ======================================================
                   This portion of the program was automatically
                  generated by a Tensor Contraction Engine (TCE).
                  The development of this portion of the program
                 and TCE was supported by US Department of Energy,
                Office of Science, Office of Basic Energy Science.
                      TCE is a product of Battelle and PNNL.
              Please cite: S.Hirata, J.Phys.Chem.A 107, 9887 (2003).
              ======================================================

                                        Li2


            General Information
            -------------------
      Number of processors :     1
         Wavefunction type : Restricted Hartree-Fock
          No. of electrons :     6
           Alpha electrons :     3
            Beta electrons :     3
           No. of orbitals :   140
            Alpha orbitals :    70
             Beta orbitals :    70
        Alpha frozen cores :     0
         Beta frozen cores :     0
     Alpha frozen virtuals :    66
      Beta frozen virtuals :    66
         Spin multiplicity : singlet 
    Number of AO functions :    70
       Number of AO shells :    20
        Use of symmetry is : off
      Symmetry adaption is : off
         Schwarz screening : 0.10D-09

          Correlation Information
          -----------------------
          Calculation type : Coupled-cluster singles & doubles                           
   Perturbative correction : none                                                        
            Max iterations :      300
        Residual threshold : 0.10D-06
     T(0) DIIS level shift : 0.30D+00
     L(0) DIIS level shift : 0.00D+00
     T(1) DIIS level shift : 0.00D+00
     L(1) DIIS level shift : 0.00D+00
     T(R) DIIS level shift : 0.00D+00
     T(I) DIIS level shift : 0.00D+00
   CC-T/L Amplitude update :  5-th order DIIS
                I/O scheme : Global Array Library
        L-threshold :  0.10D-06
        EOM-threshold :  0.10D-06
 no EOMCCSD initial starts read in
 TCE RESTART OPTIONS
 READ_INT:   F
 WRITE_INT:  F
 READ_TA:    F
 WRITE_TA:   F
 READ_XA:    F
 WRITE_XA:   F
 READ_IN3:   F
 WRITE_IN3:  F
 SLICE:      F
 D4D5:       F
 quantumc:   T
 qrotation:  F
 pwtce:      F
 qducc:      F
 nacto:                         0
 nrotv:                         0
 nrot:                          0

            Memory Information
            ------------------
          Available GA space size is    1610607836 doubles
          Available MA space size is    1610609956 doubles

 Maximum block size supplied by input
 Maximum block size         1 doubles

 tile_dim =      1

 Block   Spin    Irrep     Size     Offset   Alpha
 -------------------------------------------------
   1    alpha     a      1 doubles       0       1
   2    alpha     a      1 doubles       1       2
   3    alpha     a      1 doubles       2       3
   4    beta      a      1 doubles       3       1
   5    beta      a      1 doubles       4       2
   6    beta      a      1 doubles       5       3
   7    alpha     a      1 doubles       6       7
   8    beta      a      1 doubles       7       7

 Global array virtual files algorithm will be used

 Parallel file system coherency ......... OK

 Integral file          = ./Li2.aoints.0
 Record size in doubles =  65536        No. of integs per rec  =  43688
 Max. records in memory =     99        Max. records in file   = 280086
 No. of bits per label  =      8        No. of bits per value  =     64


 #quartets = 2.082D+04 #integrals = 7.729D+05 #direct =  0.0% #cached =100.0%


 Fock matrix recomputed
 1-e file size   =               16
 1-e file name   = ./Li2.f1
 Cpu & wall time / sec            0.1            0.1
 4-electron integrals stored in orbital form

 v2    file size   =               55
 4-index algorithm nr.  13 is used
 imaxsize =       30
 imaxsize ichop =        0
 begin_one_electron_integrals
    1    1        -4.6831225363
    3    1         0.1237369302
    4    1         0.0000000007
    2    2        -4.6831656149
    3    2        -0.0000000007
    4    2         0.1286174135
    1    3         0.1237369302
    2    3        -0.0000000007
    3    3        -1.0628154837
    1    4         0.0000000007
    2    4         0.1286174135
    4    4        -1.0726515291
 end_one_electron_integrals
 begin_two_electron_integrals
    1    1    1    1        0.8649374990
    2    1    1    1        0.0000000091
    2    1    2    1        0.7849588490
    3    1    1    1       -0.0603303664
    3    1    2    1       -0.0000000003
    3    1    3    1        0.0068509593
    3    1    2    2       -0.0603327559
    4    1    1    1       -0.0000000011
    4    1    2    1       -0.0629395216
    4    1    4    1        0.0074754899
    4    1    2    2        0.0000000004
    4    1    3    2        0.0071565827
    2    2    1    1        0.8649585159
    2    2    2    1       -0.0000000091
    2    2    2    2        0.8649795336
    3    2    1    1       -0.0000000003
    3    2    2    1       -0.0603590451
    3    2    2    2        0.0000000010
    3    2    3    2        0.0068514317
    4    2    1    1       -0.0629639734
    4    2    2    1        0.0000000004
    4    2    3    1        0.0071565874
    4    2    2    2       -0.0629664691
    4    2    4    2        0.0074759964
    4    2    3    3       -0.0013987751
    3    3    1    1        0.1990679018
    3    3    3    1       -0.0013446724
    3    3    2    2        0.1990683610
    3    3    3    3        0.1559825466
    4    3    1    1        0.0000000014
    4    3    2    1        0.1214725246
    4    3    4    1       -0.0014442015
    4    3    2    2       -0.0000000014
    4    3    3    2       -0.0014268106
    4    3    4    3        0.0772018435
    4    4    1    1        0.2038917340
    4    4    3    1       -0.0014719446
    4    4    2    2        0.2038922429
    4    4    4    2       -0.0015283778
    4    4    3    3        0.1569708727
    4    4    4    4        0.1585584034
 end_two_electron_integrals
 enrep_tce =   0.71999999999999997     
  EHF(A)             =       -14.79725106
  EHF(total)         =       -14.79725106
  Shift (HFtot-HFA)  =         0.00000000
 Cpu & wall time / sec            1.0            1.1
 T1-number-of-tasks                    3

 t1 file size   =                3
 t1 file name   = ./Li2.t1
 t1 file handle =       -998
 T2-number-of-boxes                   15

 t2 file size   =               15
 t2 file name   = ./Li2.t2
 t2 file handle =       -996
CCSD iterations
 ---------------------------------------------------------
 Iter          Residuum       Correlation     Cpu    Wall 
 ---------------------------------------------------------
NEW TASK SCHEDULING
CCSD_T1_NTS --- OK
CCSD_T2_NTS --- OK
    1   0.2508668830674  -0.1497033390141     0.1     0.1
    2   0.1373698494266  -0.1195048114275     0.0     0.1
    3   0.0854676973390  -0.1029629964249     0.1     0.1
    4   0.0568107840204  -0.0926542640573     0.1     0.1
    5   0.0392823561339  -0.0858034075785     0.1     0.1
 MICROCYCLE DIIS UPDATE:                    5                    5
    6   0.0022090167841  -0.0693747129494     0.1     0.1
    7   0.0016656681953  -0.0691081615051     0.1     0.1
    8   0.0012569782867  -0.0689072994768     0.1     0.1
    9   0.0009493142041  -0.0687557019809     0.0     0.1
   10   0.0007173440229  -0.0686412125903     0.0     0.1
 MICROCYCLE DIIS UPDATE:                   10                    5
   11   0.0000015771389  -0.0682868798164     0.1     0.1
   12   0.0000011939285  -0.0682866895247     0.1     0.1
   13   0.0000009036867  -0.0682865455459     0.1     0.1
   14   0.0000006840344  -0.0682864365574     0.1     0.1
   15   0.0000005177680  -0.0682863540612     0.1     0.1
 MICROCYCLE DIIS UPDATE:                   15                    5
   16   0.0000000000012  -0.0682860971598     0.1     0.1
 -----------------------------------------------------------------
 Iterations converged
 CCSD correlation energy / hartree =        -0.068286097159772
 CCSD total energy / hartree       =       -14.865537153054230

 Singles contributions

 Doubles contributions
     4a   (alpha)     4a   (beta ) ---     3a   (alpha)     3a   (beta )       -0.8844678733
 Ground state specification:
 exp(T)|Ref>~(1+T)|Ref>
 ------- a(p)+/a(q) strings ----------

 singles norm

 doubles norm

 Reference string
  0.74905139406481203      :(1a)+ (2a)+ (3a)+ (1b)+ (2b)+ (3b)+ |0>

 Singles strings

 Doubles strings
 -0.66251189351555173      :(4a)+ (4b)+ (3b)  (3a)  (1a)+ (2a)+ (3a)+ (1b)+ (2b)+ (3b)+ |0>
 -------------------------------------

 Parallel integral file used      18 records with       0 large values


 Task  times  cpu:        2.4s     wall:        3.1s


                                NWChem Input Module
                                -------------------


 Summary of allocated global arrays
-----------------------------------
  No active global arrays


MA_summarize_allocated_blocks: starting scan ...
MA_summarize_allocated_blocks: scan completed: 0 heap blocks, 0 stack blocks
MA usage statistics:

	allocation statistics:
					      heap	     stack
					      ----	     -----
	current number of blocks	         0	         0
	maximum number of blocks	        18	        42
	current total bytes		         0	         0
	maximum total bytes		  51988456	  58642712
	maximum total K-bytes		     51989	     58643
	maximum total M-bytes		        52	        59


                                     CITATION
                                     --------
                Please cite the following reference when publishing
                           results obtained with NWChem:

          E. Apra, E. J. Bylaska, W. A. de Jong, N. Govind, K. Kowalski,
       T. P. Straatsma, M. Valiev, H. J. J. van Dam, Y. Alexeev, J. Anchell,
       V. Anisimov, F. W. Aquino, R. Atta-Fynn, J. Autschbach, N. P. Bauman,
     J. C. Becca, D. E. Bernholdt, K. Bhaskaran-Nair, S. Bogatko, P. Borowski,
         J. Boschen, J. Brabec, A. Bruner, E. Cauet, Y. Chen, G. N. Chuev,
      C. J. Cramer, J. Daily, M. J. O. Deegan, T. H. Dunning Jr., M. Dupuis,
   K. G. Dyall, G. I. Fann, S. A. Fischer, A. Fonari, H. Fruchtl, L. Gagliardi,
      J. Garza, N. Gawande, S. Ghosh, K. Glaesemann, A. W. Gotz, J. Hammond,
       V. Helms, E. D. Hermes, K. Hirao, S. Hirata, M. Jacquelin, L. Jensen,
   B. G. Johnson, H. Jonsson, R. A. Kendall, M. Klemm, R. Kobayashi, V. Konkov,
      S. Krishnamoorthy, M. Krishnan, Z. Lin, R. D. Lins, R. J. Littlefield,
      A. J. Logsdail, K. Lopata, W. Ma, A. V. Marenich, J. Martin del Campo,
   D. Mejia-Rodriguez, J. E. Moore, J. M. Mullin, T. Nakajima, D. R. Nascimento,
    J. A. Nichols, P. J. Nichols, J. Nieplocha, A. Otero-de-la-Roza, B. Palmer,
    A. Panyala, T. Pirojsirikul, B. Peng, R. Peverati, J. Pittner, L. Pollack,
   R. M. Richard, P. Sadayappan, G. C. Schatz, W. A. Shelton, D. W. Silverstein,
   D. M. A. Smith, T. A. Soares, D. Song, M. Swart, H. L. Taylor, G. S. Thomas,
            V. Tipparaju, D. G. Truhlar, K. Tsemekhman, T. Van Voorhis,
      A. Vazquez-Mayagoitia, P. Verma, O. Villa, A. Vishnu, K. D. Vogiatzis,
        D. Wang, J. H. Weare, M. J. Williamson, T. L. Windus, K. Wolinski,
        A. T. Wong, Q. Wu, C. Yang, Q. Yu, M. Zacharias, Z. Zhang, Y. Zhao,
                                and R. J. Harrison
                        "NWChem: Past, present, and future
                         J. Chem. Phys. 152, 184102 (2020)
                               doi:10.1063/5.0004997

                                      AUTHORS
                                      -------
  E. Apra, E. J. Bylaska, N. Govind, K. Kowalski, M. Valiev, D. Mejia-Rodriguez,
       A. Kunitsa, N. P. Bauman, A. Panyala, W. A. de Jong, T. P. Straatsma,
        H. J. J. van Dam, D. Wang, T. L. Windus, J. Hammond, J. Autschbach,
    K. Bhaskaran-Nair, J. Brabec, K. Lopata, S. A. Fischer, S. Krishnamoorthy,
     M. Jacquelin, W. Ma, M. Klemm, O. Villa, Y. Chen, V. Anisimov, F. Aquino,
    S. Hirata, M. T. Hackler, Eric Hermes, L. Jensen, J. E. Moore, J. C. Becca,
      V. Konjkov, T. Risthaus, M. Malagoli, A. Marenich, A. Otero-de-la-Roza,
        J. Mullin, P. Nichols, R. Peverati, J. Pittner, Y. Zhao, P.-D. Fan,
        A. Fonari, M. J. Williamson, R. J. Harrison, J. R. Rehr, M. Dupuis,
     D. Silverstein, D. M. A. Smith, J. Nieplocha, V. Tipparaju, M. Krishnan,
     B. E. Van Kuiken, A. Vazquez-Mayagoitia, M. Swart, Q. Wu, T. Van Voorhis,
     A. A. Auer, M. Nooijen, L. D. Crosby, E. Brown, G. Cisneros, G. I. Fann,
   H. Fruchtl, J. Garza, K. Hirao, R. A. Kendall, J. A. Nichols, K. Tsemekhman,
    K. Wolinski, J. Anchell, D. E. Bernholdt, P. Borowski, T. Clark, D. Clerc,
   H. Dachsel, M. J. O. Deegan, K. Dyall, D. Elwood, E. Glendening, M. Gutowski,
   A. C. Hess, J. Jaffe, B. G. Johnson, J. Ju, R. Kobayashi, R. Kutteh, Z. Lin,
   R. Littlefield, X. Long, B. Meng, T. Nakajima, S. Niu, L. Pollack, M. Rosing,
   K. Glaesemann, G. Sandrone, M. Stave, H. Taylor, G. Thomas, J. H. van Lenthe,
                               A. T. Wong, Z. Zhang.

 Total times  cpu:        3.2s     wall:        4.1s
