 argument  1 = input.nw
  NWChem w/ OpenMP: maximum threads =    1



============================== echo of input deck ==============================
 echo
 start Li2
 title "Li2"

 memory total 24 gb

 geometry units bohr
 symmetry c1
        Li  0.00000000  0.00000000  0.00000000
        Li  0.00000000  5.2  0.00000000
 end

 basis
   * library cc-pVTZ
 end

 mcscf
   active  4
   actelec 6
   multiplicity 1
   maxiter 40
   vectors input Li2.mos
   vectors output Li2.mos
 end

 task mcscf

 scf
   vectors input Li2.mos
   vectors output Li2-5.2.mos
   noscf
 end

 tce
   2eorb
   2emet 13
   ccsd
   maxiter 300
   lshift 0.3
 end

 set tce:print_integrals T
 set tce:qorb 4
 set tce:qela 3
 set tce:qelb 3

# set tce:qducc T
# set tce:nactv 1
# set tce:nonhf T
# set tce:ducc_model 3

 set tce:printtol 0.02

 task tce
================================================================================


                                         
                                         


             Northwest Computational Chemistry Package (NWChem) 7.0.1
             --------------------------------------------------------


                    Environmental Molecular Sciences Laboratory
                       Pacific Northwest National Laboratory
                                Richland, WA 99352

                              Copyright (c) 1994-2020
                       Pacific Northwest National Laboratory
                            Battelle Memorial Institute

             NWChem is an open-source computational chemistry package
                        distributed under the terms of the
                      Educational Community License (ECL) 2.0
             A copy of the license is included with this distribution
                              in the LICENSE.TXT file

                                  ACKNOWLEDGMENT
                                  --------------

            This software and its documentation were developed at the
            EMSL at Pacific Northwest National Laboratory, a multiprogram
            national laboratory, operated for the U.S. Department of Energy
            by Battelle under Contract Number DE-AC05-76RL01830. Support
            for this work was provided by the Department of Energy Office
            of Biological and Environmental Research, Office of Basic
            Energy Sciences, and the Office of Advanced Scientific Computing.


           Job information
           ---------------

    hostname        = WE46210
    program         = /home/baum612/code/nwchem/bin/LINUX64/nwchem
    date            = Thu Nov 16 00:29:16 2023

    compiled        = Mon_Nov_06_10:06:57_2023
    source          = /home/baum612/code/nwchem
    nwchem branch   = 7.0.0
    nwchem revision = nwchem_on_git-4191-g39d87d64de
    ga revision     = 5.8.1
    use scalapack   = F
    input           = input.nw
    prefix          = Li2.
    data base       = ./Li2.db
    status          = startup
    nproc           =        1
    time left       =     -1s



           Memory information
           ------------------

    heap     =  805306362 doubles =   6144.0 Mbytes
    stack    =  805306367 doubles =   6144.0 Mbytes
    global   = 1610612736 doubles =  12288.0 Mbytes (distinct from heap & stack)
    total    = 3221225465 doubles =  24576.0 Mbytes
    verify   = yes
    hardfail = no 


           Directory information
           ---------------------

  0 permanent = .
  0 scratch   = .




                                NWChem Input Module
                                -------------------


                                        Li2
                                        ---
 Turning off AUTOSYM since
 SYMMETRY directive was detected!


          ------
          auto-z
          ------
  no constraints, skipping    0.0000000000000000     
  no constraints, skipping    0.0000000000000000     


                             Geometry "geometry" -> ""
                             -------------------------

 Output coordinates in a.u. (scale by  1.000000000 to convert to a.u.)

  No.       Tag          Charge          X              Y              Z
 ---- ---------------- ---------- -------------- -------------- --------------
    1 Li                   3.0000     0.00000000    -2.60000000     0.00000000
    2 Li                   3.0000     0.00000000     2.60000000     0.00000000

      Atomic Mass 
      ----------- 

      Li                 7.016000


 Effective nuclear repulsion energy (a.u.)       1.7307692308

            Nuclear Dipole moment (a.u.) 
            ----------------------------
        X                 Y               Z
 ---------------- ---------------- ----------------
     0.0000000000     0.0000000000     0.0000000000



                                Z-matrix (autoz)
                                -------- 

 Units are Angstrom for bonds and degrees for angles

      Type          Name      I     J     K     L     M      Value
      ----------- --------  ----- ----- ----- ----- ----- ----------
    1 Stretch                  1     2                       2.75172


            XYZ format geometry
            -------------------
     2
 geometry
 Li                    0.00000000    -1.37586085     0.00000000
 Li                    0.00000000     1.37586085     0.00000000

 ==============================================================================
                                internuclear distances
 ------------------------------------------------------------------------------
       center one      |      center two      | atomic units |       a.u.
 ------------------------------------------------------------------------------
    2 Li               |   1 Li               |     5.20000  |     5.20000
 ------------------------------------------------------------------------------
                         number of included internuclear distances:          1
 ==============================================================================





 Summary of "ao basis" -> "" (cartesian)
 ------------------------------------------------------------------------------
       Tag                 Description            Shells   Functions and Types
 ---------------- ------------------------------  ------  ---------------------
 *                          cc-pVTZ                   on all atoms 


                      Basis "ao basis" -> "ao basis" (cartesian)
                      -----
  Li (Lithium)
  ------------
            Exponent  Coefficients 
       -------------- ---------------------------------------------------------
  1 S  5.98800000E+03  0.000133
  1 S  8.98900000E+02  0.001025
  1 S  2.05900000E+02  0.005272
  1 S  5.92400000E+01  0.020929
  1 S  1.98700000E+01  0.066340
  1 S  7.40600000E+00  0.165775
  1 S  2.93000000E+00  0.315038
  1 S  1.18900000E+00  0.393523
  1 S  4.79800000E-01  0.190870

  2 S  5.98800000E+03 -0.000021
  2 S  8.98900000E+02 -0.000161
  2 S  2.05900000E+02 -0.000820
  2 S  5.92400000E+01 -0.003326
  2 S  1.98700000E+01 -0.010519
  2 S  7.40600000E+00 -0.028097
  2 S  2.93000000E+00 -0.055936
  2 S  1.18900000E+00 -0.099237
  2 S  4.79800000E-01 -0.112189

  3 S  7.50900000E-02  1.000000

  4 S  2.83200000E-02  1.000000

  5 P  3.26600000E+00  0.008630
  5 P  6.51100000E-01  0.047538
  5 P  1.69600000E-01  0.209772

  6 P  5.57800000E-02  1.000000

  7 P  2.05000000E-02  1.000000

  8 D  1.87400000E-01  1.000000

  9 D  8.01000000E-02  1.000000

 10 F  1.82900000E-01  1.000000



 Summary of "ao basis" -> "ao basis" (cartesian)
 ------------------------------------------------------------------------------
       Tag                 Description            Shells   Functions and Types
 ---------------- ------------------------------  ------  ---------------------
 Li                         cc-pVTZ                 10       35   4s3p2d1f



                            NWChem Direct MCSCF Module
                            --------------------------


                                        Li2


     -----------------------------------
       Basis functions:             70
       Inactive shells:              0
       Active shells:                4
       Active electrons:             6
       Symmetry:                    a       
       Multiplicity:                 1
       Orbital rotations:          264
     -----------------------------------

     -----------------------------------
       E2 extrapolation:             F
       Conjugacy:                    T
       Micro CI relax:               T
       Canonical orbitals:           T
       Maximum iterations:          40
       Converge threshold:    1.00E-04
       Conjugacy resets:            20
       Initial levelshift:        0.10
     -----------------------------------

 Loading old vectors from job with title :

Li2


   input molecular orbitals = ./Li2.mos
  output molecular orbtials = ./Li2.mos

       No. of determinants:            16


  Starting Orbital Energies
    -2.454585    -2.454290    -0.183712    -0.013471     0.026092     0.026092
     0.038166     0.044765     0.055077     0.055077     0.096722     0.107958
     0.107958     0.123174     0.152200     0.155063     0.155063     0.192582
     0.215303     0.215303     0.254048     0.254048     0.277575     0.277575
     0.304432     0.339481     0.358896     0.358896     0.368362     0.368362
     0.383809     0.393635     0.393635     0.419607     0.493016     0.546845
     0.688010     0.688010     0.701213     0.701213     0.730022     0.730022
     0.745225     0.745225     0.751938     0.770820     0.770820     0.807490
     0.807490     0.834642     0.834642     0.900554     0.900554     0.917707
     0.939086     0.947040     0.947040     0.951608     0.951608     0.954150
     0.954150     0.973491     1.180376     1.216565     1.216565     1.348324
     1.435559     1.747431     6.428040     6.447484

  Orbital Symmetry Irreps
a    a    a    a    a    a    a    a    a    a    a    a    a    a    a   
a    a    a    a    a    a    a    a    a    a    a    a    a    a    a   
a    a    a    a    a    a    a    a    a    a    a    a    a    a    a   
a    a    a    a    a    a    a    a    a    a    a    a    a    a    a   
a    a    a    a    a    a    a    a    a    a   

 Integral file          = ./Li2.aoints.0
 Record size in doubles =  65536        No. of integs per rec  =  43688
 Max. records in memory =     99        Max. records in file   = 280049
 No. of bits per label  =      8        No. of bits per value  =     64


 #quartets = 2.216D+04 #integrals = 8.606D+05 #direct =  0.0% #cached =100.0%




          %%%%% MacroIteration   1 %%%%%


          Number of sigma calls:        5
                       o<<<<< (aa):             0.00
                       o<<<<< (bb):             0.00
                       o<<<<< (ab):             0.00
                       o<<<<< (total)           0.00
                       o<<<<< (aa) ff           0.00
                       o<<<<< (aa) gop          0.00
                       o<<<<< (aa) dot          0.00
                       o<<<<< (ab) str          0.00
                       o<<<<< (ab) gath         0.00
                       o<<<<< (ab) dotab        0.00
                       o<<<<< (ab) scat         0.00
                       o<<<<< (ab) sync         0.00
                       o<<<<< Density           0.00
                       o<<<<< Density one       0.00
                       o<<<<< Density two       0.00
                       o<<<<< Density ab        0.00
                       o<<<<< Spin adapt        0.00
                       o<<<<< Symm adapt        0.00

                       o<<<<< (ab) max sync:      0.00

           >>>| Valence CI:            -16.611788979862
           >>>| MCSCF energy:          -14.881019749093
           >>>| Gradient norm:          0.870853936D-02
     --- Warning:   33 Hessian diagonals < 0.05 ---

                              ----- Line search ------

        step       energy         lsg     num-lsg   num-lsh   lsrat    time
      ------- ---------------- --------- --------- --------- ------- --------
       0.0000     -14.88101975 -1.37D-05  0.00D+00  0.00D+00 0.0D+00      0.7

          Number of sigma calls:        5
                       o<<<<< (aa):             0.00
                       o<<<<< (bb):             0.00
                       o<<<<< (ab):             0.00
                       o<<<<< (total)           0.00
                       o<<<<< (aa) ff           0.00
                       o<<<<< (aa) gop          0.00
                       o<<<<< (aa) dot          0.00
                       o<<<<< (ab) str          0.00
                       o<<<<< (ab) gath         0.00
                       o<<<<< (ab) dotab        0.00
                       o<<<<< (ab) scat         0.00
                       o<<<<< (ab) sync         0.00
                       o<<<<< Density           0.00
                       o<<<<< Density one       0.00
                       o<<<<< Density two       0.00
                       o<<<<< Density ab        0.00
                       o<<<<< Spin adapt        0.00
                       o<<<<< Symm adapt        0.00

                       o<<<<< (ab) max sync:      0.00
       1.0000     -14.88102681 -4.35D-07 -4.35D-07  1.33D-05 3.2D-02      0.8
     --- Orbitals canonicalized ---



          %%%%% MacroIteration   2 %%%%%


          Number of sigma calls:        5
                       o<<<<< (aa):             0.00
                       o<<<<< (bb):             0.00
                       o<<<<< (ab):             0.00
                       o<<<<< (total)           0.00
                       o<<<<< (aa) ff           0.00
                       o<<<<< (aa) gop          0.00
                       o<<<<< (aa) dot          0.00
                       o<<<<< (ab) str          0.00
                       o<<<<< (ab) gath         0.00
                       o<<<<< (ab) dotab        0.00
                       o<<<<< (ab) scat         0.00
                       o<<<<< (ab) sync         0.00
                       o<<<<< Density           0.00
                       o<<<<< Density one       0.00
                       o<<<<< Density two       0.00
                       o<<<<< Density ab        0.00
                       o<<<<< Spin adapt        0.00
                       o<<<<< Symm adapt        0.00

                       o<<<<< (ab) max sync:      0.00

           >>>| Valence CI:            -16.611796041096
           >>>| MCSCF energy:          -14.881026810327
           >>>| Gradient norm:          0.229585403D-03
     --- Warning:   33 Hessian diagonals < 0.05 ---
     --- Conjugacy reset ---

                              ----- Line search ------

        step       energy         lsg     num-lsg   num-lsh   lsrat    time
      ------- ---------------- --------- --------- --------- ------- --------
       0.0000     -14.88102681 -3.34D-07  0.00D+00  0.00D+00 0.0D+00      1.1

          Number of sigma calls:        5
                       o<<<<< (aa):             0.00
                       o<<<<< (bb):             0.00
                       o<<<<< (ab):             0.00
                       o<<<<< (total)           0.00
                       o<<<<< (aa) ff           0.00
                       o<<<<< (aa) gop          0.00
                       o<<<<< (aa) dot          0.00
                       o<<<<< (ab) str          0.00
                       o<<<<< (ab) gath         0.00
                       o<<<<< (ab) dotab        0.00
                       o<<<<< (ab) scat         0.00
                       o<<<<< (ab) sync         0.00
                       o<<<<< Density           0.00
                       o<<<<< Density one       0.00
                       o<<<<< Density two       0.00
                       o<<<<< Density ab        0.00
                       o<<<<< Spin adapt        0.00
                       o<<<<< Symm adapt        0.00

                       o<<<<< (ab) max sync:      0.00
       1.0000     -14.88102700 -3.80D-08 -3.82D-08  2.96D-07 1.1D-01      1.2

          Number of sigma calls:        4
                       o<<<<< (aa):             0.00
                       o<<<<< (bb):             0.00
                       o<<<<< (ab):             0.00
                       o<<<<< (total)           0.00
                       o<<<<< (aa) ff           0.00
                       o<<<<< (aa) gop          0.00
                       o<<<<< (aa) dot          0.00
                       o<<<<< (ab) str          0.00
                       o<<<<< (ab) gath         0.00
                       o<<<<< (ab) dotab        0.00
                       o<<<<< (ab) scat         0.00
                       o<<<<< (ab) sync         0.00
                       o<<<<< Density           0.00
                       o<<<<< Density one       0.00
                       o<<<<< Density two       0.00
                       o<<<<< Density ab        0.00
                       o<<<<< Spin adapt        0.00
                       o<<<<< Symm adapt        0.00

                       o<<<<< (ab) max sync:      0.00
       1.1284     -14.88102700  1.32D-10  1.30D-10  2.97D-07 4.0D-04      1.3



          %%%%% MacroIteration   3 %%%%%


          Number of sigma calls:        1
                       o<<<<< (aa):             0.00
                       o<<<<< (bb):             0.00
                       o<<<<< (ab):             0.00
                       o<<<<< (total)           0.00
                       o<<<<< (aa) ff           0.00
                       o<<<<< (aa) gop          0.00
                       o<<<<< (aa) dot          0.00
                       o<<<<< (ab) str          0.00
                       o<<<<< (ab) gath         0.00
                       o<<<<< (ab) dotab        0.00
                       o<<<<< (ab) scat         0.00
                       o<<<<< (ab) sync         0.00
                       o<<<<< Density           0.00
                       o<<<<< Density one       0.00
                       o<<<<< Density two       0.00
                       o<<<<< Density ab        0.00
                       o<<<<< Spin adapt        0.00
                       o<<<<< Symm adapt        0.00

                       o<<<<< (ab) max sync:      0.00

           >>>| Valence CI:            -16.611796229871
           >>>| MCSCF energy:          -14.881026999101
           >>>| Gradient norm:          0.448542732D-04




     ==============================
            MCSCF Converged
     ==============================



          Canonical Eigenvalues

              1      
    1   -2.4553
    2   -2.4550
    3   -0.1826
    4   -0.0140
    5    0.0262
    6    0.0262
    7    0.0380
    8    0.0448
    9    0.0548
   10    0.0548
   11    0.0969
   12    0.1084
   13    0.1084
   14    0.1226
   15    0.1525
   16    0.1541
   17    0.1541
   18    0.1920
   19    0.2153
   20    0.2153
   21    0.2524
   22    0.2524
   23    0.2765
   24    0.2765
   25    0.3037
   26    0.3396
   27    0.3574
   28    0.3574
   29    0.3690
   30    0.3690
   31    0.3841
   32    0.3927
   33    0.3927
   34    0.4204
   35    0.4889
   36    0.5361
   37    0.6863
   38    0.6863
   39    0.7017
   40    0.7017
   41    0.7315
   42    0.7315
   43    0.7426
   44    0.7426
   45    0.7490
   46    0.7693
   47    0.7693
   48    0.8046
   49    0.8046
   50    0.8314
   51    0.8314
   52    0.8929
   53    0.8929
   54    0.9195
   55    0.9288
   56    0.9440
   57    0.9440
   58    0.9452
   59    0.9452
   60    0.9531
   61    0.9531
   62    0.9676
   63    1.1713
   64    1.2045
   65    1.2045
   66    1.3311
   67    1.4210
   68    1.7118
   69    6.4282
   70    6.4485


          Converged CI vector

   Index           Coefficient          Config. Occupation
         1          0.97646521          1  2  3  1  2  3
         6         -0.21566047          1  2  4  1  2  4

          Number of sigma calls:        1
                       o<<<<< (aa):             0.00
                       o<<<<< (bb):             0.00
                       o<<<<< (ab):             0.00
                       o<<<<< (total)           0.00
                       o<<<<< (aa) ff           0.00
                       o<<<<< (aa) gop          0.00
                       o<<<<< (aa) dot          0.00
                       o<<<<< (ab) str          0.00
                       o<<<<< (ab) gath         0.00
                       o<<<<< (ab) dotab        0.00
                       o<<<<< (ab) scat         0.00
                       o<<<<< (ab) sync         0.00
                       o<<<<< Density           0.00
                       o<<<<< Density one       0.00
                       o<<<<< Density two       0.00
                       o<<<<< Density ab        0.00
                       o<<<<< Spin adapt        0.00
                       o<<<<< Symm adapt        0.00

                       o<<<<< (ab) max sync:      0.00



          Natural orbital occupation numbers

              1      
    1    2.0000
    2    2.0000
    3    1.9070
    4    0.0930


          Number of sigma calls:        5
                       o<<<<< (aa):             0.00
                       o<<<<< (bb):             0.00
                       o<<<<< (ab):             0.00
                       o<<<<< (total)           0.00
                       o<<<<< (aa) ff           0.00
                       o<<<<< (aa) gop          0.00
                       o<<<<< (aa) dot          0.00
                       o<<<<< (ab) str          0.00
                       o<<<<< (ab) gath         0.00
                       o<<<<< (ab) dotab        0.00
                       o<<<<< (ab) scat         0.00
                       o<<<<< (ab) sync         0.00
                       o<<<<< Density           0.00
                       o<<<<< Density one       0.00
                       o<<<<< Density two       0.00
                       o<<<<< Density ab        0.00
                       o<<<<< Spin adapt        0.00
                       o<<<<< Symm adapt        0.00

                       o<<<<< (ab) max sync:      0.00


       Final MCSCF results 
       ------------------- 

       Total MCSCF energy =    -14.881026999101
            Gradient norm =      4.5D-05

    CPU time for solution =      1.3s
   Wall time for solution =      1.5s



                        Analysis of MCSCF natural orbitals
                        ----------------------------------

 Vector    1  Occ=1.999996D+00  E=-2.455257D+00  Symmetry=a
              MO Center= -8.6D-10, -1.1D-09, -1.3D-09, r^2= 2.0D+00
   Bfn.  Coefficient  Atom+Function         Bfn.  Coefficient  Atom+Function  
  ----- ------------  ---------------      ----- ------------  ---------------
     1      0.704139  1 Li s                 36      0.704139  2 Li s          

 Vector    2  Occ=1.999996D+00  E=-2.455019D+00  Symmetry=a
              MO Center= -6.2D-10,  1.1D-09, -9.2D-10, r^2= 2.0D+00
   Bfn.  Coefficient  Atom+Function         Bfn.  Coefficient  Atom+Function  
  ----- ------------  ---------------      ----- ------------  ---------------
     1      0.704944  1 Li s                 36     -0.704944  2 Li s          

 Vector    3  Occ=1.906978D+00  E=-1.826093D-01  Symmetry=a
              MO Center= -1.5D-06, -2.6D-13, -2.2D-06, r^2= 5.4D+00
   Bfn.  Coefficient  Atom+Function         Bfn.  Coefficient  Atom+Function  
  ----- ------------  ---------------      ----- ------------  ---------------
     3      0.336179  1 Li s                 38      0.336179  2 Li s          
     4      0.284041  1 Li s                 39      0.284041  2 Li s          
     2      0.197018  1 Li s                 37      0.197018  2 Li s          

 Vector    4  Occ=9.303090D-02  E=-1.397976D-02  Symmetry=a
              MO Center=  2.3D-08,  1.2D-13,  3.4D-08, r^2= 7.0D+00
   Bfn.  Coefficient  Atom+Function         Bfn.  Coefficient  Atom+Function  
  ----- ------------  ---------------      ----- ------------  ---------------
     3      0.767429  1 Li s                 38     -0.767429  2 Li s          
     4      0.454150  1 Li s                 39     -0.454150  2 Li s          
     2      0.266297  1 Li s                 37     -0.266297  2 Li s          

 Vector    5  Occ=0.000000D+00  E= 2.619937D-02  Symmetry=a
              MO Center=  1.4D-06,  2.6D-13,  2.0D-06, r^2= 1.7D+01
   Bfn.  Coefficient  Atom+Function         Bfn.  Coefficient  Atom+Function  
  ----- ------------  ---------------      ----- ------------  ---------------
    13      0.445948  1 Li pz                48      0.445948  2 Li pz         
    11      0.295899  1 Li px                46      0.295899  2 Li px         

 Vector    6  Occ=0.000000D+00  E= 2.619937D-02  Symmetry=a
              MO Center=  3.2D-08,  1.2D-13,  2.2D-08, r^2= 1.7D+01
   Bfn.  Coefficient  Atom+Function         Bfn.  Coefficient  Atom+Function  
  ----- ------------  ---------------      ----- ------------  ---------------
    11      0.445948  1 Li px                46      0.445948  2 Li px         
    13     -0.295899  1 Li pz                48     -0.295899  2 Li pz         

 Vector    7  Occ=0.000000D+00  E= 3.795834D-02  Symmetry=a
              MO Center= -2.7D-08, -9.5D-12, -4.1D-08, r^2= 2.6D+01
   Bfn.  Coefficient  Atom+Function         Bfn.  Coefficient  Atom+Function  
  ----- ------------  ---------------      ----- ------------  ---------------
    12      0.997699  1 Li py                47     -0.997699  2 Li py         
     4     -0.822265  1 Li s                 39     -0.822265  2 Li s          
     3      0.360712  1 Li s                 38      0.360712  2 Li s          

 Vector    8  Occ=0.000000D+00  E= 4.481086D-02  Symmetry=a
              MO Center= -1.0D-06,  9.0D-12, -1.5D-06, r^2= 4.0D+01
   Bfn.  Coefficient  Atom+Function         Bfn.  Coefficient  Atom+Function  
  ----- ------------  ---------------      ----- ------------  ---------------
     4      4.633446  1 Li s                 39     -4.633446  2 Li s          
    12      2.229425  1 Li py                47      2.229425  2 Li py         
     3     -0.910907  1 Li s                 38      0.910907  2 Li s          
     9     -0.476596  1 Li py                44     -0.476596  2 Li py         
    23     -0.314439  1 Li dyy               58      0.314439  2 Li dyy        

 Vector    9  Occ=0.000000D+00  E= 5.483566D-02  Symmetry=a
              MO Center= -3.3D-07, -1.9D-13,  7.1D-07, r^2= 2.8D+01
   Bfn.  Coefficient  Atom+Function         Bfn.  Coefficient  Atom+Function  
  ----- ------------  ---------------      ----- ------------  ---------------
    13      1.520855  1 Li pz                48     -1.520855  2 Li pz         
    11     -0.687165  1 Li px                46      0.687165  2 Li px         
    10     -0.326809  1 Li pz                45      0.326809  2 Li pz         

 Vector   10  Occ=0.000000D+00  E= 5.483566D-02  Symmetry=a
              MO Center=  1.2D-06, -1.4D-13,  5.2D-07, r^2= 2.8D+01
   Bfn.  Coefficient  Atom+Function         Bfn.  Coefficient  Atom+Function  
  ----- ------------  ---------------      ----- ------------  ---------------
    11      1.520855  1 Li px                46     -1.520855  2 Li px         
    13      0.687165  1 Li pz                48     -0.687165  2 Li pz         
     8     -0.326809  1 Li px                43      0.326809  2 Li px         

 Vector   11  Occ=0.000000D+00  E= 9.691465D-02  Symmetry=a
              MO Center= -2.3D-06,  9.2D-13, -3.4D-06, r^2= 1.8D+01
   Bfn.  Coefficient  Atom+Function         Bfn.  Coefficient  Atom+Function  
  ----- ------------  ---------------      ----- ------------  ---------------
     4     -1.124077  1 Li s                 39     -1.124077  2 Li s          
     3      1.058943  1 Li s                 38      1.058943  2 Li s          
    12     -1.000902  1 Li py                47      1.000902  2 Li py         
     9      0.489414  1 Li py                44     -0.489414  2 Li py         
    20      0.308880  1 Li dxx               25      0.308880  1 Li dzz        

 Vector   12  Occ=0.000000D+00  E= 1.084187D-01  Symmetry=a
              MO Center=  1.5D-06, -1.4D-14,  2.3D-06, r^2= 1.7D+01
   Bfn.  Coefficient  Atom+Function         Bfn.  Coefficient  Atom+Function  
  ----- ------------  ---------------      ----- ------------  ---------------
    10      0.906865  1 Li pz                45      0.906865  2 Li pz         
    13     -0.608538  1 Li pz                48     -0.608538  2 Li pz         
     8      0.596100  1 Li px                43      0.596100  2 Li px         
    11     -0.400004  1 Li px                46     -0.400004  2 Li px         

 Vector   13  Occ=0.000000D+00  E= 1.084187D-01  Symmetry=a
              MO Center=  3.3D-08, -7.1D-14, -1.3D-09, r^2= 1.7D+01
   Bfn.  Coefficient  Atom+Function         Bfn.  Coefficient  Atom+Function  
  ----- ------------  ---------------      ----- ------------  ---------------
     8      0.906865  1 Li px                43      0.906865  2 Li px         
    11     -0.608538  1 Li px                46     -0.608538  2 Li px         
    10     -0.596100  1 Li pz                45     -0.596100  2 Li pz         
    13      0.400004  1 Li pz                48      0.400004  2 Li pz         

 Vector   14  Occ=0.000000D+00  E= 1.225973D-01  Symmetry=a
              MO Center=  8.8D-07, -2.0D-13,  1.3D-06, r^2= 1.7D+01
   Bfn.  Coefficient  Atom+Function         Bfn.  Coefficient  Atom+Function  
  ----- ------------  ---------------      ----- ------------  ---------------
     4      1.192197  1 Li s                 39      1.192197  2 Li s          
     9      0.970352  1 Li py                44     -0.970352  2 Li py         
     3     -0.960602  1 Li s                 38     -0.960602  2 Li s          
    12     -0.761960  1 Li py                47      0.761960  2 Li py         
    23     -0.311192  1 Li dyy               58     -0.311192  2 Li dyy        


 Wrote Lagrangian and 1- and 2-particle density matrices to ./Li2.mcpdm


     Multipole analysis of the density
     ---------------------------------

     L   x y z        total        nuclear
     -   - - -        -----        -------
     0   0 0 0     -0.000000      6.000000

     1   1 0 0      0.000005      0.000000
     1   0 1 0      0.000000      0.000000
     1   0 0 1      0.000008      0.000000

     2   2 0 0    -11.985195      0.000000
     2   1 1 0     -0.000000      0.000000
     2   1 0 1     -0.000000      0.000000
     2   0 2 0     -3.782803     40.560000
     2   0 1 1      0.000000      0.000000
     2   0 0 2    -11.985195      0.000000


  Mulliken analysis of the total density
  --------------------------------------

    Atom       Charge   Shell Charges
 -----------   ------   -------------------------------------------------------
    1 Li   3     3.00   1.99 -0.02  0.52  0.48  0.02  0.03  0.00 -0.00 -0.02 -0.00
    2 Li   3     3.00   1.99 -0.02  0.52  0.48  0.02  0.03  0.00 -0.00 -0.02 -0.00

    Mulliken analysis of the active space density
    ---------------------------------------------

    Atom       Charge   Shell Charges
 -----------   ------   -------------------------------------------------------
    1 Li   3     3.00   1.99 -0.02  0.52  0.48  0.02  0.03  0.00 -0.00 -0.02 -0.00
    2 Li   3     3.00   1.99 -0.02  0.52  0.48  0.02  0.03  0.00 -0.00 -0.02 -0.00

 Parallel integral file used      20 records with       0 large values


 Task  times  cpu:        1.4s     wall:        1.5s


                                NWChem Input Module
                                -------------------


                                 NWChem SCF Module
                                 -----------------


                                        Li2



  ao basis        = "ao basis"
  functions       =    70
  atoms           =     2
  closed shells   =     3
  open shells     =     0
  charge          =   0.00
  wavefunction    = RHF 
  input vectors   = ./Li2.mos
  output vectors  = ./Li2-5.2.mos
  use symmetry    = F
  symmetry adapt  = F


 Summary of "ao basis" -> "ao basis" (cartesian)
 ------------------------------------------------------------------------------
       Tag                 Description            Shells   Functions and Types
 ---------------- ------------------------------  ------  ---------------------
 Li                         cc-pVTZ                 10       35   4s3p2d1f



 Forming initial guess at       1.5s


 Loading old vectors from job with title :

Li2


 Starting SCF solution at       1.5s



 ----------------------------------------------
         Quadratically convergent ROHF

 Convergence threshold     :          1.000E-04
 Maximum no. of iterations :           30
 Final Fock-matrix accuracy:          1.000E-07
 ----------------------------------------------


 Integral file          = ./Li2.aoints.0
 Record size in doubles =  65536        No. of integs per rec  =  43688
 Max. records in memory =     99        Max. records in file   = 280101
 No. of bits per label  =      8        No. of bits per value  =     64


 #quartets = 2.216D+04 #integrals = 8.606D+05 #direct =  0.0% #cached =100.0%



       Final RHF  results 
       ------------------ 

         Total SCF energy =    -14.870940124713
      One-electron energy =    -23.022713164881
      Two-electron energy =      6.421003809399
 Nuclear repulsion energy =      1.730769230769

        Time for solution =      0.2s


             Final eigenvalues
             -----------------

              1      
    1   -2.4553
    2   -2.4550
    3   -0.1826
    4   -0.0140
    5    0.0262
    6    0.0262
    7    0.0380
    8    0.0448
    9    0.0548
   10    0.0548
   11    0.0969
   12    0.1084
   13    0.1084

                       ROHF Final Molecular Orbital Analysis
                       -------------------------------------

 Vector    2  Occ=2.000000D+00  E=-2.455019D+00
              MO Center= -6.2D-10,  1.1D-09, -9.2D-10, r^2= 2.0D+00
   Bfn.  Coefficient  Atom+Function         Bfn.  Coefficient  Atom+Function  
  ----- ------------  ---------------      ----- ------------  ---------------
     1      0.704944  1 Li s                 36     -0.704944  2 Li s          

 Vector    3  Occ=2.000000D+00  E=-1.826093D-01
              MO Center= -1.5D-06, -2.6D-13, -2.2D-06, r^2= 5.4D+00
   Bfn.  Coefficient  Atom+Function         Bfn.  Coefficient  Atom+Function  
  ----- ------------  ---------------      ----- ------------  ---------------
     3      0.336179  1 Li s                 38      0.336179  2 Li s          
     4      0.284041  1 Li s                 39      0.284041  2 Li s          
     2      0.197018  1 Li s                 37      0.197018  2 Li s          

 Vector    4  Occ=0.000000D+00  E=-1.397976D-02
              MO Center=  2.3D-08,  1.2D-13,  3.4D-08, r^2= 7.0D+00
   Bfn.  Coefficient  Atom+Function         Bfn.  Coefficient  Atom+Function  
  ----- ------------  ---------------      ----- ------------  ---------------
     3      0.767429  1 Li s                 38     -0.767429  2 Li s          
     4      0.454150  1 Li s                 39     -0.454150  2 Li s          
     2      0.266297  1 Li s                 37     -0.266297  2 Li s          

 Vector    5  Occ=0.000000D+00  E= 2.619937D-02
              MO Center=  1.4D-06,  2.6D-13,  2.0D-06, r^2= 1.7D+01
   Bfn.  Coefficient  Atom+Function         Bfn.  Coefficient  Atom+Function  
  ----- ------------  ---------------      ----- ------------  ---------------
    13      0.445948  1 Li pz                48      0.445948  2 Li pz         
    11      0.295899  1 Li px                46      0.295899  2 Li px         

 Vector    6  Occ=0.000000D+00  E= 2.619937D-02
              MO Center=  3.2D-08,  1.2D-13,  2.2D-08, r^2= 1.7D+01
   Bfn.  Coefficient  Atom+Function         Bfn.  Coefficient  Atom+Function  
  ----- ------------  ---------------      ----- ------------  ---------------
    11      0.445948  1 Li px                46      0.445948  2 Li px         
    13     -0.295899  1 Li pz                48     -0.295899  2 Li pz         

 Vector    7  Occ=0.000000D+00  E= 3.795834D-02
              MO Center= -2.7D-08, -9.4D-12, -4.1D-08, r^2= 2.6D+01
   Bfn.  Coefficient  Atom+Function         Bfn.  Coefficient  Atom+Function  
  ----- ------------  ---------------      ----- ------------  ---------------
    12      0.997699  1 Li py                47     -0.997699  2 Li py         
     4     -0.822265  1 Li s                 39     -0.822265  2 Li s          
     3      0.360712  1 Li s                 38      0.360712  2 Li s          

 Vector    8  Occ=0.000000D+00  E= 4.481086D-02
              MO Center= -1.0D-06,  9.0D-12, -1.5D-06, r^2= 4.0D+01
   Bfn.  Coefficient  Atom+Function         Bfn.  Coefficient  Atom+Function  
  ----- ------------  ---------------      ----- ------------  ---------------
     4      4.633446  1 Li s                 39     -4.633446  2 Li s          
    12      2.229425  1 Li py                47      2.229425  2 Li py         
     3     -0.910907  1 Li s                 38      0.910907  2 Li s          
     9     -0.476596  1 Li py                44     -0.476596  2 Li py         
    23     -0.314439  1 Li dyy               58      0.314439  2 Li dyy        

 Vector    9  Occ=0.000000D+00  E= 5.483566D-02
              MO Center= -3.3D-07, -1.9D-13,  7.1D-07, r^2= 2.8D+01
   Bfn.  Coefficient  Atom+Function         Bfn.  Coefficient  Atom+Function  
  ----- ------------  ---------------      ----- ------------  ---------------
    13      1.520855  1 Li pz                48     -1.520855  2 Li pz         
    11     -0.687165  1 Li px                46      0.687165  2 Li px         
    10     -0.326809  1 Li pz                45      0.326809  2 Li pz         

 Vector   10  Occ=0.000000D+00  E= 5.483566D-02
              MO Center=  1.2D-06, -1.4D-13,  5.2D-07, r^2= 2.8D+01
   Bfn.  Coefficient  Atom+Function         Bfn.  Coefficient  Atom+Function  
  ----- ------------  ---------------      ----- ------------  ---------------
    11      1.520855  1 Li px                46     -1.520855  2 Li px         
    13      0.687165  1 Li pz                48     -0.687165  2 Li pz         
     8     -0.326809  1 Li px                43      0.326809  2 Li px         

 Vector   11  Occ=0.000000D+00  E= 9.691465D-02
              MO Center= -2.3D-06,  9.1D-13, -3.4D-06, r^2= 1.8D+01
   Bfn.  Coefficient  Atom+Function         Bfn.  Coefficient  Atom+Function  
  ----- ------------  ---------------      ----- ------------  ---------------
     4     -1.124077  1 Li s                 39     -1.124077  2 Li s          
     3      1.058943  1 Li s                 38      1.058943  2 Li s          
    12     -1.000902  1 Li py                47      1.000902  2 Li py         
     9      0.489414  1 Li py                44     -0.489414  2 Li py         
    20      0.308880  1 Li dxx               25      0.308880  1 Li dzz        

 Vector   12  Occ=0.000000D+00  E= 1.084187D-01
              MO Center=  1.5D-06, -1.4D-14,  2.3D-06, r^2= 1.7D+01
   Bfn.  Coefficient  Atom+Function         Bfn.  Coefficient  Atom+Function  
  ----- ------------  ---------------      ----- ------------  ---------------
    10      0.906865  1 Li pz                45      0.906865  2 Li pz         
    13     -0.608538  1 Li pz                48     -0.608538  2 Li pz         
     8      0.596100  1 Li px                43      0.596100  2 Li px         
    11     -0.400004  1 Li px                46     -0.400004  2 Li px         

 Vector   13  Occ=0.000000D+00  E= 1.084187D-01
              MO Center=  3.3D-08, -7.1D-14, -1.3D-09, r^2= 1.7D+01
   Bfn.  Coefficient  Atom+Function         Bfn.  Coefficient  Atom+Function  
  ----- ------------  ---------------      ----- ------------  ---------------
     8      0.906865  1 Li px                43      0.906865  2 Li px         
    11     -0.608538  1 Li px                46     -0.608538  2 Li px         
    10     -0.596100  1 Li pz                45     -0.596100  2 Li pz         
    13      0.400004  1 Li pz                48      0.400004  2 Li pz         

 Vector   14  Occ=0.000000D+00  E= 1.225973D-01
              MO Center=  8.8D-07, -2.0D-13,  1.3D-06, r^2= 1.7D+01
   Bfn.  Coefficient  Atom+Function         Bfn.  Coefficient  Atom+Function  
  ----- ------------  ---------------      ----- ------------  ---------------
     4      1.192197  1 Li s                 39      1.192197  2 Li s          
     9      0.970352  1 Li py                44     -0.970352  2 Li py         
     3     -0.960602  1 Li s                 38     -0.960602  2 Li s          
    12     -0.761960  1 Li py                47      0.761960  2 Li py         
    23     -0.311192  1 Li dyy               58     -0.311192  2 Li dyy        

 Vector   15  Occ=0.000000D+00  E= 1.524960D-01
              MO Center= -2.0D-07, -6.6D-13, -3.0D-07, r^2= 2.1D+01
   Bfn.  Coefficient  Atom+Function         Bfn.  Coefficient  Atom+Function  
  ----- ------------  ---------------      ----- ------------  ---------------
     4     10.683779  1 Li s                 39    -10.683779  2 Li s          
     9      5.108645  1 Li py                44      5.108645  2 Li py         
    12      1.967711  1 Li py                47      1.967711  2 Li py         
    23      1.281440  1 Li dyy               58     -1.281440  2 Li dyy        
     3      0.682927  1 Li s                 38     -0.682927  2 Li s          

 Vector   16  Occ=0.000000D+00  E= 1.540644D-01
              MO Center=  8.1D-08,  1.3D-13, -2.5D-08, r^2= 1.5D+01
   Bfn.  Coefficient  Atom+Function         Bfn.  Coefficient  Atom+Function  
  ----- ------------  ---------------      ----- ------------  ---------------
     8      1.404928  1 Li px                43     -1.404928  2 Li px         
    11     -1.233181  1 Li px                46      1.233181  2 Li px         
    10     -0.579210  1 Li pz                45      0.579210  2 Li pz         
    13      0.508404  1 Li pz                48     -0.508404  2 Li pz         
    26     -0.153264  1 Li fxxx              31     -0.153264  1 Li fxzz       

 Vector   17  Occ=0.000000D+00  E= 1.540644D-01
              MO Center=  1.6D-07, -1.8D-15,  3.8D-07, r^2= 1.5D+01
   Bfn.  Coefficient  Atom+Function         Bfn.  Coefficient  Atom+Function  
  ----- ------------  ---------------      ----- ------------  ---------------
    10      1.404928  1 Li pz                45     -1.404928  2 Li pz         
    13     -1.233181  1 Li pz                48      1.233181  2 Li pz         
     8      0.579210  1 Li px                43     -0.579210  2 Li px         
    11     -0.508404  1 Li px                46      0.508404  2 Li px         
    28     -0.153264  1 Li fxxz              35     -0.153264  1 Li fzzz       

 Vector   18  Occ=0.000000D+00  E= 1.920171D-01
              MO Center=  4.7D-08,  6.1D-13,  7.0D-08, r^2= 2.1D+01
   Bfn.  Coefficient  Atom+Function         Bfn.  Coefficient  Atom+Function  
  ----- ------------  ---------------      ----- ------------  ---------------
     3      4.151756  1 Li s                  9      4.143465  1 Li py         
    38     -4.151756  2 Li s                 44      4.143465  2 Li py         
     4     -3.496462  1 Li s                 39      3.496462  2 Li s          
    12     -1.533381  1 Li py                23      1.525816  1 Li dyy        
    47     -1.533381  2 Li py                58     -1.525816  2 Li dyy        

 Vector   19  Occ=0.000000D+00  E= 2.153200D-01
              MO Center= -3.3D-08, -4.2D-14, -4.9D-08, r^2= 8.4D+00
   Bfn.  Coefficient  Atom+Function         Bfn.  Coefficient  Atom+Function  
  ----- ------------  ---------------      ----- ------------  ---------------
    22      1.226055  1 Li dxz               57      1.226055  2 Li dxz        
    16     -0.261443  1 Li dxz               51     -0.261443  2 Li dxz        

 Vector   20  Occ=0.000000D+00  E= 2.153200D-01
              MO Center= -3.3D-08,  5.7D-14, -4.9D-08, r^2= 8.4D+00
   Bfn.  Coefficient  Atom+Function         Bfn.  Coefficient  Atom+Function  
  ----- ------------  ---------------      ----- ------------  ---------------
    20      0.613027  1 Li dxx               25     -0.613027  1 Li dzz        
    55      0.613027  2 Li dxx               60     -0.613027  2 Li dzz        

 Vector   21  Occ=0.000000D+00  E= 2.524382D-01
              MO Center=  1.5D-08,  1.6D-13,  9.2D-09, r^2= 1.0D+01
   Bfn.  Coefficient  Atom+Function         Bfn.  Coefficient  Atom+Function  
  ----- ------------  ---------------      ----- ------------  ---------------
    24     -0.942912  1 Li dyz               59      0.942912  2 Li dyz        
    21      0.923711  1 Li dxy               56     -0.923711  2 Li dxy        
    10      0.315180  1 Li pz                45      0.315180  2 Li pz         
     8     -0.308762  1 Li px                43     -0.308762  2 Li px         
    18      0.195743  1 Li dyz               53     -0.195743  2 Li dyz        

 Vector   22  Occ=0.000000D+00  E= 2.524382D-01
              MO Center= -1.7D-08,  1.7D-13, -1.2D-08, r^2= 1.0D+01
   Bfn.  Coefficient  Atom+Function         Bfn.  Coefficient  Atom+Function  
  ----- ------------  ---------------      ----- ------------  ---------------
    21      0.942912  1 Li dxy               56     -0.942912  2 Li dxy        
    24      0.923711  1 Li dyz               59     -0.923711  2 Li dyz        
     8     -0.315180  1 Li px                43     -0.315180  2 Li px         
    10     -0.308762  1 Li pz                45     -0.308762  2 Li pz         
    15     -0.195743  1 Li dxy               50      0.195743  2 Li dxy        

 Vector   23  Occ=0.000000D+00  E= 2.764510D-01
              MO Center= -1.6D-08, -5.3D-14, -2.4D-08, r^2= 1.0D+01
   Bfn.  Coefficient  Atom+Function         Bfn.  Coefficient  Atom+Function  
  ----- ------------  ---------------      ----- ------------  ---------------
    20      0.880831  1 Li dxx               25     -0.880831  1 Li dzz        
    55     -0.880831  2 Li dxx               60      0.880831  2 Li dzz        
    14     -0.162619  1 Li dxx               19      0.162619  1 Li dzz        
    49      0.162619  2 Li dxx               54     -0.162619  2 Li dzz        

 Vector   24  Occ=0.000000D+00  E= 2.764510D-01
              MO Center= -1.6D-08,  4.2D-14, -2.4D-08, r^2= 1.0D+01
   Bfn.  Coefficient  Atom+Function         Bfn.  Coefficient  Atom+Function  
  ----- ------------  ---------------      ----- ------------  ---------------
    22      1.761661  1 Li dxz               57     -1.761661  2 Li dxz        
    16     -0.325238  1 Li dxz               51      0.325238  2 Li dxz        

 Vector   25  Occ=0.000000D+00  E= 3.037450D-01
              MO Center=  4.4D-08,  1.9D-13,  6.5D-08, r^2= 1.1D+01
   Bfn.  Coefficient  Atom+Function         Bfn.  Coefficient  Atom+Function  
  ----- ------------  ---------------      ----- ------------  ---------------
    12     -0.756550  1 Li py                47      0.756550  2 Li py         
     3      0.722403  1 Li s                 38      0.722403  2 Li s          
    23     -0.717677  1 Li dyy               58     -0.717677  2 Li dyy        
    20      0.620343  1 Li dxx               25      0.620343  1 Li dzz        
    55      0.620343  2 Li dxx               60      0.620343  2 Li dzz        

 Vector   26  Occ=0.000000D+00  E= 3.396168D-01
              MO Center= -1.1D-07, -2.8D-12, -1.6D-07, r^2= 1.5D+01
   Bfn.  Coefficient  Atom+Function         Bfn.  Coefficient  Atom+Function  
  ----- ------------  ---------------      ----- ------------  ---------------
     9     11.421494  1 Li py                44     11.421494  2 Li py         
     3      7.866722  1 Li s                 38     -7.866722  2 Li s          
     4      7.222108  1 Li s                 39     -7.222108  2 Li s          
    23      5.489056  1 Li dyy               58     -5.489056  2 Li dyy        
    12      0.576328  1 Li py                47      0.576328  2 Li py         

 Vector   27  Occ=0.000000D+00  E= 3.574346D-01
              MO Center= -4.8D-08, -6.9D-14,  1.3D-07, r^2= 1.1D+01
   Bfn.  Coefficient  Atom+Function         Bfn.  Coefficient  Atom+Function  
  ----- ------------  ---------------      ----- ------------  ---------------
    24      3.374606  1 Li dyz               59      3.374606  2 Li dyz        
    10      1.738816  1 Li pz                45     -1.738816  2 Li pz         
    21     -1.257750  1 Li dxy               56     -1.257750  2 Li dxy        
     8     -0.648075  1 Li px                43      0.648075  2 Li px         
    18     -0.392551  1 Li dyz               53     -0.392551  2 Li dyz        

 Vector   28  Occ=0.000000D+00  E= 3.574346D-01
              MO Center=  1.8D-07, -1.6D-13,  6.7D-08, r^2= 1.1D+01
   Bfn.  Coefficient  Atom+Function         Bfn.  Coefficient  Atom+Function  
  ----- ------------  ---------------      ----- ------------  ---------------
    21      3.374606  1 Li dxy               56      3.374606  2 Li dxy        
     8      1.738816  1 Li px                43     -1.738816  2 Li px         
    24      1.257750  1 Li dyz               59      1.257750  2 Li dyz        
    10      0.648075  1 Li pz                45     -0.648075  2 Li pz         
    15     -0.392551  1 Li dxy               50     -0.392551  2 Li dxy        

 Vector   29  Occ=0.000000D+00  E= 3.690135D-01
              MO Center= -4.0D-09,  3.7D-13,  4.1D-08, r^2= 9.2D+00
   Bfn.  Coefficient  Atom+Function         Bfn.  Coefficient  Atom+Function  
  ----- ------------  ---------------      ----- ------------  ---------------
     8      1.372547  1 Li px                43      1.372547  2 Li px         
     5     -0.614690  1 Li px                40     -0.614690  2 Li px         
    29     -0.558910  1 Li fxyy              64     -0.558910  2 Li fxyy       
    26     -0.524101  1 Li fxxx              31     -0.524101  1 Li fxzz       
    61     -0.524101  2 Li fxxx              66     -0.524101  2 Li fxzz       

 Vector   30  Occ=0.000000D+00  E= 3.690135D-01
              MO Center=  2.3D-08,  9.6D-13, -1.3D-08, r^2= 9.2D+00
   Bfn.  Coefficient  Atom+Function         Bfn.  Coefficient  Atom+Function  
  ----- ------------  ---------------      ----- ------------  ---------------
    10      1.372547  1 Li pz                45      1.372547  2 Li pz         
     7     -0.614690  1 Li pz                42     -0.614690  2 Li pz         
    33     -0.558910  1 Li fyyz              68     -0.558910  2 Li fyyz       
    28     -0.524101  1 Li fxxz              35     -0.524101  1 Li fzzz       
    63     -0.524101  2 Li fxxz              70     -0.524101  2 Li fzzz       

 Vector   31  Occ=0.000000D+00  E= 3.840502D-01
              MO Center=  1.3D-07,  3.1D-12,  2.0D-07, r^2= 1.2D+01
   Bfn.  Coefficient  Atom+Function         Bfn.  Coefficient  Atom+Function  
  ----- ------------  ---------------      ----- ------------  ---------------
     9      1.791094  1 Li py                44     -1.791094  2 Li py         
     4      1.201133  1 Li s                 39      1.201133  2 Li s          
     3     -1.143018  1 Li s                 38     -1.143018  2 Li s          
    20     -0.833964  1 Li dxx               25     -0.833964  1 Li dzz        
    55     -0.833964  2 Li dxx               60     -0.833964  2 Li dzz        

 Vector   32  Occ=0.000000D+00  E= 3.927105D-01
              MO Center=  1.1D-07, -4.5D-13,  5.4D-08, r^2= 1.0D+01
   Bfn.  Coefficient  Atom+Function         Bfn.  Coefficient  Atom+Function  
  ----- ------------  ---------------      ----- ------------  ---------------
     8      2.145140  1 Li px                43     -2.145140  2 Li px         
    11     -0.926033  1 Li px                46      0.926033  2 Li px         
     5     -0.678920  1 Li px                40      0.678920  2 Li px         
    26     -0.570543  1 Li fxxx              31     -0.570543  1 Li fxzz       
    61      0.570543  2 Li fxxx              66      0.570543  2 Li fxzz       

 Vector   33  Occ=0.000000D+00  E= 3.927105D-01
              MO Center=  4.6D-08, -1.1D-12,  1.8D-07, r^2= 1.0D+01
   Bfn.  Coefficient  Atom+Function         Bfn.  Coefficient  Atom+Function  
  ----- ------------  ---------------      ----- ------------  ---------------
    10      2.145140  1 Li pz                45     -2.145140  2 Li pz         
    13     -0.926033  1 Li pz                48      0.926033  2 Li pz         
     7     -0.678920  1 Li pz                42      0.678920  2 Li pz         
    28     -0.570543  1 Li fxxz              35     -0.570543  1 Li fzzz       
    63      0.570543  2 Li fxxz              70      0.570543  2 Li fzzz       

 Vector   34  Occ=0.000000D+00  E= 4.204300D-01
              MO Center= -5.1D-08, -1.2D-12, -7.5D-08, r^2= 8.6D+00
   Bfn.  Coefficient  Atom+Function         Bfn.  Coefficient  Atom+Function  
  ----- ------------  ---------------      ----- ------------  ---------------
    23      2.027808  1 Li dyy               58      2.027808  2 Li dyy        
     9      1.281104  1 Li py                44     -1.281104  2 Li py         
     3     -1.227190  1 Li s                 38     -1.227190  2 Li s          
     4     -0.662701  1 Li s                 39     -0.662701  2 Li s          
    17     -0.510795  1 Li dyy               52     -0.510795  2 Li dyy        

 Vector   35  Occ=0.000000D+00  E= 4.888884D-01
              MO Center= -2.7D-09, -3.5D-13, -4.0D-09, r^2= 1.0D+01
   Bfn.  Coefficient  Atom+Function         Bfn.  Coefficient  Atom+Function  
  ----- ------------  ---------------      ----- ------------  ---------------
     4      5.996489  1 Li s                 39     -5.996489  2 Li s          
    20     -1.406803  1 Li dxx               25     -1.406803  1 Li dzz        
    55      1.406803  2 Li dxx               60      1.406803  2 Li dzz        
    12      1.363915  1 Li py                47      1.363915  2 Li py         
     3     -1.287318  1 Li s                 38      1.287318  2 Li s          

 Vector   36  Occ=0.000000D+00  E= 5.360802D-01
              MO Center=  6.3D-09,  6.6D-13,  9.4D-09, r^2= 1.2D+01
   Bfn.  Coefficient  Atom+Function         Bfn.  Coefficient  Atom+Function  
  ----- ------------  ---------------      ----- ------------  ---------------
     9      9.372162  1 Li py                44      9.372162  2 Li py         
     3      8.930727  1 Li s                 38     -8.930727  2 Li s          
    23      6.268642  1 Li dyy               58     -6.268642  2 Li dyy        
     4      1.013307  1 Li s                 39     -1.013307  2 Li s          
     6      0.971407  1 Li py                41      0.971407  2 Li py         


 center of mass
 --------------
 x =   0.00000000 y =   0.00000000 z =   0.00000000

 moments of inertia (a.u.)
 ------------------
          94.856320000000           0.000000000000           0.000000000000
           0.000000000000           0.000000000000           0.000000000000
           0.000000000000           0.000000000000          94.856320000000

  Mulliken analysis of the total density
  --------------------------------------

    Atom       Charge   Shell Charges
 -----------   ------   -------------------------------------------------------
    1 Li   3     3.00   1.99 -0.02  0.51  0.49  0.02  0.03  0.00 -0.00 -0.02 -0.00
    2 Li   3     3.00   1.99 -0.02  0.51  0.49  0.02  0.03  0.00 -0.00 -0.02 -0.00

       Multipole analysis of the density wrt the origin
       ------------------------------------------------

     L   x y z        total         open         nuclear
     -   - - -        -----         ----         -------
     0   0 0 0     -0.000000      0.000000      6.000000

     1   1 0 0      0.000006      0.000000      0.000000
     1   0 1 0      0.000000      0.000000      0.000000
     1   0 0 1      0.000008      0.000000      0.000000

     2   2 0 0    -12.076444      0.000000      0.000000
     2   1 1 0     -0.000000      0.000000      0.000000
     2   1 0 1     -0.000000      0.000000      0.000000
     2   0 2 0     -3.072909      0.000000     40.560000
     2   0 1 1      0.000000      0.000000      0.000000
     2   0 0 2    -12.076444      0.000000      0.000000


 Parallel integral file used      20 records with       0 large values

 ------------------------------------
     Number of active orbitals      4
     Number of active alpha electrons      3
     Number of active beta electrons       3
 ------------------------------------
                   NWChem Extensible Many-Electron Theory Module
                   ---------------------------------------------

              ======================================================
                   This portion of the program was automatically
                  generated by a Tensor Contraction Engine (TCE).
                  The development of this portion of the program
                 and TCE was supported by US Department of Energy,
                Office of Science, Office of Basic Energy Science.
                      TCE is a product of Battelle and PNNL.
              Please cite: S.Hirata, J.Phys.Chem.A 107, 9887 (2003).
              ======================================================

                                        Li2


            General Information
            -------------------
      Number of processors :     1
         Wavefunction type : Restricted Hartree-Fock
          No. of electrons :     6
           Alpha electrons :     3
            Beta electrons :     3
           No. of orbitals :   140
            Alpha orbitals :    70
             Beta orbitals :    70
        Alpha frozen cores :     0
         Beta frozen cores :     0
     Alpha frozen virtuals :    66
      Beta frozen virtuals :    66
         Spin multiplicity : singlet 
    Number of AO functions :    70
       Number of AO shells :    20
        Use of symmetry is : off
      Symmetry adaption is : off
         Schwarz screening : 0.10D-09

          Correlation Information
          -----------------------
          Calculation type : Coupled-cluster singles & doubles                           
   Perturbative correction : none                                                        
            Max iterations :      300
        Residual threshold : 0.10D-06
     T(0) DIIS level shift : 0.30D+00
     L(0) DIIS level shift : 0.00D+00
     T(1) DIIS level shift : 0.00D+00
     L(1) DIIS level shift : 0.00D+00
     T(R) DIIS level shift : 0.00D+00
     T(I) DIIS level shift : 0.00D+00
   CC-T/L Amplitude update :  5-th order DIIS
                I/O scheme : Global Array Library
        L-threshold :  0.10D-06
        EOM-threshold :  0.10D-06
 no EOMCCSD initial starts read in
 TCE RESTART OPTIONS
 READ_INT:   F
 WRITE_INT:  F
 READ_TA:    F
 WRITE_TA:   F
 READ_XA:    F
 WRITE_XA:   F
 READ_IN3:   F
 WRITE_IN3:  F
 SLICE:      F
 D4D5:       F
 quantumc:   T
 qrotation:  F
 pwtce:      F
 qducc:      F
 nacto:                         0
 nrotv:                         0
 nrot:                          0

            Memory Information
            ------------------
          Available GA space size is    1610607836 doubles
          Available MA space size is    1610609956 doubles

 Maximum block size supplied by input
 Maximum block size         1 doubles

 tile_dim =      1

 Block   Spin    Irrep     Size     Offset   Alpha
 -------------------------------------------------
   1    alpha     a      1 doubles       0       1
   2    alpha     a      1 doubles       1       2
   3    alpha     a      1 doubles       2       3
   4    beta      a      1 doubles       3       1
   5    beta      a      1 doubles       4       2
   6    beta      a      1 doubles       5       3
   7    alpha     a      1 doubles       6       7
   8    beta      a      1 doubles       7       7

 Global array virtual files algorithm will be used

 Parallel file system coherency ......... OK

 Integral file          = ./Li2.aoints.0
 Record size in doubles =  65536        No. of integs per rec  =  43688
 Max. records in memory =     99        Max. records in file   = 280101
 No. of bits per label  =      8        No. of bits per value  =     64


 #quartets = 2.216D+04 #integrals = 8.606D+05 #direct =  0.0% #cached =100.0%


 Fock matrix recomputed
 1-e file size   =               16
 1-e file name   = ./Li2.f1
 Cpu & wall time / sec            0.1            0.1
 4-electron integrals stored in orbital form

 v2    file size   =               55
 4-index algorithm nr.  13 is used
 imaxsize =       30
 imaxsize ichop =        0
 begin_one_electron_integrals
    1    1        -5.0184883474
    3    1         0.1430702253
    2    2        -5.0197784406
    4    2         0.1555014299
    1    3         0.1430702253
    3    3        -1.4730897944
    2    4         0.1555014299
    4    4        -1.3318021412
 end_one_electron_integrals
 begin_two_electron_integrals
    1    1    1    1        0.9195977041
    2    1    1    1        0.0000000006
    2    1    2    1        0.7281614239
    3    1    1    1       -0.0672129853
    3    1    3    1        0.0087551410
    3    1    2    2       -0.0673131364
    4    1    2    1       -0.0742354496
    4    1    4    1        0.0108412365
    4    1    3    2        0.0095782315
    2    2    1    1        0.9203499546
    2    2    2    1       -0.0000000006
    2    2    2    2        0.9211033814
    3    2    2    1       -0.0691648223
    3    2    3    2        0.0087555845
    4    2    1    1       -0.0754547121
    4    2    3    1        0.0095665453
    4    2    2    2       -0.0755617117
    4    2    4    2        0.0108719830
    4    2    3    3       -0.0026403065
    3    3    1    1        0.2702921595
    3    3    3    1       -0.0008055201
    3    3    2    2        0.2702829112
    3    3    3    3        0.2279469143
    4    3    2    1        0.0877333418
    4    3    4    1       -0.0017309550
    4    3    3    2       -0.0028750100
    4    3    4    3        0.0455209175
    4    4    1    1        0.2632228269
    4    4    3    1       -0.0026350842
    4    4    2    2        0.2632528945
    4    4    4    2       -0.0026056991
    4    4    3    3        0.2042739876
    4    4    4    4        0.2060721556
 end_two_electron_integrals
 enrep_tce =    1.7307692307692306     
  EHF(A)             =       -14.87094013
  EHF(total)         =       -14.87094012
  Shift (HFtot-HFA)  =         0.00000001
 Cpu & wall time / sec            1.1            1.1
 T1-number-of-tasks                    3

 t1 file size   =                3
 t1 file name   = ./Li2.t1
 t1 file handle =       -998
 T2-number-of-boxes                   15

 t2 file size   =               15
 t2 file name   = ./Li2.t2
 t2 file handle =       -996
CCSD iterations
 ---------------------------------------------------------
 Iter          Residuum       Correlation     Cpu    Wall 
 ---------------------------------------------------------
NEW TASK SCHEDULING
CCSD_T1_NTS --- OK
CCSD_T2_NTS --- OK
    1   0.0189057357401  -0.0061947381958     0.0     0.1
    2   0.0141623239330  -0.0070635777867     0.1     0.1
    3   0.0109781525189  -0.0077511576714     0.1     0.1
    4   0.0084964747832  -0.0082833595958     0.1     0.1
    5   0.0065678356803  -0.0086953970959     0.1     0.1
 MICROCYCLE DIIS UPDATE:                    5                    5
    6   0.0000384021127  -0.0100949535863     0.0     0.1
    7   0.0000295577141  -0.0100930890499     0.0     0.1
    8   0.0000227476412  -0.0100916556332     0.0     0.1
    9   0.0000175068388  -0.0100905524016     0.1     0.1
   10   0.0000134733798  -0.0100897033716     0.0     0.1
 MICROCYCLE DIIS UPDATE:                   10                    5
   11   0.0000000002299  -0.0100868673105     0.1     0.1
 -----------------------------------------------------------------
 Iterations converged
 CCSD correlation energy / hartree =        -0.010086867310474
 CCSD total energy / hartree       =       -14.881026992023759

 Singles contributions

 Doubles contributions
     4a   (alpha)     4a   (beta ) ---     3a   (alpha)     3a   (beta )       -0.2208621045
 Ground state specification:
 exp(T)|Ref>~(1+T)|Ref>
 ------- a(p)+/a(q) strings ----------

 singles norm

 doubles norm

 Reference string
  0.97646748673338801      :(1a)+ (2a)+ (3a)+ (1b)+ (2b)+ (3b)+ |0>

 Singles strings

 Doubles strings
 -0.21566466412600116      :(4a)+ (4b)+ (3b)  (3a)  (1a)+ (2a)+ (3a)+ (1b)+ (2b)+ (3b)+ |0>
 -------------------------------------

 Parallel integral file used      20 records with       0 large values


 Task  times  cpu:        2.0s     wall:        2.3s


                                NWChem Input Module
                                -------------------


 Summary of allocated global arrays
-----------------------------------
  No active global arrays


MA_summarize_allocated_blocks: starting scan ...
MA_summarize_allocated_blocks: scan completed: 0 heap blocks, 0 stack blocks
MA usage statistics:

	allocation statistics:
					      heap	     stack
					      ----	     -----
	current number of blocks	         0	         0
	maximum number of blocks	        18	        42
	current total bytes		         0	         0
	maximum total bytes		  51988456	  58642712
	maximum total K-bytes		     51989	     58643
	maximum total M-bytes		        52	        59


                                     CITATION
                                     --------
                Please cite the following reference when publishing
                           results obtained with NWChem:

          E. Apra, E. J. Bylaska, W. A. de Jong, N. Govind, K. Kowalski,
       T. P. Straatsma, M. Valiev, H. J. J. van Dam, Y. Alexeev, J. Anchell,
       V. Anisimov, F. W. Aquino, R. Atta-Fynn, J. Autschbach, N. P. Bauman,
     J. C. Becca, D. E. Bernholdt, K. Bhaskaran-Nair, S. Bogatko, P. Borowski,
         J. Boschen, J. Brabec, A. Bruner, E. Cauet, Y. Chen, G. N. Chuev,
      C. J. Cramer, J. Daily, M. J. O. Deegan, T. H. Dunning Jr., M. Dupuis,
   K. G. Dyall, G. I. Fann, S. A. Fischer, A. Fonari, H. Fruchtl, L. Gagliardi,
      J. Garza, N. Gawande, S. Ghosh, K. Glaesemann, A. W. Gotz, J. Hammond,
       V. Helms, E. D. Hermes, K. Hirao, S. Hirata, M. Jacquelin, L. Jensen,
   B. G. Johnson, H. Jonsson, R. A. Kendall, M. Klemm, R. Kobayashi, V. Konkov,
      S. Krishnamoorthy, M. Krishnan, Z. Lin, R. D. Lins, R. J. Littlefield,
      A. J. Logsdail, K. Lopata, W. Ma, A. V. Marenich, J. Martin del Campo,
   D. Mejia-Rodriguez, J. E. Moore, J. M. Mullin, T. Nakajima, D. R. Nascimento,
    J. A. Nichols, P. J. Nichols, J. Nieplocha, A. Otero-de-la-Roza, B. Palmer,
    A. Panyala, T. Pirojsirikul, B. Peng, R. Peverati, J. Pittner, L. Pollack,
   R. M. Richard, P. Sadayappan, G. C. Schatz, W. A. Shelton, D. W. Silverstein,
   D. M. A. Smith, T. A. Soares, D. Song, M. Swart, H. L. Taylor, G. S. Thomas,
            V. Tipparaju, D. G. Truhlar, K. Tsemekhman, T. Van Voorhis,
      A. Vazquez-Mayagoitia, P. Verma, O. Villa, A. Vishnu, K. D. Vogiatzis,
        D. Wang, J. H. Weare, M. J. Williamson, T. L. Windus, K. Wolinski,
        A. T. Wong, Q. Wu, C. Yang, Q. Yu, M. Zacharias, Z. Zhang, Y. Zhao,
                                and R. J. Harrison
                        "NWChem: Past, present, and future
                         J. Chem. Phys. 152, 184102 (2020)
                               doi:10.1063/5.0004997

                                      AUTHORS
                                      -------
  E. Apra, E. J. Bylaska, N. Govind, K. Kowalski, M. Valiev, D. Mejia-Rodriguez,
       A. Kunitsa, N. P. Bauman, A. Panyala, W. A. de Jong, T. P. Straatsma,
        H. J. J. van Dam, D. Wang, T. L. Windus, J. Hammond, J. Autschbach,
    K. Bhaskaran-Nair, J. Brabec, K. Lopata, S. A. Fischer, S. Krishnamoorthy,
     M. Jacquelin, W. Ma, M. Klemm, O. Villa, Y. Chen, V. Anisimov, F. Aquino,
    S. Hirata, M. T. Hackler, Eric Hermes, L. Jensen, J. E. Moore, J. C. Becca,
      V. Konjkov, T. Risthaus, M. Malagoli, A. Marenich, A. Otero-de-la-Roza,
        J. Mullin, P. Nichols, R. Peverati, J. Pittner, Y. Zhao, P.-D. Fan,
        A. Fonari, M. J. Williamson, R. J. Harrison, J. R. Rehr, M. Dupuis,
     D. Silverstein, D. M. A. Smith, J. Nieplocha, V. Tipparaju, M. Krishnan,
     B. E. Van Kuiken, A. Vazquez-Mayagoitia, M. Swart, Q. Wu, T. Van Voorhis,
     A. A. Auer, M. Nooijen, L. D. Crosby, E. Brown, G. Cisneros, G. I. Fann,
   H. Fruchtl, J. Garza, K. Hirao, R. A. Kendall, J. A. Nichols, K. Tsemekhman,
    K. Wolinski, J. Anchell, D. E. Bernholdt, P. Borowski, T. Clark, D. Clerc,
   H. Dachsel, M. J. O. Deegan, K. Dyall, D. Elwood, E. Glendening, M. Gutowski,
   A. C. Hess, J. Jaffe, B. G. Johnson, J. Ju, R. Kobayashi, R. Kutteh, Z. Lin,
   R. Littlefield, X. Long, B. Meng, T. Nakajima, S. Niu, L. Pollack, M. Rosing,
   K. Glaesemann, G. Sandrone, M. Stave, H. Taylor, G. Thomas, J. H. van Lenthe,
                               A. T. Wong, Z. Zhang.

 Total times  cpu:        3.4s     wall:        3.9s
