 argument  1 = input.nw
  NWChem w/ OpenMP: maximum threads =    1



============================== echo of input deck ==============================
 echo
 start Li2
 title "Li2"

 memory total 24 gb

 geometry units bohr
 symmetry c1
        Li  0.00000000  0.00000000  0.00000000
        Li  0.00000000  6.6  0.00000000
 end

 basis
   * library cc-pVTZ
 end

 mcscf
   active  4
   actelec 6
   multiplicity 1
   maxiter 40
   vectors input Li2.mos
   vectors output Li2.mos
 end

 task mcscf

 scf
   vectors input Li2.mos
   vectors output Li2-6.6.mos
   noscf
 end

 tce
   2eorb
   2emet 13
   ccsd
   maxiter 300
   lshift 0.3
 end

 set tce:print_integrals T
 set tce:qorb 4
 set tce:qela 3
 set tce:qelb 3

# set tce:qducc T
# set tce:nactv 1
# set tce:nonhf T
# set tce:ducc_model 3

 set tce:printtol 0.02

 task tce
================================================================================


                                         
                                         


             Northwest Computational Chemistry Package (NWChem) 7.0.1
             --------------------------------------------------------


                    Environmental Molecular Sciences Laboratory
                       Pacific Northwest National Laboratory
                                Richland, WA 99352

                              Copyright (c) 1994-2020
                       Pacific Northwest National Laboratory
                            Battelle Memorial Institute

             NWChem is an open-source computational chemistry package
                        distributed under the terms of the
                      Educational Community License (ECL) 2.0
             A copy of the license is included with this distribution
                              in the LICENSE.TXT file

                                  ACKNOWLEDGMENT
                                  --------------

            This software and its documentation were developed at the
            EMSL at Pacific Northwest National Laboratory, a multiprogram
            national laboratory, operated for the U.S. Department of Energy
            by Battelle under Contract Number DE-AC05-76RL01830. Support
            for this work was provided by the Department of Energy Office
            of Biological and Environmental Research, Office of Basic
            Energy Sciences, and the Office of Advanced Scientific Computing.


           Job information
           ---------------

    hostname        = WE46210
    program         = /home/baum612/code/nwchem/bin/LINUX64/nwchem
    date            = Thu Nov 16 00:30:22 2023

    compiled        = Mon_Nov_06_10:06:57_2023
    source          = /home/baum612/code/nwchem
    nwchem branch   = 7.0.0
    nwchem revision = nwchem_on_git-4191-g39d87d64de
    ga revision     = 5.8.1
    use scalapack   = F
    input           = input.nw
    prefix          = Li2.
    data base       = ./Li2.db
    status          = startup
    nproc           =        1
    time left       =     -1s



           Memory information
           ------------------

    heap     =  805306362 doubles =   6144.0 Mbytes
    stack    =  805306367 doubles =   6144.0 Mbytes
    global   = 1610612736 doubles =  12288.0 Mbytes (distinct from heap & stack)
    total    = 3221225465 doubles =  24576.0 Mbytes
    verify   = yes
    hardfail = no 


           Directory information
           ---------------------

  0 permanent = .
  0 scratch   = .




                                NWChem Input Module
                                -------------------


                                        Li2
                                        ---
 Turning off AUTOSYM since
 SYMMETRY directive was detected!


          ------
          auto-z
          ------
     1 autoz failed with cvr_scaling = 1.2 changing to 1.3
     2 autoz failed with cvr_scaling = 1.3 changing to 1.4
  no constraints, skipping    0.0000000000000000     
  no constraints, skipping    0.0000000000000000     


                             Geometry "geometry" -> ""
                             -------------------------

 Output coordinates in a.u. (scale by  1.000000000 to convert to a.u.)

  No.       Tag          Charge          X              Y              Z
 ---- ---------------- ---------- -------------- -------------- --------------
    1 Li                   3.0000     0.00000000    -3.30000000     0.00000000
    2 Li                   3.0000     0.00000000     3.30000000     0.00000000

      Atomic Mass 
      ----------- 

      Li                 7.016000


 Effective nuclear repulsion energy (a.u.)       1.3636363636

            Nuclear Dipole moment (a.u.) 
            ----------------------------
        X                 Y               Z
 ---------------- ---------------- ----------------
     0.0000000000     0.0000000000     0.0000000000



                                Z-matrix (autoz)
                                -------- 

 Units are Angstrom for bonds and degrees for angles

      Type          Name      I     J     K     L     M      Value
      ----------- --------  ----- ----- ----- ----- ----- ----------
    1 Stretch                  1     2                       3.49257


            XYZ format geometry
            -------------------
     2
 geometry
 Li                    0.00000000    -1.74628492     0.00000000
 Li                    0.00000000     1.74628492     0.00000000



 Summary of "ao basis" -> "" (cartesian)
 ------------------------------------------------------------------------------
       Tag                 Description            Shells   Functions and Types
 ---------------- ------------------------------  ------  ---------------------
 *                          cc-pVTZ                   on all atoms 


                      Basis "ao basis" -> "ao basis" (cartesian)
                      -----
  Li (Lithium)
  ------------
            Exponent  Coefficients 
       -------------- ---------------------------------------------------------
  1 S  5.98800000E+03  0.000133
  1 S  8.98900000E+02  0.001025
  1 S  2.05900000E+02  0.005272
  1 S  5.92400000E+01  0.020929
  1 S  1.98700000E+01  0.066340
  1 S  7.40600000E+00  0.165775
  1 S  2.93000000E+00  0.315038
  1 S  1.18900000E+00  0.393523
  1 S  4.79800000E-01  0.190870

  2 S  5.98800000E+03 -0.000021
  2 S  8.98900000E+02 -0.000161
  2 S  2.05900000E+02 -0.000820
  2 S  5.92400000E+01 -0.003326
  2 S  1.98700000E+01 -0.010519
  2 S  7.40600000E+00 -0.028097
  2 S  2.93000000E+00 -0.055936
  2 S  1.18900000E+00 -0.099237
  2 S  4.79800000E-01 -0.112189

  3 S  7.50900000E-02  1.000000

  4 S  2.83200000E-02  1.000000

  5 P  3.26600000E+00  0.008630
  5 P  6.51100000E-01  0.047538
  5 P  1.69600000E-01  0.209772

  6 P  5.57800000E-02  1.000000

  7 P  2.05000000E-02  1.000000

  8 D  1.87400000E-01  1.000000

  9 D  8.01000000E-02  1.000000

 10 F  1.82900000E-01  1.000000



 Summary of "ao basis" -> "ao basis" (cartesian)
 ------------------------------------------------------------------------------
       Tag                 Description            Shells   Functions and Types
 ---------------- ------------------------------  ------  ---------------------
 Li                         cc-pVTZ                 10       35   4s3p2d1f



                            NWChem Direct MCSCF Module
                            --------------------------


                                        Li2


     -----------------------------------
       Basis functions:             70
       Inactive shells:              0
       Active shells:                4
       Active electrons:             6
       Symmetry:                    a       
       Multiplicity:                 1
       Orbital rotations:          264
     -----------------------------------

     -----------------------------------
       E2 extrapolation:             F
       Conjugacy:                    T
       Micro CI relax:               T
       Canonical orbitals:           T
       Maximum iterations:          40
       Converge threshold:    1.00E-04
       Conjugacy resets:            20
       Initial levelshift:        0.10
     -----------------------------------

 Loading old vectors from job with title :

Li2


   input molecular orbitals = ./Li2.mos
  output molecular orbtials = ./Li2.mos

       No. of determinants:            16


  Starting Orbital Energies
    -2.467257    -2.467240    -0.167536    -0.024530     0.026514     0.026514
     0.035836     0.046204     0.051481     0.051481     0.099557     0.112155
     0.112155     0.115788     0.141917     0.141917     0.149768     0.178902
     0.215251     0.215251     0.232707     0.232707     0.261802     0.261802
     0.292882     0.332522     0.332522     0.369910     0.370961     0.370961
     0.384065     0.386170     0.386170     0.412580     0.423810     0.495594
     0.674478     0.674478     0.700784     0.704734     0.704734     0.733256
     0.733256     0.746081     0.746081     0.751597     0.751597     0.774280
     0.774280     0.791290     0.791290     0.798431     0.798431     0.849997
     0.854294     0.854294     0.932939     0.935335     0.935335     0.943027
     0.943027     0.945881     0.987225     1.045205     1.045205     1.257350
     1.361321     1.504540     6.361460     6.414583

  Orbital Symmetry Irreps
a    a    a    a    a    a    a    a    a    a    a    a    a    a    a   
a    a    a    a    a    a    a    a    a    a    a    a    a    a    a   
a    a    a    a    a    a    a    a    a    a    a    a    a    a    a   
a    a    a    a    a    a    a    a    a    a    a    a    a    a    a   
a    a    a    a    a    a    a    a    a    a   

 Integral file          = ./Li2.aoints.0
 Record size in doubles =  65536        No. of integs per rec  =  43688
 Max. records in memory =     99        Max. records in file   = 280048
 No. of bits per label  =      8        No. of bits per value  =     64


 #quartets = 2.214D+04 #integrals = 8.605D+05 #direct =  0.0% #cached =100.0%




          %%%%% MacroIteration   1 %%%%%


          Number of sigma calls:        5
                       o<<<<< (aa):             0.00
                       o<<<<< (bb):             0.00
                       o<<<<< (ab):             0.00
                       o<<<<< (total)           0.00
                       o<<<<< (aa) ff           0.00
                       o<<<<< (aa) gop          0.00
                       o<<<<< (aa) dot          0.00
                       o<<<<< (ab) str          0.00
                       o<<<<< (ab) gath         0.00
                       o<<<<< (ab) dotab        0.00
                       o<<<<< (ab) scat         0.00
                       o<<<<< (ab) sync         0.00
                       o<<<<< Density           0.00
                       o<<<<< Density one       0.00
                       o<<<<< Density two       0.00
                       o<<<<< Density ab        0.00
                       o<<<<< Spin adapt        0.00
                       o<<<<< Symm adapt        0.00

                       o<<<<< (ab) max sync:      0.00

           >>>| Valence CI:            -16.241912327260
           >>>| MCSCF energy:          -14.878275963624
           >>>| Gradient norm:          0.442920304D-02
     --- Warning:   21 Hessian diagonals < 0.05 ---

                              ----- Line search ------

        step       energy         lsg     num-lsg   num-lsh   lsrat    time
      ------- ---------------- --------- --------- --------- ------- --------
       0.0000     -14.87827596 -8.38D-06  0.00D+00  0.00D+00 0.0D+00      0.7

          Number of sigma calls:        5
                       o<<<<< (aa):             0.00
                       o<<<<< (bb):             0.00
                       o<<<<< (ab):             0.00
                       o<<<<< (total)           0.00
                       o<<<<< (aa) ff           0.00
                       o<<<<< (aa) gop          0.00
                       o<<<<< (aa) dot          0.00
                       o<<<<< (ab) str          0.00
                       o<<<<< (ab) gath         0.00
                       o<<<<< (ab) dotab        0.00
                       o<<<<< (ab) scat         0.00
                       o<<<<< (ab) sync         0.00
                       o<<<<< Density           0.00
                       o<<<<< Density one       0.00
                       o<<<<< Density two       0.00
                       o<<<<< Density ab        0.00
                       o<<<<< Spin adapt        0.00
                       o<<<<< Symm adapt        0.00

                       o<<<<< (ab) max sync:      0.00
       1.0000     -14.87828045 -5.91D-07 -5.90D-07  7.79D-06 7.0D-02      0.8
     --- Orbitals canonicalized ---



          %%%%% MacroIteration   2 %%%%%


          Number of sigma calls:        5
                       o<<<<< (aa):             0.00
                       o<<<<< (bb):             0.00
                       o<<<<< (ab):             0.00
                       o<<<<< (total)           0.00
                       o<<<<< (aa) ff           0.00
                       o<<<<< (aa) gop          0.00
                       o<<<<< (aa) dot          0.00
                       o<<<<< (ab) str          0.00
                       o<<<<< (ab) gath         0.00
                       o<<<<< (ab) dotab        0.00
                       o<<<<< (ab) scat         0.00
                       o<<<<< (ab) sync         0.00
                       o<<<<< Density           0.00
                       o<<<<< Density one       0.00
                       o<<<<< Density two       0.00
                       o<<<<< Density ab        0.00
                       o<<<<< Spin adapt        0.00
                       o<<<<< Symm adapt        0.00

                       o<<<<< (ab) max sync:      0.00

           >>>| Valence CI:            -16.241916812403
           >>>| MCSCF energy:          -14.878280448767
           >>>| Gradient norm:          0.213582688D-03
     --- Warning:   21 Hessian diagonals < 0.05 ---
     --- Conjugacy reset ---

                              ----- Line search ------

        step       energy         lsg     num-lsg   num-lsh   lsrat    time
      ------- ---------------- --------- --------- --------- ------- --------
       0.0000     -14.87828045 -1.76D-07  0.00D+00  0.00D+00 0.0D+00      1.1

          Number of sigma calls:        4
                       o<<<<< (aa):             0.00
                       o<<<<< (bb):             0.00
                       o<<<<< (ab):             0.00
                       o<<<<< (total)           0.00
                       o<<<<< (aa) ff           0.00
                       o<<<<< (aa) gop          0.00
                       o<<<<< (aa) dot          0.00
                       o<<<<< (ab) str          0.00
                       o<<<<< (ab) gath         0.00
                       o<<<<< (ab) dotab        0.00
                       o<<<<< (ab) scat         0.00
                       o<<<<< (ab) sync         0.00
                       o<<<<< Density           0.00
                       o<<<<< Density one       0.00
                       o<<<<< Density two       0.00
                       o<<<<< Density ab        0.00
                       o<<<<< Spin adapt        0.00
                       o<<<<< Symm adapt        0.00

                       o<<<<< (ab) max sync:      0.00
       1.0000     -14.87828055 -2.81D-08 -2.81D-08  1.48D-07 1.6D-01      1.1

          Number of sigma calls:        4
                       o<<<<< (aa):             0.00
                       o<<<<< (bb):             0.00
                       o<<<<< (ab):             0.00
                       o<<<<< (total)           0.00
                       o<<<<< (aa) ff           0.00
                       o<<<<< (aa) gop          0.00
                       o<<<<< (aa) dot          0.00
                       o<<<<< (ab) str          0.00
                       o<<<<< (ab) gath         0.00
                       o<<<<< (ab) dotab        0.00
                       o<<<<< (ab) scat         0.00
                       o<<<<< (ab) sync         0.00
                       o<<<<< Density           0.00
                       o<<<<< Density one       0.00
                       o<<<<< Density two       0.00
                       o<<<<< Density ab        0.00
                       o<<<<< Spin adapt        0.00
                       o<<<<< Symm adapt        0.00

                       o<<<<< (ab) max sync:      0.00
       1.1895     -14.87828055  5.51D-11  5.35D-11  1.49D-07 3.1D-04      1.2



          %%%%% MacroIteration   3 %%%%%


          Number of sigma calls:        1
                       o<<<<< (aa):             0.00
                       o<<<<< (bb):             0.00
                       o<<<<< (ab):             0.00
                       o<<<<< (total)           0.00
                       o<<<<< (aa) ff           0.00
                       o<<<<< (aa) gop          0.00
                       o<<<<< (aa) dot          0.00
                       o<<<<< (ab) str          0.00
                       o<<<<< (ab) gath         0.00
                       o<<<<< (ab) dotab        0.00
                       o<<<<< (ab) scat         0.00
                       o<<<<< (ab) sync         0.00
                       o<<<<< Density           0.00
                       o<<<<< Density one       0.00
                       o<<<<< Density two       0.00
                       o<<<<< Density ab        0.00
                       o<<<<< Spin adapt        0.00
                       o<<<<< Symm adapt        0.00

                       o<<<<< (ab) max sync:      0.00

           >>>| Valence CI:            -16.241916917334
           >>>| MCSCF energy:          -14.878280553697
           >>>| Gradient norm:          0.244343174D-04




     ==============================
            MCSCF Converged
     ==============================



          Canonical Eigenvalues

              1      
    1   -2.4681
    2   -2.4681
    3   -0.1663
    4   -0.0256
    5    0.0265
    6    0.0265
    7    0.0357
    8    0.0463
    9    0.0512
   10    0.0512
   11    0.0997
   12    0.1123
   13    0.1123
   14    0.1153
   15    0.1411
   16    0.1411
   17    0.1492
   18    0.1775
   19    0.2153
   20    0.2153
   21    0.2313
   22    0.2313
   23    0.2607
   24    0.2607
   25    0.2918
   26    0.3305
   27    0.3305
   28    0.3708
   29    0.3708
   30    0.3708
   31    0.3839
   32    0.3858
   33    0.3858
   34    0.4089
   35    0.4235
   36    0.4949
   37    0.6751
   38    0.6751
   39    0.6967
   40    0.7052
   41    0.7052
   42    0.7338
   43    0.7338
   44    0.7468
   45    0.7468
   46    0.7505
   47    0.7505
   48    0.7726
   49    0.7726
   50    0.7885
   51    0.7885
   52    0.7930
   53    0.7930
   54    0.8446
   55    0.8484
   56    0.8484
   57    0.9328
   58    0.9347
   59    0.9347
   60    0.9424
   61    0.9424
   62    0.9460
   63    0.9753
   64    1.0336
   65    1.0336
   66    1.2523
   67    1.3611
   68    1.4885
   69    6.3583
   70    6.4104


          Converged CI vector

   Index           Coefficient          Config. Occupation
         1         -0.94942144          1  2  3  1  2  3
         6          0.31399756          1  2  4  1  2  4

          Number of sigma calls:        1
                       o<<<<< (aa):             0.00
                       o<<<<< (bb):             0.00
                       o<<<<< (ab):             0.00
                       o<<<<< (total)           0.00
                       o<<<<< (aa) ff           0.00
                       o<<<<< (aa) gop          0.00
                       o<<<<< (aa) dot          0.00
                       o<<<<< (ab) str          0.00
                       o<<<<< (ab) gath         0.00
                       o<<<<< (ab) dotab        0.00
                       o<<<<< (ab) scat         0.00
                       o<<<<< (ab) sync         0.00
                       o<<<<< Density           0.00
                       o<<<<< Density one       0.00
                       o<<<<< Density two       0.00
                       o<<<<< Density ab        0.00
                       o<<<<< Spin adapt        0.00
                       o<<<<< Symm adapt        0.00

                       o<<<<< (ab) max sync:      0.00



          Natural orbital occupation numbers

              1      
    1    2.0000
    2    2.0000
    3    1.8028
    4    0.1972


          Number of sigma calls:        5
                       o<<<<< (aa):             0.00
                       o<<<<< (bb):             0.00
                       o<<<<< (ab):             0.00
                       o<<<<< (total)           0.00
                       o<<<<< (aa) ff           0.00
                       o<<<<< (aa) gop          0.00
                       o<<<<< (aa) dot          0.00
                       o<<<<< (ab) str          0.00
                       o<<<<< (ab) gath         0.00
                       o<<<<< (ab) dotab        0.00
                       o<<<<< (ab) scat         0.00
                       o<<<<< (ab) sync         0.00
                       o<<<<< Density           0.00
                       o<<<<< Density one       0.00
                       o<<<<< Density two       0.00
                       o<<<<< Density ab        0.00
                       o<<<<< Spin adapt        0.00
                       o<<<<< Symm adapt        0.00

                       o<<<<< (ab) max sync:      0.00


       Final MCSCF results 
       ------------------- 

       Total MCSCF energy =    -14.878280553697
            Gradient norm =      2.4D-05

    CPU time for solution =      1.3s
   Wall time for solution =      1.4s



                        Analysis of MCSCF natural orbitals
                        ----------------------------------

 Vector    1  Occ=1.999997D+00  E=-2.468121D+00  Symmetry=a
              MO Center=  1.6D-09,  3.1D-09,  2.3D-09, r^2= 3.2D+00
   Bfn.  Coefficient  Atom+Function         Bfn.  Coefficient  Atom+Function  
  ----- ------------  ---------------      ----- ------------  ---------------
     1      0.704654  1 Li s                 36      0.704654  2 Li s          

 Vector    2  Occ=1.999997D+00  E=-2.468107D+00  Symmetry=a
              MO Center=  1.3D-09, -3.1D-09,  1.9D-09, r^2= 3.2D+00
   Bfn.  Coefficient  Atom+Function         Bfn.  Coefficient  Atom+Function  
  ----- ------------  ---------------      ----- ------------  ---------------
     1      0.704433  1 Li s                 36     -0.704433  2 Li s          

 Vector    3  Occ=1.802808D+00  E=-1.663113D-01  Symmetry=a
              MO Center=  1.9D-06, -3.3D-12,  2.9D-06, r^2= 6.7D+00
   Bfn.  Coefficient  Atom+Function         Bfn.  Coefficient  Atom+Function  
  ----- ------------  ---------------      ----- ------------  ---------------
     3      0.325917  1 Li s                 38      0.325917  2 Li s          
     4      0.323563  1 Li s                 39      0.323563  2 Li s          
     2      0.179774  1 Li s                 37      0.179774  2 Li s          

 Vector    4  Occ=1.971975D-01  E=-2.563578D-02  Symmetry=a
              MO Center= -9.6D-08, -2.7D-11, -1.4D-07, r^2= 8.4D+00
   Bfn.  Coefficient  Atom+Function         Bfn.  Coefficient  Atom+Function  
  ----- ------------  ---------------      ----- ------------  ---------------
     3      0.625568  1 Li s                 38     -0.625568  2 Li s          
     4      0.417634  1 Li s                 39     -0.417634  2 Li s          
     2      0.238963  1 Li s                 37     -0.238963  2 Li s          

 Vector    5  Occ=0.000000D+00  E= 2.649338D-02  Symmetry=a
              MO Center=  1.2D-06,  2.1D-11,  1.8D-06, r^2= 1.9D+01
   Bfn.  Coefficient  Atom+Function         Bfn.  Coefficient  Atom+Function  
  ----- ------------  ---------------      ----- ------------  ---------------
    13      0.476379  1 Li pz                48      0.476379  2 Li pz         
    11      0.305800  1 Li px                46      0.305800  2 Li px         

 Vector    6  Occ=0.000000D+00  E= 2.649338D-02  Symmetry=a
              MO Center=  2.9D-07,  2.1D-11,  3.7D-07, r^2= 1.9D+01
   Bfn.  Coefficient  Atom+Function         Bfn.  Coefficient  Atom+Function  
  ----- ------------  ---------------      ----- ------------  ---------------
    11      0.476379  1 Li px                46      0.476379  2 Li px         
    13     -0.305800  1 Li pz                48     -0.305800  2 Li pz         

 Vector    7  Occ=0.000000D+00  E= 3.570783D-02  Symmetry=a
              MO Center= -1.1D-07,  2.8D-10, -1.7D-07, r^2= 2.6D+01
   Bfn.  Coefficient  Atom+Function         Bfn.  Coefficient  Atom+Function  
  ----- ------------  ---------------      ----- ------------  ---------------
    12      0.828575  1 Li py                47     -0.828575  2 Li py         
     4     -0.719938  1 Li s                 39     -0.719938  2 Li s          
     3      0.284324  1 Li s                 38      0.284324  2 Li s          

 Vector    8  Occ=0.000000D+00  E= 4.633361D-02  Symmetry=a
              MO Center=  4.1D-06, -2.6D-10,  6.1D-06, r^2= 4.2D+01
   Bfn.  Coefficient  Atom+Function         Bfn.  Coefficient  Atom+Function  
  ----- ------------  ---------------      ----- ------------  ---------------
     4      3.033716  1 Li s                 39     -3.033716  2 Li s          
    12      2.035793  1 Li py                47      2.035793  2 Li py         
     3     -0.473111  1 Li s                 38      0.473111  2 Li s          
     9     -0.373327  1 Li py                44     -0.373327  2 Li py         
    23     -0.170664  1 Li dyy               58      0.170664  2 Li dyy        

 Vector    9  Occ=0.000000D+00  E= 5.121440D-02  Symmetry=a
              MO Center=  8.7D-07, -2.1D-11, -5.1D-07, r^2= 2.8D+01
   Bfn.  Coefficient  Atom+Function         Bfn.  Coefficient  Atom+Function  
  ----- ------------  ---------------      ----- ------------  ---------------
    11      0.964196  1 Li px                46     -0.964196  2 Li px         
    13     -0.937462  1 Li pz                48      0.937462  2 Li pz         
     8     -0.193197  1 Li px                43      0.193197  2 Li px         
    10      0.187841  1 Li pz                45     -0.187841  2 Li pz         

 Vector   10  Occ=0.000000D+00  E= 5.121440D-02  Symmetry=a
              MO Center= -3.8D-06, -2.1D-11, -3.8D-06, r^2= 2.8D+01
   Bfn.  Coefficient  Atom+Function         Bfn.  Coefficient  Atom+Function  
  ----- ------------  ---------------      ----- ------------  ---------------
    13      0.964196  1 Li pz                48     -0.964196  2 Li pz         
    11      0.937462  1 Li px                46     -0.937462  2 Li px         
    10     -0.193197  1 Li pz                45      0.193197  2 Li pz         
     8     -0.187841  1 Li px                43      0.187841  2 Li px         

 Vector   11  Occ=0.000000D+00  E= 9.973744D-02  Symmetry=a
              MO Center= -7.7D-07, -1.9D-11, -1.1D-06, r^2= 1.8D+01
   Bfn.  Coefficient  Atom+Function         Bfn.  Coefficient  Atom+Function  
  ----- ------------  ---------------      ----- ------------  ---------------
     4     -1.118331  1 Li s                 39     -1.118331  2 Li s          
     3      1.084213  1 Li s                 38      1.084213  2 Li s          
    12     -0.887666  1 Li py                47      0.887666  2 Li py         
     9      0.650221  1 Li py                44     -0.650221  2 Li py         
    20      0.287997  1 Li dxx               25      0.287997  1 Li dzz        

 Vector   12  Occ=0.000000D+00  E= 1.123359D-01  Symmetry=a
              MO Center= -1.6D-06,  2.3D-11, -2.5D-06, r^2= 1.8D+01
   Bfn.  Coefficient  Atom+Function         Bfn.  Coefficient  Atom+Function  
  ----- ------------  ---------------      ----- ------------  ---------------
    10      0.967491  1 Li pz                45      0.967491  2 Li pz         
     8      0.631432  1 Li px                43      0.631432  2 Li px         
    13     -0.627118  1 Li pz                48     -0.627118  2 Li pz         
    11     -0.409288  1 Li px                46     -0.409288  2 Li px         

 Vector   13  Occ=0.000000D+00  E= 1.123359D-01  Symmetry=a
              MO Center=  1.8D-07,  2.3D-11,  3.4D-07, r^2= 1.8D+01
   Bfn.  Coefficient  Atom+Function         Bfn.  Coefficient  Atom+Function  
  ----- ------------  ---------------      ----- ------------  ---------------
     8      0.967491  1 Li px                43      0.967491  2 Li px         
    10     -0.631432  1 Li pz                45     -0.631432  2 Li pz         
    11     -0.627118  1 Li px                46     -0.627118  2 Li px         
    13      0.409288  1 Li pz                48      0.409288  2 Li pz         

 Vector   14  Occ=0.000000D+00  E= 1.153339D-01  Symmetry=a
              MO Center=  6.3D-07,  5.2D-11,  9.5D-07, r^2= 2.1D+01
   Bfn.  Coefficient  Atom+Function         Bfn.  Coefficient  Atom+Function  
  ----- ------------  ---------------      ----- ------------  ---------------
     4      1.278087  1 Li s                 39      1.278087  2 Li s          
     3     -1.021586  1 Li s                 38     -1.021586  2 Li s          
     9      0.874186  1 Li py                44     -0.874186  2 Li py         
    12     -0.695636  1 Li py                47      0.695636  2 Li py         
    23     -0.315472  1 Li dyy               58     -0.315472  2 Li dyy        


 Wrote Lagrangian and 1- and 2-particle density matrices to ./Li2.mcpdm


     Multipole analysis of the density
     ---------------------------------

     L   x y z        total        nuclear
     -   - - -        -----        -------
     0   0 0 0     -0.000000      6.000000

     1   1 0 0     -0.000007      0.000000
     1   0 1 0      0.000000      0.000000
     1   0 0 1     -0.000010      0.000000

     2   2 0 0    -12.460580      0.000000
     2   1 1 0     -0.000000      0.000000
     2   1 0 1     -0.000000      0.000000
     2   0 2 0     -3.986315     65.340000
     2   0 1 1      0.000000      0.000000
     2   0 0 2    -12.460580      0.000000


  Mulliken analysis of the total density
  --------------------------------------

    Atom       Charge   Shell Charges
 -----------   ------   -------------------------------------------------------
    1 Li   3     3.00   1.99 -0.01  0.49  0.53  0.01  0.01  0.00  0.00 -0.02 -0.00
    2 Li   3     3.00   1.99 -0.01  0.49  0.53  0.01  0.01  0.00  0.00 -0.02 -0.00

    Mulliken analysis of the active space density
    ---------------------------------------------

    Atom       Charge   Shell Charges
 -----------   ------   -------------------------------------------------------
    1 Li   3     3.00   1.99 -0.01  0.49  0.53  0.01  0.01  0.00  0.00 -0.02 -0.00
    2 Li   3     3.00   1.99 -0.01  0.49  0.53  0.01  0.01  0.00  0.00 -0.02 -0.00

 Parallel integral file used      20 records with       0 large values


 Task  times  cpu:        1.3s     wall:        1.5s


                                NWChem Input Module
                                -------------------


                                 NWChem SCF Module
                                 -----------------


                                        Li2



  ao basis        = "ao basis"
  functions       =    70
  atoms           =     2
  closed shells   =     3
  open shells     =     0
  charge          =   0.00
  wavefunction    = RHF 
  input vectors   = ./Li2.mos
  output vectors  = ./Li2-6.6.mos
  use symmetry    = F
  symmetry adapt  = F


 Summary of "ao basis" -> "ao basis" (cartesian)
 ------------------------------------------------------------------------------
       Tag                 Description            Shells   Functions and Types
 ---------------- ------------------------------  ------  ---------------------
 Li                         cc-pVTZ                 10       35   4s3p2d1f



 Forming initial guess at       1.5s


 Loading old vectors from job with title :

Li2


 Starting SCF solution at       1.5s



 ----------------------------------------------
         Quadratically convergent ROHF

 Convergence threshold     :          1.000E-04
 Maximum no. of iterations :           30
 Final Fock-matrix accuracy:          1.000E-07
 ----------------------------------------------


 Integral file          = ./Li2.aoints.0
 Record size in doubles =  65536        No. of integs per rec  =  43688
 Max. records in memory =     99        Max. records in file   = 280097
 No. of bits per label  =      8        No. of bits per value  =     64


 #quartets = 2.214D+04 #integrals = 8.604D+05 #direct =  0.0% #cached =100.0%



       Final RHF  results 
       ------------------ 

         Total SCF energy =    -14.861212554376
      One-electron energy =    -22.239349922925
      Two-electron energy =      6.014501004913
 Nuclear repulsion energy =      1.363636363636

        Time for solution =      0.1s


             Final eigenvalues
             -----------------

              1      
    1   -2.4681
    2   -2.4681
    3   -0.1663
    4   -0.0256
    5    0.0265
    6    0.0265
    7    0.0357
    8    0.0463
    9    0.0512
   10    0.0512
   11    0.0997
   12    0.1123
   13    0.1123

                       ROHF Final Molecular Orbital Analysis
                       -------------------------------------

 Vector    2  Occ=2.000000D+00  E=-2.468107D+00
              MO Center=  1.3D-09, -3.1D-09,  1.9D-09, r^2= 3.2D+00
   Bfn.  Coefficient  Atom+Function         Bfn.  Coefficient  Atom+Function  
  ----- ------------  ---------------      ----- ------------  ---------------
     1      0.704433  1 Li s                 36     -0.704433  2 Li s          

 Vector    3  Occ=2.000000D+00  E=-1.663113D-01
              MO Center=  1.9D-06, -3.3D-12,  2.9D-06, r^2= 6.7D+00
   Bfn.  Coefficient  Atom+Function         Bfn.  Coefficient  Atom+Function  
  ----- ------------  ---------------      ----- ------------  ---------------
     3      0.325917  1 Li s                 38      0.325917  2 Li s          
     4      0.323563  1 Li s                 39      0.323563  2 Li s          
     2      0.179774  1 Li s                 37      0.179774  2 Li s          

 Vector    4  Occ=0.000000D+00  E=-2.563578D-02
              MO Center= -9.6D-08, -2.7D-11, -1.4D-07, r^2= 8.4D+00
   Bfn.  Coefficient  Atom+Function         Bfn.  Coefficient  Atom+Function  
  ----- ------------  ---------------      ----- ------------  ---------------
     3      0.625568  1 Li s                 38     -0.625568  2 Li s          
     4      0.417634  1 Li s                 39     -0.417634  2 Li s          
     2      0.238963  1 Li s                 37     -0.238963  2 Li s          

 Vector    5  Occ=0.000000D+00  E= 2.649338D-02
              MO Center=  1.2D-06,  2.1D-11,  1.8D-06, r^2= 1.9D+01
   Bfn.  Coefficient  Atom+Function         Bfn.  Coefficient  Atom+Function  
  ----- ------------  ---------------      ----- ------------  ---------------
    13      0.476379  1 Li pz                48      0.476379  2 Li pz         
    11      0.305800  1 Li px                46      0.305800  2 Li px         

 Vector    6  Occ=0.000000D+00  E= 2.649338D-02
              MO Center=  2.9D-07,  2.1D-11,  3.7D-07, r^2= 1.9D+01
   Bfn.  Coefficient  Atom+Function         Bfn.  Coefficient  Atom+Function  
  ----- ------------  ---------------      ----- ------------  ---------------
    11      0.476379  1 Li px                46      0.476379  2 Li px         
    13     -0.305800  1 Li pz                48     -0.305800  2 Li pz         

 Vector    7  Occ=0.000000D+00  E= 3.570783D-02
              MO Center= -1.1D-07,  2.8D-10, -1.7D-07, r^2= 2.6D+01
   Bfn.  Coefficient  Atom+Function         Bfn.  Coefficient  Atom+Function  
  ----- ------------  ---------------      ----- ------------  ---------------
    12      0.828575  1 Li py                47     -0.828575  2 Li py         
     4     -0.719938  1 Li s                 39     -0.719938  2 Li s          
     3      0.284324  1 Li s                 38      0.284324  2 Li s          

 Vector    8  Occ=0.000000D+00  E= 4.633361D-02
              MO Center=  4.1D-06, -2.6D-10,  6.1D-06, r^2= 4.2D+01
   Bfn.  Coefficient  Atom+Function         Bfn.  Coefficient  Atom+Function  
  ----- ------------  ---------------      ----- ------------  ---------------
     4      3.033716  1 Li s                 39     -3.033716  2 Li s          
    12      2.035793  1 Li py                47      2.035793  2 Li py         
     3     -0.473111  1 Li s                 38      0.473111  2 Li s          
     9     -0.373327  1 Li py                44     -0.373327  2 Li py         
    23     -0.170664  1 Li dyy               58      0.170664  2 Li dyy        

 Vector    9  Occ=0.000000D+00  E= 5.121440D-02
              MO Center=  8.7D-07, -2.1D-11, -5.1D-07, r^2= 2.8D+01
   Bfn.  Coefficient  Atom+Function         Bfn.  Coefficient  Atom+Function  
  ----- ------------  ---------------      ----- ------------  ---------------
    11      0.964196  1 Li px                46     -0.964196  2 Li px         
    13     -0.937462  1 Li pz                48      0.937462  2 Li pz         
     8     -0.193197  1 Li px                43      0.193197  2 Li px         
    10      0.187841  1 Li pz                45     -0.187841  2 Li pz         

 Vector   10  Occ=0.000000D+00  E= 5.121440D-02
              MO Center= -3.8D-06, -2.1D-11, -3.8D-06, r^2= 2.8D+01
   Bfn.  Coefficient  Atom+Function         Bfn.  Coefficient  Atom+Function  
  ----- ------------  ---------------      ----- ------------  ---------------
    13      0.964196  1 Li pz                48     -0.964196  2 Li pz         
    11      0.937462  1 Li px                46     -0.937462  2 Li px         
    10     -0.193197  1 Li pz                45      0.193197  2 Li pz         
     8     -0.187841  1 Li px                43      0.187841  2 Li px         

 Vector   11  Occ=0.000000D+00  E= 9.973744D-02
              MO Center= -7.7D-07, -1.9D-11, -1.1D-06, r^2= 1.8D+01
   Bfn.  Coefficient  Atom+Function         Bfn.  Coefficient  Atom+Function  
  ----- ------------  ---------------      ----- ------------  ---------------
     4     -1.118331  1 Li s                 39     -1.118331  2 Li s          
     3      1.084213  1 Li s                 38      1.084213  2 Li s          
    12     -0.887666  1 Li py                47      0.887666  2 Li py         
     9      0.650221  1 Li py                44     -0.650221  2 Li py         
    20      0.287997  1 Li dxx               25      0.287997  1 Li dzz        

 Vector   12  Occ=0.000000D+00  E= 1.123359D-01
              MO Center= -1.6D-06,  2.3D-11, -2.5D-06, r^2= 1.8D+01
   Bfn.  Coefficient  Atom+Function         Bfn.  Coefficient  Atom+Function  
  ----- ------------  ---------------      ----- ------------  ---------------
    10      0.967491  1 Li pz                45      0.967491  2 Li pz         
     8      0.631432  1 Li px                43      0.631432  2 Li px         
    13     -0.627118  1 Li pz                48     -0.627118  2 Li pz         
    11     -0.409288  1 Li px                46     -0.409288  2 Li px         

 Vector   13  Occ=0.000000D+00  E= 1.123359D-01
              MO Center=  1.8D-07,  2.3D-11,  3.4D-07, r^2= 1.8D+01
   Bfn.  Coefficient  Atom+Function         Bfn.  Coefficient  Atom+Function  
  ----- ------------  ---------------      ----- ------------  ---------------
     8      0.967491  1 Li px                43      0.967491  2 Li px         
    10     -0.631432  1 Li pz                45     -0.631432  2 Li pz         
    11     -0.627118  1 Li px                46     -0.627118  2 Li px         
    13      0.409288  1 Li pz                48      0.409288  2 Li pz         

 Vector   14  Occ=0.000000D+00  E= 1.153339D-01
              MO Center=  6.3D-07,  5.2D-11,  9.5D-07, r^2= 2.1D+01
   Bfn.  Coefficient  Atom+Function         Bfn.  Coefficient  Atom+Function  
  ----- ------------  ---------------      ----- ------------  ---------------
     4      1.278087  1 Li s                 39      1.278087  2 Li s          
     3     -1.021586  1 Li s                 38     -1.021586  2 Li s          
     9      0.874186  1 Li py                44     -0.874186  2 Li py         
    12     -0.695636  1 Li py                47      0.695636  2 Li py         
    23     -0.315472  1 Li dyy               58     -0.315472  2 Li dyy        

 Vector   15  Occ=0.000000D+00  E= 1.410925D-01
              MO Center=  6.5D-08, -2.0D-11,  1.0D-07, r^2= 1.7D+01
   Bfn.  Coefficient  Atom+Function         Bfn.  Coefficient  Atom+Function  
  ----- ------------  ---------------      ----- ------------  ---------------
    10      1.117132  1 Li pz                45     -1.117132  2 Li pz         
    13     -0.984532  1 Li pz                48      0.984532  2 Li pz         
     8      0.763643  1 Li px                43     -0.763643  2 Li px         
    11     -0.673001  1 Li px                46      0.673001  2 Li px         

 Vector   16  Occ=0.000000D+00  E= 1.410925D-01
              MO Center=  3.4D-07, -2.0D-11,  5.0D-07, r^2= 1.7D+01
   Bfn.  Coefficient  Atom+Function         Bfn.  Coefficient  Atom+Function  
  ----- ------------  ---------------      ----- ------------  ---------------
     8      1.117132  1 Li px                43     -1.117132  2 Li px         
    11     -0.984532  1 Li px                46      0.984532  2 Li px         
    10     -0.763643  1 Li pz                45      0.763643  2 Li pz         
    13      0.673001  1 Li pz                48     -0.673001  2 Li pz         

 Vector   17  Occ=0.000000D+00  E= 1.491965D-01
              MO Center= -2.0D-07,  4.3D-12, -3.0D-07, r^2= 2.0D+01
   Bfn.  Coefficient  Atom+Function         Bfn.  Coefficient  Atom+Function  
  ----- ------------  ---------------      ----- ------------  ---------------
     4      6.280782  1 Li s                 39     -6.280782  2 Li s          
     3     -1.847111  1 Li s                 38      1.847111  2 Li s          
     9      1.643099  1 Li py                44      1.643099  2 Li py         
    12      1.417355  1 Li py                47      1.417355  2 Li py         
    20     -0.487734  1 Li dxx               25     -0.487734  1 Li dzz        

 Vector   18  Occ=0.000000D+00  E= 1.775090D-01
              MO Center=  5.7D-07, -1.6D-11,  8.5D-07, r^2= 2.0D+01
   Bfn.  Coefficient  Atom+Function         Bfn.  Coefficient  Atom+Function  
  ----- ------------  ---------------      ----- ------------  ---------------
     4      3.639784  1 Li s                 39     -3.639784  2 Li s          
     3     -1.686623  1 Li s                 38      1.686623  2 Li s          
    12      1.557948  1 Li py                47      1.557948  2 Li py         
     9     -1.518043  1 Li py                44     -1.518043  2 Li py         
    20     -0.426050  1 Li dxx               25     -0.426050  1 Li dzz        

 Vector   19  Occ=0.000000D+00  E= 2.152647D-01
              MO Center= -3.0D-07,  1.3D-11, -4.4D-07, r^2= 9.4D+00
   Bfn.  Coefficient  Atom+Function         Bfn.  Coefficient  Atom+Function  
  ----- ------------  ---------------      ----- ------------  ---------------
    20      0.650739  1 Li dxx               25     -0.650739  1 Li dzz        
    55      0.650739  2 Li dxx               60     -0.650739  2 Li dzz        

 Vector   20  Occ=0.000000D+00  E= 2.152647D-01
              MO Center= -3.0D-07,  1.3D-11, -4.4D-07, r^2= 9.4D+00
   Bfn.  Coefficient  Atom+Function         Bfn.  Coefficient  Atom+Function  
  ----- ------------  ---------------      ----- ------------  ---------------
    22      1.301478  1 Li dxz               57      1.301478  2 Li dxz        
    16     -0.269151  1 Li dxz               51     -0.269151  2 Li dxz        

 Vector   21  Occ=0.000000D+00  E= 2.313383D-01
              MO Center= -2.3D-08,  4.5D-12, -1.0D-07, r^2= 1.1D+01
   Bfn.  Coefficient  Atom+Function         Bfn.  Coefficient  Atom+Function  
  ----- ------------  ---------------      ----- ------------  ---------------
    24      1.101287  1 Li dyz               59     -1.101287  2 Li dyz        
    21      0.549785  1 Li dxy               56     -0.549785  2 Li dxy        
    10     -0.292538  1 Li pz                45     -0.292538  2 Li pz         
    18     -0.212426  1 Li dyz               53      0.212426  2 Li dyz        

 Vector   22  Occ=0.000000D+00  E= 2.313383D-01
              MO Center=  7.5D-08,  4.4D-12,  1.8D-07, r^2= 1.1D+01
   Bfn.  Coefficient  Atom+Function         Bfn.  Coefficient  Atom+Function  
  ----- ------------  ---------------      ----- ------------  ---------------
    21      1.101287  1 Li dxy               56     -1.101287  2 Li dxy        
    24     -0.549785  1 Li dyz               59      0.549785  2 Li dyz        
     8     -0.292538  1 Li px                43     -0.292538  2 Li px         
    15     -0.212426  1 Li dxy               50      0.212426  2 Li dxy        

 Vector   23  Occ=0.000000D+00  E= 2.607258D-01
              MO Center= -2.1D-07, -1.3D-11, -3.1D-07, r^2= 1.1D+01
   Bfn.  Coefficient  Atom+Function         Bfn.  Coefficient  Atom+Function  
  ----- ------------  ---------------      ----- ------------  ---------------
    20      0.784191  1 Li dxx               25     -0.784191  1 Li dzz        
    55     -0.784191  2 Li dxx               60      0.784191  2 Li dzz        

 Vector   24  Occ=0.000000D+00  E= 2.607258D-01
              MO Center= -2.1D-07, -1.3D-11, -3.1D-07, r^2= 1.1D+01
   Bfn.  Coefficient  Atom+Function         Bfn.  Coefficient  Atom+Function  
  ----- ------------  ---------------      ----- ------------  ---------------
    22      1.568381  1 Li dxz               57     -1.568381  2 Li dxz        
    16     -0.298483  1 Li dxz               51      0.298483  2 Li dxz        

 Vector   25  Occ=0.000000D+00  E= 2.918223D-01
              MO Center=  6.0D-08, -9.7D-12,  9.0D-08, r^2= 1.3D+01
   Bfn.  Coefficient  Atom+Function         Bfn.  Coefficient  Atom+Function  
  ----- ------------  ---------------      ----- ------------  ---------------
    23     -0.688472  1 Li dyy               58     -0.688472  2 Li dyy        
     9      0.681507  1 Li py                44     -0.681507  2 Li py         
    12     -0.643053  1 Li py                47      0.643053  2 Li py         
    20      0.610955  1 Li dxx               25      0.610955  1 Li dzz        
    55      0.610955  2 Li dxx               60      0.610955  2 Li dzz        

 Vector   26  Occ=0.000000D+00  E= 3.304940D-01
              MO Center=  2.5D-08, -5.2D-12,  5.3D-08, r^2= 1.2D+01
   Bfn.  Coefficient  Atom+Function         Bfn.  Coefficient  Atom+Function  
  ----- ------------  ---------------      ----- ------------  ---------------
    21      1.929501  1 Li dxy               56      1.929501  2 Li dxy        
    24     -1.225113  1 Li dyz               59     -1.225113  2 Li dyz        
    15     -0.328918  1 Li dxy               50     -0.328918  2 Li dxy        
     8      0.278637  1 Li px                43     -0.278637  2 Li px         
    11      0.263044  1 Li px                46     -0.263044  2 Li px         

 Vector   27  Occ=0.000000D+00  E= 3.304940D-01
              MO Center= -1.5D-07, -5.2D-12, -2.4D-07, r^2= 1.2D+01
   Bfn.  Coefficient  Atom+Function         Bfn.  Coefficient  Atom+Function  
  ----- ------------  ---------------      ----- ------------  ---------------
    24      1.929501  1 Li dyz               59      1.929501  2 Li dyz        
    21      1.225113  1 Li dxy               56      1.225113  2 Li dxy        
    18     -0.328918  1 Li dyz               53     -0.328918  2 Li dyz        
    10      0.278637  1 Li pz                45     -0.278637  2 Li pz         
    13      0.263044  1 Li pz                48     -0.263044  2 Li pz         

 Vector   28  Occ=0.000000D+00  E= 3.708088D-01
              MO Center=  2.5D-06,  5.0D-11,  3.8D-06, r^2= 1.0D+01
   Bfn.  Coefficient  Atom+Function         Bfn.  Coefficient  Atom+Function  
  ----- ------------  ---------------      ----- ------------  ---------------
    10      1.198459  1 Li pz                45      1.198459  2 Li pz         
     8      0.793099  1 Li px                43      0.793099  2 Li px         
     7     -0.527031  1 Li pz                42     -0.527031  2 Li pz         
    33     -0.507613  1 Li fyyz              68     -0.507613  2 Li fyyz       
    28     -0.426206  1 Li fxxz              35     -0.426206  1 Li fzzz       

 Vector   29  Occ=0.000000D+00  E= 3.708088D-01
              MO Center=  1.2D-07,  5.1D-11,  1.1D-07, r^2= 1.0D+01
   Bfn.  Coefficient  Atom+Function         Bfn.  Coefficient  Atom+Function  
  ----- ------------  ---------------      ----- ------------  ---------------
     8      1.198459  1 Li px                43      1.198459  2 Li px         
    10     -0.793099  1 Li pz                45     -0.793099  2 Li pz         
     5     -0.527031  1 Li px                40     -0.527031  2 Li px         
    29     -0.507613  1 Li fxyy              64     -0.507613  2 Li fxyy       
    26     -0.426206  1 Li fxxx              31     -0.426206  1 Li fxzz       

 Vector   30  Occ=0.000000D+00  E= 3.708428D-01
              MO Center=  3.4D-08,  1.1D-10,  5.1D-08, r^2= 1.3D+01
   Bfn.  Coefficient  Atom+Function         Bfn.  Coefficient  Atom+Function  
  ----- ------------  ---------------      ----- ------------  ---------------
     9      4.591013  1 Li py                44      4.591013  2 Li py         
     4      2.428077  1 Li s                 39     -2.428077  2 Li s          
    23      1.745862  1 Li dyy               58     -1.745862  2 Li dyy        
     3      0.765692  1 Li s                 38     -0.765692  2 Li s          
     6     -0.710566  1 Li py                41     -0.710566  2 Li py         

 Vector   31  Occ=0.000000D+00  E= 3.838536D-01
              MO Center= -1.4D-06, -1.1D-10, -2.1D-06, r^2= 1.4D+01
   Bfn.  Coefficient  Atom+Function         Bfn.  Coefficient  Atom+Function  
  ----- ------------  ---------------      ----- ------------  ---------------
     9      1.347186  1 Li py                44     -1.347186  2 Li py         
     4      1.115755  1 Li s                 39      1.115755  2 Li s          
    20     -0.757359  1 Li dxx               25     -0.757359  1 Li dzz        
    55     -0.757359  2 Li dxx               60     -0.757359  2 Li dzz        
     6     -0.562446  1 Li py                41      0.562446  2 Li py         

 Vector   32  Occ=0.000000D+00  E= 3.857655D-01
              MO Center=  1.0D-06, -5.2D-11,  1.5D-06, r^2= 1.1D+01
   Bfn.  Coefficient  Atom+Function         Bfn.  Coefficient  Atom+Function  
  ----- ------------  ---------------      ----- ------------  ---------------
    10      1.619246  1 Li pz                45     -1.619246  2 Li pz         
     8      1.154696  1 Li px                43     -1.154696  2 Li px         
    24      0.630482  1 Li dyz               59      0.630482  2 Li dyz        
    13     -0.621225  1 Li pz                48      0.621225  2 Li pz         
     7     -0.538068  1 Li pz                42      0.538068  2 Li pz         

 Vector   33  Occ=0.000000D+00  E= 3.857655D-01
              MO Center=  1.4D-08, -5.2D-11,  1.1D-07, r^2= 1.1D+01
   Bfn.  Coefficient  Atom+Function         Bfn.  Coefficient  Atom+Function  
  ----- ------------  ---------------      ----- ------------  ---------------
     8      1.619246  1 Li px                43     -1.619246  2 Li px         
    10     -1.154696  1 Li pz                45      1.154696  2 Li pz         
    21      0.630482  1 Li dxy               56      0.630482  2 Li dxy        
    11     -0.621225  1 Li px                46      0.621225  2 Li px         
     5     -0.538068  1 Li px                40      0.538068  2 Li px         

 Vector   34  Occ=0.000000D+00  E= 4.088892D-01
              MO Center= -8.3D-07, -1.4D-13, -1.2D-06, r^2= 1.2D+01
   Bfn.  Coefficient  Atom+Function         Bfn.  Coefficient  Atom+Function  
  ----- ------------  ---------------      ----- ------------  ---------------
     4      4.728320  1 Li s                 39     -4.728320  2 Li s          
     9      3.981324  1 Li py                44      3.981324  2 Li py         
    23      2.584067  1 Li dyy               58     -2.584067  2 Li dyy        
    20     -1.070218  1 Li dxx               25     -1.070218  1 Li dzz        
    55      1.070218  2 Li dxx               60      1.070218  2 Li dzz        

 Vector   35  Occ=0.000000D+00  E= 4.235384D-01
              MO Center= -1.3D-06,  6.5D-12, -1.9D-06, r^2= 7.6D+00
   Bfn.  Coefficient  Atom+Function         Bfn.  Coefficient  Atom+Function  
  ----- ------------  ---------------      ----- ------------  ---------------
    23      1.159824  1 Li dyy               58      1.159824  2 Li dyy        
     4     -0.857218  1 Li s                  9      0.859978  1 Li py         
    39     -0.857218  2 Li s                 44     -0.859978  2 Li py         
    20      0.493923  1 Li dxx               25      0.493923  1 Li dzz        
    55      0.493923  2 Li dxx               60      0.493923  2 Li dzz        

 Vector   36  Occ=0.000000D+00  E= 4.948902D-01
              MO Center= -5.0D-07, -1.0D-11, -7.4D-07, r^2= 1.3D+01
   Bfn.  Coefficient  Atom+Function         Bfn.  Coefficient  Atom+Function  
  ----- ------------  ---------------      ----- ------------  ---------------
     9      4.899793  1 Li py                44      4.899793  2 Li py         
    23      4.157378  1 Li dyy               58     -4.157378  2 Li dyy        
     3      2.448322  1 Li s                 38     -2.448322  2 Li s          
     4     -2.284168  1 Li s                 39      2.284168  2 Li s          
    12     -0.898206  1 Li py                47     -0.898206  2 Li py         

 Vector   37  Occ=0.000000D+00  E= 6.750962D-01
              MO Center=  3.5D-07,  2.4D-12,  5.2D-07, r^2= 5.2D+00
   Bfn.  Coefficient  Atom+Function         Bfn.  Coefficient  Atom+Function  
  ----- ------------  ---------------      ----- ------------  ---------------
    18      0.994036  1 Li dyz               53     -0.994036  2 Li dyz        
    33      0.957897  1 Li fyyz              68      0.957897  2 Li fyyz       
    15      0.673325  1 Li dxy               50     -0.673325  2 Li dxy        
    24     -0.666057  1 Li dyz               59      0.666057  2 Li dyz        
    29      0.648846  1 Li fxyy              64      0.648846  2 Li fxyy       


 center of mass
 --------------
 x =   0.00000000 y =   0.00000000 z =   0.00000000

 moments of inertia (a.u.)
 ------------------
         152.808480000000           0.000000000000           0.000000000000
           0.000000000000           0.000000000000           0.000000000000
           0.000000000000           0.000000000000         152.808480000000

  Mulliken analysis of the total density
  --------------------------------------

    Atom       Charge   Shell Charges
 -----------   ------   -------------------------------------------------------
    1 Li   3     3.00   1.99 -0.01  0.46  0.54  0.01  0.02  0.00  0.00 -0.02 -0.00
    2 Li   3     3.00   1.99 -0.01  0.46  0.54  0.01  0.02  0.00  0.00 -0.02 -0.00

       Multipole analysis of the density wrt the origin
       ------------------------------------------------

     L   x y z        total         open         nuclear
     -   - - -        -----         ----         -------
     0   0 0 0     -0.000000      0.000000      6.000000

     1   1 0 0     -0.000007      0.000000      0.000000
     1   0 1 0      0.000000      0.000000      0.000000
     1   0 0 1     -0.000011      0.000000      0.000000

     2   2 0 0    -12.644671      0.000000      0.000000
     2   1 1 0     -0.000000      0.000000      0.000000
     2   1 0 1     -0.000000      0.000000      0.000000
     2   0 2 0     -2.415458      0.000000     65.340000
     2   0 1 1      0.000000      0.000000      0.000000
     2   0 0 2    -12.644671      0.000000      0.000000


 Parallel integral file used      20 records with       0 large values

 ------------------------------------
     Number of active orbitals      4
     Number of active alpha electrons      3
     Number of active beta electrons       3
 ------------------------------------
                   NWChem Extensible Many-Electron Theory Module
                   ---------------------------------------------

              ======================================================
                   This portion of the program was automatically
                  generated by a Tensor Contraction Engine (TCE).
                  The development of this portion of the program
                 and TCE was supported by US Department of Energy,
                Office of Science, Office of Basic Energy Science.
                      TCE is a product of Battelle and PNNL.
              Please cite: S.Hirata, J.Phys.Chem.A 107, 9887 (2003).
              ======================================================

                                        Li2


            General Information
            -------------------
      Number of processors :     1
         Wavefunction type : Restricted Hartree-Fock
          No. of electrons :     6
           Alpha electrons :     3
            Beta electrons :     3
           No. of orbitals :   140
            Alpha orbitals :    70
             Beta orbitals :    70
        Alpha frozen cores :     0
         Beta frozen cores :     0
     Alpha frozen virtuals :    66
      Beta frozen virtuals :    66
         Spin multiplicity : singlet 
    Number of AO functions :    70
       Number of AO shells :    20
        Use of symmetry is : off
      Symmetry adaption is : off
         Schwarz screening : 0.10D-09

          Correlation Information
          -----------------------
          Calculation type : Coupled-cluster singles & doubles                           
   Perturbative correction : none                                                        
            Max iterations :      300
        Residual threshold : 0.10D-06
     T(0) DIIS level shift : 0.30D+00
     L(0) DIIS level shift : 0.00D+00
     T(1) DIIS level shift : 0.00D+00
     L(1) DIIS level shift : 0.00D+00
     T(R) DIIS level shift : 0.00D+00
     T(I) DIIS level shift : 0.00D+00
   CC-T/L Amplitude update :  5-th order DIIS
                I/O scheme : Global Array Library
        L-threshold :  0.10D-06
        EOM-threshold :  0.10D-06
 no EOMCCSD initial starts read in
 TCE RESTART OPTIONS
 READ_INT:   F
 WRITE_INT:  F
 READ_TA:    F
 WRITE_TA:   F
 READ_XA:    F
 WRITE_XA:   F
 READ_IN3:   F
 WRITE_IN3:  F
 SLICE:      F
 D4D5:       F
 quantumc:   T
 qrotation:  F
 pwtce:      F
 qducc:      F
 nacto:                         0
 nrotv:                         0
 nrot:                          0

            Memory Information
            ------------------
          Available GA space size is    1610607836 doubles
          Available MA space size is    1610609956 doubles

 Maximum block size supplied by input
 Maximum block size         1 doubles

 tile_dim =      1

 Block   Spin    Irrep     Size     Offset   Alpha
 -------------------------------------------------
   1    alpha     a      1 doubles       0       1
   2    alpha     a      1 doubles       1       2
   3    alpha     a      1 doubles       2       3
   4    beta      a      1 doubles       3       1
   5    beta      a      1 doubles       4       2
   6    beta      a      1 doubles       5       3
   7    alpha     a      1 doubles       6       7
   8    beta      a      1 doubles       7       7

 Global array virtual files algorithm will be used

 Parallel file system coherency ......... OK

 Integral file          = ./Li2.aoints.0
 Record size in doubles =  65536        No. of integs per rec  =  43688
 Max. records in memory =     99        Max. records in file   = 280097
 No. of bits per label  =      8        No. of bits per value  =     64


 #quartets = 2.215D+04 #integrals = 8.606D+05 #direct =  0.0% #cached =100.0%


 Fock matrix recomputed
 1-e file size   =               16
 1-e file name   = ./Li2.f1
 Cpu & wall time / sec            0.1            0.2
 4-electron integrals stored in orbital form

 v2    file size   =               55
 4-index algorithm nr.  13 is used
 imaxsize =       30
 imaxsize ichop =        0
 begin_one_electron_integrals
    1    1        -4.8970337411
    3    1         0.1276904430
    4    1        -0.0000000001
    2    2        -4.8976383775
    3    2         0.0000000001
    4    2         0.1470729815
    1    3         0.1276904430
    2    3         0.0000000001
    3    3        -1.3250028429
    1    4        -0.0000000001
    2    4         0.1470729815
    4    4        -1.2638161481
 end_one_electron_integrals
 begin_two_electron_integrals
    1    1    1    1        0.9001494409
    2    1    1    1       -0.0000000013
    2    1    2    1        0.7489988721
    3    1    1    1       -0.0607323295
    3    1    3    1        0.0069864644
    3    1    2    2       -0.0607672476
    4    1    1    1        0.0000000002
    4    1    2    1       -0.0717274302
    4    1    4    1        0.0098919383
    4    1    3    2        0.0082660931
    2    2    1    1        0.9004501384
    2    2    2    1        0.0000000013
    2    2    2    2        0.9007510117
    3    2    2    1       -0.0615381201
    3    2    2    2       -0.0000000002
    3    2    3    2        0.0069895186
    4    2    1    1       -0.0721416164
    4    2    3    1        0.0082652801
    4    2    2    2       -0.0721825676
    4    2    4    2        0.0099013289
    4    2    3    3       -0.0017480386
    3    3    1    1        0.2415590032
    3    3    3    1       -0.0008968869
    3    3    2    2        0.2415612267
    3    3    3    3        0.2052687896
    4    3    1    1       -0.0000000002
    4    3    2    1        0.0954405668
    4    3    4    1       -0.0016781817
    4    3    2    2        0.0000000002
    4    3    3    2       -0.0020092861
    4    3    4    3        0.0515304641
    4    4    1    1        0.2466298785
    4    4    3    1       -0.0020278655
    4    4    2    2        0.2466396828
    4    4    4    2       -0.0023019144
    4    4    3    3        0.1906210872
    4    4    4    4        0.1926197938
 end_two_electron_integrals
 enrep_tce =    1.3636363636363635     
  EHF(A)             =       -14.86121255
  EHF(total)         =       -14.86121255
  Shift (HFtot-HFA)  =        -0.00000000
 Cpu & wall time / sec            1.1            1.1
 T1-number-of-tasks                    3

 t1 file size   =                3
 t1 file name   = ./Li2.t1
 t1 file handle =       -998
 T2-number-of-boxes                   15

 t2 file size   =               15
 t2 file name   = ./Li2.t2
 t2 file handle =       -996
CCSD iterations
 ---------------------------------------------------------
 Iter          Residuum       Correlation     Cpu    Wall 
 ---------------------------------------------------------
NEW TASK SCHEDULING
CCSD_T1_NTS --- OK
CCSD_T2_NTS --- OK
    1   0.0248644858011  -0.0094803598967     0.0     0.1
    2   0.0199824004252  -0.0108912856312     0.1     0.1
    3   0.0163185575444  -0.0120593771417     0.0     0.1
    4   0.0132873770555  -0.0130124809790     0.1     0.1
    5   0.0107936431699  -0.0137886799898     0.0     0.1
 MICROCYCLE DIIS UPDATE:                    5                    5
    6   0.0002039561248  -0.0171287796996     0.0     0.1
    7   0.0001639684978  -0.0171168567777     0.1     0.1
    8   0.0001318147913  -0.0171072785512     0.0     0.1
    9   0.0001059698638  -0.0170995782137     0.1     0.1
   10   0.0000851936589  -0.0170933877972     0.1     0.1
 MICROCYCLE DIIS UPDATE:                   10                    5
   11   0.0000000115075  -0.0170680027842     0.1     0.1
 -----------------------------------------------------------------
 Iterations converged
 CCSD correlation energy / hartree =        -0.017068002784192
 CCSD total energy / hartree       =       -14.878280557159886

 Singles contributions

 Doubles contributions
     4a   (alpha)     4a   (beta ) ---     3a   (alpha)     3a   (beta )       -0.3307273732
 Ground state specification:
 exp(T)|Ref>~(1+T)|Ref>
 ------- a(p)+/a(q) strings ----------

 singles norm

 doubles norm

 Reference string
  0.94942293224248231      :(1a)+ (2a)+ (3a)+ (1b)+ (2b)+ (3b)+ |0>

 Singles strings

 Doubles strings
 -0.31400015243959184      :(4a)+ (4b)+ (3b)  (3a)  (1a)+ (2a)+ (3a)+ (1b)+ (2b)+ (3b)+ |0>
 -------------------------------------

 Parallel integral file used      20 records with       0 large values


 Task  times  cpu:        2.0s     wall:        2.3s


                                NWChem Input Module
                                -------------------


 Summary of allocated global arrays
-----------------------------------
  No active global arrays


MA_summarize_allocated_blocks: starting scan ...
MA_summarize_allocated_blocks: scan completed: 0 heap blocks, 0 stack blocks
MA usage statistics:

	allocation statistics:
					      heap	     stack
					      ----	     -----
	current number of blocks	         0	         0
	maximum number of blocks	        18	        42
	current total bytes		         0	         0
	maximum total bytes		  51988456	  58642712
	maximum total K-bytes		     51989	     58643
	maximum total M-bytes		        52	        59


                                     CITATION
                                     --------
                Please cite the following reference when publishing
                           results obtained with NWChem:

          E. Apra, E. J. Bylaska, W. A. de Jong, N. Govind, K. Kowalski,
       T. P. Straatsma, M. Valiev, H. J. J. van Dam, Y. Alexeev, J. Anchell,
       V. Anisimov, F. W. Aquino, R. Atta-Fynn, J. Autschbach, N. P. Bauman,
     J. C. Becca, D. E. Bernholdt, K. Bhaskaran-Nair, S. Bogatko, P. Borowski,
         J. Boschen, J. Brabec, A. Bruner, E. Cauet, Y. Chen, G. N. Chuev,
      C. J. Cramer, J. Daily, M. J. O. Deegan, T. H. Dunning Jr., M. Dupuis,
   K. G. Dyall, G. I. Fann, S. A. Fischer, A. Fonari, H. Fruchtl, L. Gagliardi,
      J. Garza, N. Gawande, S. Ghosh, K. Glaesemann, A. W. Gotz, J. Hammond,
       V. Helms, E. D. Hermes, K. Hirao, S. Hirata, M. Jacquelin, L. Jensen,
   B. G. Johnson, H. Jonsson, R. A. Kendall, M. Klemm, R. Kobayashi, V. Konkov,
      S. Krishnamoorthy, M. Krishnan, Z. Lin, R. D. Lins, R. J. Littlefield,
      A. J. Logsdail, K. Lopata, W. Ma, A. V. Marenich, J. Martin del Campo,
   D. Mejia-Rodriguez, J. E. Moore, J. M. Mullin, T. Nakajima, D. R. Nascimento,
    J. A. Nichols, P. J. Nichols, J. Nieplocha, A. Otero-de-la-Roza, B. Palmer,
    A. Panyala, T. Pirojsirikul, B. Peng, R. Peverati, J. Pittner, L. Pollack,
   R. M. Richard, P. Sadayappan, G. C. Schatz, W. A. Shelton, D. W. Silverstein,
   D. M. A. Smith, T. A. Soares, D. Song, M. Swart, H. L. Taylor, G. S. Thomas,
            V. Tipparaju, D. G. Truhlar, K. Tsemekhman, T. Van Voorhis,
      A. Vazquez-Mayagoitia, P. Verma, O. Villa, A. Vishnu, K. D. Vogiatzis,
        D. Wang, J. H. Weare, M. J. Williamson, T. L. Windus, K. Wolinski,
        A. T. Wong, Q. Wu, C. Yang, Q. Yu, M. Zacharias, Z. Zhang, Y. Zhao,
                                and R. J. Harrison
                        "NWChem: Past, present, and future
                         J. Chem. Phys. 152, 184102 (2020)
                               doi:10.1063/5.0004997

                                      AUTHORS
                                      -------
  E. Apra, E. J. Bylaska, N. Govind, K. Kowalski, M. Valiev, D. Mejia-Rodriguez,
       A. Kunitsa, N. P. Bauman, A. Panyala, W. A. de Jong, T. P. Straatsma,
        H. J. J. van Dam, D. Wang, T. L. Windus, J. Hammond, J. Autschbach,
    K. Bhaskaran-Nair, J. Brabec, K. Lopata, S. A. Fischer, S. Krishnamoorthy,
     M. Jacquelin, W. Ma, M. Klemm, O. Villa, Y. Chen, V. Anisimov, F. Aquino,
    S. Hirata, M. T. Hackler, Eric Hermes, L. Jensen, J. E. Moore, J. C. Becca,
      V. Konjkov, T. Risthaus, M. Malagoli, A. Marenich, A. Otero-de-la-Roza,
        J. Mullin, P. Nichols, R. Peverati, J. Pittner, Y. Zhao, P.-D. Fan,
        A. Fonari, M. J. Williamson, R. J. Harrison, J. R. Rehr, M. Dupuis,
     D. Silverstein, D. M. A. Smith, J. Nieplocha, V. Tipparaju, M. Krishnan,
     B. E. Van Kuiken, A. Vazquez-Mayagoitia, M. Swart, Q. Wu, T. Van Voorhis,
     A. A. Auer, M. Nooijen, L. D. Crosby, E. Brown, G. Cisneros, G. I. Fann,
   H. Fruchtl, J. Garza, K. Hirao, R. A. Kendall, J. A. Nichols, K. Tsemekhman,
    K. Wolinski, J. Anchell, D. E. Bernholdt, P. Borowski, T. Clark, D. Clerc,
   H. Dachsel, M. J. O. Deegan, K. Dyall, D. Elwood, E. Glendening, M. Gutowski,
   A. C. Hess, J. Jaffe, B. G. Johnson, J. Ju, R. Kobayashi, R. Kutteh, Z. Lin,
   R. Littlefield, X. Long, B. Meng, T. Nakajima, S. Niu, L. Pollack, M. Rosing,
   K. Glaesemann, G. Sandrone, M. Stave, H. Taylor, G. Thomas, J. H. van Lenthe,
                               A. T. Wong, Z. Zhang.

 Total times  cpu:        3.3s     wall:        3.8s
