 argument  1 = input.nw
  NWChem w/ OpenMP: maximum threads =    1



============================== echo of input deck ==============================
 echo
 start Li2
 title "Li2"

 memory total 24 gb

 geometry units bohr
 symmetry c1
        Li  0.00000000  0.00000000  0.00000000
        Li  0.00000000  6.8  0.00000000
 end

 basis
   * library cc-pVTZ
 end

 mcscf
   active  4
   actelec 6
   multiplicity 1
   maxiter 40
   vectors input Li2.mos
   vectors output Li2.mos
 end

 task mcscf

 scf
   vectors input Li2.mos
   vectors output Li2-6.8.mos
   noscf
 end

 tce
   2eorb
   2emet 13
   ccsd
   maxiter 300
   lshift 0.3
 end

 set tce:print_integrals T
 set tce:qorb 4
 set tce:qela 3
 set tce:qelb 3

# set tce:qducc T
# set tce:nactv 1
# set tce:nonhf T
# set tce:ducc_model 3

 set tce:printtol 0.02

 task tce
================================================================================


                                         
                                         


             Northwest Computational Chemistry Package (NWChem) 7.0.1
             --------------------------------------------------------


                    Environmental Molecular Sciences Laboratory
                       Pacific Northwest National Laboratory
                                Richland, WA 99352

                              Copyright (c) 1994-2020
                       Pacific Northwest National Laboratory
                            Battelle Memorial Institute

             NWChem is an open-source computational chemistry package
                        distributed under the terms of the
                      Educational Community License (ECL) 2.0
             A copy of the license is included with this distribution
                              in the LICENSE.TXT file

                                  ACKNOWLEDGMENT
                                  --------------

            This software and its documentation were developed at the
            EMSL at Pacific Northwest National Laboratory, a multiprogram
            national laboratory, operated for the U.S. Department of Energy
            by Battelle under Contract Number DE-AC05-76RL01830. Support
            for this work was provided by the Department of Energy Office
            of Biological and Environmental Research, Office of Basic
            Energy Sciences, and the Office of Advanced Scientific Computing.


           Job information
           ---------------

    hostname        = WE46210
    program         = /home/baum612/code/nwchem/bin/LINUX64/nwchem
    date            = Thu Nov 16 00:30:31 2023

    compiled        = Mon_Nov_06_10:06:57_2023
    source          = /home/baum612/code/nwchem
    nwchem branch   = 7.0.0
    nwchem revision = nwchem_on_git-4191-g39d87d64de
    ga revision     = 5.8.1
    use scalapack   = F
    input           = input.nw
    prefix          = Li2.
    data base       = ./Li2.db
    status          = startup
    nproc           =        1
    time left       =     -1s



           Memory information
           ------------------

    heap     =  805306362 doubles =   6144.0 Mbytes
    stack    =  805306367 doubles =   6144.0 Mbytes
    global   = 1610612736 doubles =  12288.0 Mbytes (distinct from heap & stack)
    total    = 3221225465 doubles =  24576.0 Mbytes
    verify   = yes
    hardfail = no 


           Directory information
           ---------------------

  0 permanent = .
  0 scratch   = .




                                NWChem Input Module
                                -------------------


                                        Li2
                                        ---
 Turning off AUTOSYM since
 SYMMETRY directive was detected!


          ------
          auto-z
          ------
     1 autoz failed with cvr_scaling = 1.2 changing to 1.3
     2 autoz failed with cvr_scaling = 1.3 changing to 1.4
     3 autoz failed with cvr_scaling = 1.4 changing to 1.5
  no constraints, skipping    0.0000000000000000     
  no constraints, skipping    0.0000000000000000     


                             Geometry "geometry" -> ""
                             -------------------------

 Output coordinates in a.u. (scale by  1.000000000 to convert to a.u.)

  No.       Tag          Charge          X              Y              Z
 ---- ---------------- ---------- -------------- -------------- --------------
    1 Li                   3.0000     0.00000000    -3.40000000     0.00000000
    2 Li                   3.0000     0.00000000     3.40000000     0.00000000

      Atomic Mass 
      ----------- 

      Li                 7.016000


 Effective nuclear repulsion energy (a.u.)       1.3235294118

            Nuclear Dipole moment (a.u.) 
            ----------------------------
        X                 Y               Z
 ---------------- ---------------- ----------------
     0.0000000000     0.0000000000     0.0000000000



                                Z-matrix (autoz)
                                -------- 

 Units are Angstrom for bonds and degrees for angles

      Type          Name      I     J     K     L     M      Value
      ----------- --------  ----- ----- ----- ----- ----- ----------
    1 Stretch                  1     2                       3.59841


            XYZ format geometry
            -------------------
     2
 geometry
 Li                    0.00000000    -1.79920265     0.00000000
 Li                    0.00000000     1.79920265     0.00000000



 Summary of "ao basis" -> "" (cartesian)
 ------------------------------------------------------------------------------
       Tag                 Description            Shells   Functions and Types
 ---------------- ------------------------------  ------  ---------------------
 *                          cc-pVTZ                   on all atoms 


                      Basis "ao basis" -> "ao basis" (cartesian)
                      -----
  Li (Lithium)
  ------------
            Exponent  Coefficients 
       -------------- ---------------------------------------------------------
  1 S  5.98800000E+03  0.000133
  1 S  8.98900000E+02  0.001025
  1 S  2.05900000E+02  0.005272
  1 S  5.92400000E+01  0.020929
  1 S  1.98700000E+01  0.066340
  1 S  7.40600000E+00  0.165775
  1 S  2.93000000E+00  0.315038
  1 S  1.18900000E+00  0.393523
  1 S  4.79800000E-01  0.190870

  2 S  5.98800000E+03 -0.000021
  2 S  8.98900000E+02 -0.000161
  2 S  2.05900000E+02 -0.000820
  2 S  5.92400000E+01 -0.003326
  2 S  1.98700000E+01 -0.010519
  2 S  7.40600000E+00 -0.028097
  2 S  2.93000000E+00 -0.055936
  2 S  1.18900000E+00 -0.099237
  2 S  4.79800000E-01 -0.112189

  3 S  7.50900000E-02  1.000000

  4 S  2.83200000E-02  1.000000

  5 P  3.26600000E+00  0.008630
  5 P  6.51100000E-01  0.047538
  5 P  1.69600000E-01  0.209772

  6 P  5.57800000E-02  1.000000

  7 P  2.05000000E-02  1.000000

  8 D  1.87400000E-01  1.000000

  9 D  8.01000000E-02  1.000000

 10 F  1.82900000E-01  1.000000



 Summary of "ao basis" -> "ao basis" (cartesian)
 ------------------------------------------------------------------------------
       Tag                 Description            Shells   Functions and Types
 ---------------- ------------------------------  ------  ---------------------
 Li                         cc-pVTZ                 10       35   4s3p2d1f



                            NWChem Direct MCSCF Module
                            --------------------------


                                        Li2


     -----------------------------------
       Basis functions:             70
       Inactive shells:              0
       Active shells:                4
       Active electrons:             6
       Symmetry:                    a       
       Multiplicity:                 1
       Orbital rotations:          264
     -----------------------------------

     -----------------------------------
       E2 extrapolation:             F
       Conjugacy:                    T
       Micro CI relax:               T
       Canonical orbitals:           T
       Maximum iterations:          40
       Converge threshold:    1.00E-04
       Conjugacy resets:            20
       Initial levelshift:        0.10
     -----------------------------------

 Loading old vectors from job with title :

Li2


   input molecular orbitals = ./Li2.mos
  output molecular orbtials = ./Li2.mos

       No. of determinants:            16


  Starting Orbital Energies
    -2.468953    -2.468941    -0.165076    -0.026781     0.026470     0.026470
     0.035584     0.046463     0.050948     0.050948     0.099914     0.112508
     0.112508     0.114891     0.140288     0.140288     0.148605     0.176097
     0.215287     0.215287     0.229991     0.229991     0.259662     0.259662
     0.290722     0.328472     0.328472     0.370634     0.370634     0.371253
     0.383625     0.385358     0.385358     0.405793     0.423270     0.494238
     0.676000     0.676000     0.692803     0.705651     0.705651     0.734390
     0.734390     0.747387     0.747387     0.749359     0.749360     0.770958
     0.770958     0.785672     0.785672     0.787886     0.787886     0.839385
     0.842764     0.842764     0.932716     0.934169     0.934169     0.941831
     0.941831     0.944578     0.965288     1.022306     1.022306     1.246499
     1.361153     1.473120     6.356139     6.406155

  Orbital Symmetry Irreps
a    a    a    a    a    a    a    a    a    a    a    a    a    a    a   
a    a    a    a    a    a    a    a    a    a    a    a    a    a    a   
a    a    a    a    a    a    a    a    a    a    a    a    a    a    a   
a    a    a    a    a    a    a    a    a    a    a    a    a    a    a   
a    a    a    a    a    a    a    a    a    a   

 Integral file          = ./Li2.aoints.0
 Record size in doubles =  65536        No. of integs per rec  =  43688
 Max. records in memory =     99        Max. records in file   = 280046
 No. of bits per label  =      8        No. of bits per value  =     64


 #quartets = 2.214D+04 #integrals = 8.604D+05 #direct =  0.0% #cached =100.0%




          %%%%% MacroIteration   1 %%%%%


          Number of sigma calls:        5
                       o<<<<< (aa):             0.00
                       o<<<<< (bb):             0.00
                       o<<<<< (ab):             0.00
                       o<<<<< (total)           0.00
                       o<<<<< (aa) ff           0.00
                       o<<<<< (aa) gop          0.00
                       o<<<<< (aa) dot          0.00
                       o<<<<< (ab) str          0.00
                       o<<<<< (ab) gath         0.00
                       o<<<<< (ab) dotab        0.00
                       o<<<<< (ab) scat         0.00
                       o<<<<< (ab) sync         0.00
                       o<<<<< Density           0.00
                       o<<<<< Density one       0.00
                       o<<<<< Density two       0.00
                       o<<<<< Density ab        0.00
                       o<<<<< Spin adapt        0.00
                       o<<<<< Symm adapt        0.00

                       o<<<<< (ab) max sync:      0.00

           >>>| Valence CI:            -16.200806831989
           >>>| MCSCF energy:          -14.877277420224
           >>>| Gradient norm:          0.402396995D-02
     --- Warning:   20 Hessian diagonals < 0.05 ---

                              ----- Line search ------

        step       energy         lsg     num-lsg   num-lsh   lsrat    time
      ------- ---------------- --------- --------- --------- ------- --------
       0.0000     -14.87727742 -7.61D-06  0.00D+00  0.00D+00 0.0D+00      0.7

          Number of sigma calls:        5
                       o<<<<< (aa):             0.00
                       o<<<<< (bb):             0.00
                       o<<<<< (ab):             0.00
                       o<<<<< (total)           0.00
                       o<<<<< (aa) ff           0.00
                       o<<<<< (aa) gop          0.00
                       o<<<<< (aa) dot          0.00
                       o<<<<< (ab) str          0.00
                       o<<<<< (ab) gath         0.00
                       o<<<<< (ab) dotab        0.00
                       o<<<<< (ab) scat         0.00
                       o<<<<< (ab) sync         0.00
                       o<<<<< Density           0.00
                       o<<<<< Density one       0.00
                       o<<<<< Density two       0.00
                       o<<<<< Density ab        0.00
                       o<<<<< Spin adapt        0.00
                       o<<<<< Symm adapt        0.00

                       o<<<<< (ab) max sync:      0.00
       1.0000     -14.87728151 -5.70D-07 -5.70D-07  7.04D-06 7.5D-02      0.8
     --- Orbitals canonicalized ---



          %%%%% MacroIteration   2 %%%%%


          Number of sigma calls:        5
                       o<<<<< (aa):             0.00
                       o<<<<< (bb):             0.00
                       o<<<<< (ab):             0.00
                       o<<<<< (total)           0.00
                       o<<<<< (aa) ff           0.00
                       o<<<<< (aa) gop          0.00
                       o<<<<< (aa) dot          0.00
                       o<<<<< (ab) str          0.00
                       o<<<<< (ab) gath         0.00
                       o<<<<< (ab) dotab        0.00
                       o<<<<< (ab) scat         0.00
                       o<<<<< (ab) sync         0.00
                       o<<<<< Density           0.00
                       o<<<<< Density one       0.00
                       o<<<<< Density two       0.00
                       o<<<<< Density ab        0.00
                       o<<<<< Spin adapt        0.00
                       o<<<<< Symm adapt        0.00

                       o<<<<< (ab) max sync:      0.00

           >>>| Valence CI:            -16.200810920611
           >>>| MCSCF energy:          -14.877281508846
           >>>| Gradient norm:          0.214432535D-03
     --- Warning:   20 Hessian diagonals < 0.05 ---
     --- Conjugacy reset ---

                              ----- Line search ------

        step       energy         lsg     num-lsg   num-lsh   lsrat    time
      ------- ---------------- --------- --------- --------- ------- --------
       0.0000     -14.87728151 -1.60D-07  0.00D+00  0.00D+00 0.0D+00      1.0

          Number of sigma calls:        4
                       o<<<<< (aa):             0.00
                       o<<<<< (bb):             0.00
                       o<<<<< (ab):             0.00
                       o<<<<< (total)           0.00
                       o<<<<< (aa) ff           0.00
                       o<<<<< (aa) gop          0.00
                       o<<<<< (aa) dot          0.00
                       o<<<<< (ab) str          0.00
                       o<<<<< (ab) gath         0.00
                       o<<<<< (ab) dotab        0.00
                       o<<<<< (ab) scat         0.00
                       o<<<<< (ab) sync         0.00
                       o<<<<< Density           0.00
                       o<<<<< Density one       0.00
                       o<<<<< Density two       0.00
                       o<<<<< Density ab        0.00
                       o<<<<< Spin adapt        0.00
                       o<<<<< Symm adapt        0.00

                       o<<<<< (ab) max sync:      0.00
       1.0000     -14.87728160 -2.54D-08 -2.54D-08  1.34D-07 1.6D-01      1.1

          Number of sigma calls:        4
                       o<<<<< (aa):             0.00
                       o<<<<< (bb):             0.00
                       o<<<<< (ab):             0.00
                       o<<<<< (total)           0.00
                       o<<<<< (aa) ff           0.00
                       o<<<<< (aa) gop          0.00
                       o<<<<< (aa) dot          0.00
                       o<<<<< (ab) str          0.00
                       o<<<<< (ab) gath         0.00
                       o<<<<< (ab) dotab        0.00
                       o<<<<< (ab) scat         0.00
                       o<<<<< (ab) sync         0.00
                       o<<<<< Density           0.00
                       o<<<<< Density one       0.00
                       o<<<<< Density two       0.00
                       o<<<<< Density ab        0.00
                       o<<<<< Spin adapt        0.00
                       o<<<<< Symm adapt        0.00

                       o<<<<< (ab) max sync:      0.00
       1.1892     -14.87728160  4.35D-11  4.23D-11  1.34D-07 2.7D-04      1.2



          %%%%% MacroIteration   3 %%%%%


          Number of sigma calls:        1
                       o<<<<< (aa):             0.00
                       o<<<<< (bb):             0.00
                       o<<<<< (ab):             0.00
                       o<<<<< (total)           0.00
                       o<<<<< (aa) ff           0.00
                       o<<<<< (aa) gop          0.00
                       o<<<<< (aa) dot          0.00
                       o<<<<< (ab) str          0.00
                       o<<<<< (ab) gath         0.00
                       o<<<<< (ab) dotab        0.00
                       o<<<<< (ab) scat         0.00
                       o<<<<< (ab) sync         0.00
                       o<<<<< Density           0.00
                       o<<<<< Density one       0.00
                       o<<<<< Density two       0.00
                       o<<<<< Density ab        0.00
                       o<<<<< Spin adapt        0.00
                       o<<<<< Symm adapt        0.00

                       o<<<<< (ab) max sync:      0.00

           >>>| Valence CI:            -16.200811015491
           >>>| MCSCF energy:          -14.877281603726
           >>>| Gradient norm:          0.212310685D-04




     ==============================
            MCSCF Converged
     ==============================



          Canonical Eigenvalues

              1      
    1   -2.4697
    2   -2.4697
    3   -0.1638
    4   -0.0280
    5    0.0264
    6    0.0264
    7    0.0355
    8    0.0466
    9    0.0507
   10    0.0507
   11    0.1001
   12    0.1127
   13    0.1127
   14    0.1145
   15    0.1395
   16    0.1395
   17    0.1480
   18    0.1747
   19    0.2153
   20    0.2153
   21    0.2287
   22    0.2287
   23    0.2586
   24    0.2586
   25    0.2896
   26    0.3265
   27    0.3265
   28    0.3704
   29    0.3704
   30    0.3711
   31    0.3834
   32    0.3849
   33    0.3849
   34    0.4033
   35    0.4230
   36    0.4936
   37    0.6772
   38    0.6772
   39    0.6890
   40    0.7062
   41    0.7062
   42    0.7351
   43    0.7351
   44    0.7480
   45    0.7480
   46    0.7483
   47    0.7483
   48    0.7694
   49    0.7694
   50    0.7829
   51    0.7829
   52    0.7831
   53    0.7831
   54    0.8343
   55    0.8373
   56    0.8373
   57    0.9328
   58    0.9336
   59    0.9336
   60    0.9398
   61    0.9412
   62    0.9412
   63    0.9590
   64    1.0112
   65    1.0112
   66    1.2398
   67    1.3614
   68    1.4588
   69    6.3550
   70    6.4017


          Converged CI vector

   Index           Coefficient          Config. Occupation
         1         -0.94358504          1  2  3  1  2  3
         6          0.33112400          1  2  4  1  2  4

          Number of sigma calls:        1
                       o<<<<< (aa):             0.00
                       o<<<<< (bb):             0.00
                       o<<<<< (ab):             0.00
                       o<<<<< (total)           0.00
                       o<<<<< (aa) ff           0.00
                       o<<<<< (aa) gop          0.00
                       o<<<<< (aa) dot          0.00
                       o<<<<< (ab) str          0.00
                       o<<<<< (ab) gath         0.00
                       o<<<<< (ab) dotab        0.00
                       o<<<<< (ab) scat         0.00
                       o<<<<< (ab) sync         0.00
                       o<<<<< Density           0.00
                       o<<<<< Density one       0.00
                       o<<<<< Density two       0.00
                       o<<<<< Density ab        0.00
                       o<<<<< Spin adapt        0.00
                       o<<<<< Symm adapt        0.00

                       o<<<<< (ab) max sync:      0.00



          Natural orbital occupation numbers

              1      
    1    2.0000
    2    2.0000
    3    1.7807
    4    0.2193


          Number of sigma calls:        5
                       o<<<<< (aa):             0.00
                       o<<<<< (bb):             0.00
                       o<<<<< (ab):             0.00
                       o<<<<< (total)           0.00
                       o<<<<< (aa) ff           0.00
                       o<<<<< (aa) gop          0.00
                       o<<<<< (aa) dot          0.00
                       o<<<<< (ab) str          0.00
                       o<<<<< (ab) gath         0.00
                       o<<<<< (ab) dotab        0.00
                       o<<<<< (ab) scat         0.00
                       o<<<<< (ab) sync         0.00
                       o<<<<< Density           0.00
                       o<<<<< Density one       0.00
                       o<<<<< Density two       0.00
                       o<<<<< Density ab        0.00
                       o<<<<< Spin adapt        0.00
                       o<<<<< Symm adapt        0.00

                       o<<<<< (ab) max sync:      0.00


       Final MCSCF results 
       ------------------- 

       Total MCSCF energy =    -14.877281603726
            Gradient norm =      2.1D-05

    CPU time for solution =      1.3s
   Wall time for solution =      1.4s



                        Analysis of MCSCF natural orbitals
                        ----------------------------------

 Vector    1  Occ=1.999997D+00  E=-2.469750D+00  Symmetry=a
              MO Center=  8.4D-10,  8.2D-10,  1.3D-09, r^2= 3.4D+00
   Bfn.  Coefficient  Atom+Function         Bfn.  Coefficient  Atom+Function  
  ----- ------------  ---------------      ----- ------------  ---------------
     1      0.704674  1 Li s                 36      0.704674  2 Li s          

 Vector    2  Occ=1.999997D+00  E=-2.469740D+00  Symmetry=a
              MO Center=  7.6D-10, -8.2D-10,  1.1D-09, r^2= 3.4D+00
   Bfn.  Coefficient  Atom+Function         Bfn.  Coefficient  Atom+Function  
  ----- ------------  ---------------      ----- ------------  ---------------
     1      0.704472  1 Li s                 36     -0.704472  2 Li s          

 Vector    3  Occ=1.780711D+00  E=-1.638304D-01  Symmetry=a
              MO Center=  1.6D-06, -3.2D-12,  2.3D-06, r^2= 6.9D+00
   Bfn.  Coefficient  Atom+Function         Bfn.  Coefficient  Atom+Function  
  ----- ------------  ---------------      ----- ------------  ---------------
     4      0.328324  1 Li s                 39      0.328324  2 Li s          
     3      0.326336  1 Li s                 38      0.326336  2 Li s          
     2      0.178672  1 Li s                 37      0.178672  2 Li s          

 Vector    4  Occ=2.192942D-01  E=-2.796361D-02  Symmetry=a
              MO Center= -6.7D-08, -2.7D-11, -1.0D-07, r^2= 8.6D+00
   Bfn.  Coefficient  Atom+Function         Bfn.  Coefficient  Atom+Function  
  ----- ------------  ---------------      ----- ------------  ---------------
     3      0.606181  1 Li s                 38     -0.606181  2 Li s          
     4      0.412338  1 Li s                 39     -0.412338  2 Li s          
     2      0.236150  1 Li s                 37     -0.236150  2 Li s          

 Vector    5  Occ=0.000000D+00  E= 2.644384D-02  Symmetry=a
              MO Center=  3.3D-06,  2.2D-11,  4.9D-06, r^2= 1.9D+01
   Bfn.  Coefficient  Atom+Function         Bfn.  Coefficient  Atom+Function  
  ----- ------------  ---------------      ----- ------------  ---------------
    13      0.473404  1 Li pz                48      0.473404  2 Li pz         
    11      0.317359  1 Li px                46      0.317359  2 Li px         

 Vector    6  Occ=0.000000D+00  E= 2.644384D-02  Symmetry=a
              MO Center=  5.2D-07,  2.2D-11,  7.6D-07, r^2= 1.9D+01
   Bfn.  Coefficient  Atom+Function         Bfn.  Coefficient  Atom+Function  
  ----- ------------  ---------------      ----- ------------  ---------------
    11      0.473404  1 Li px                46      0.473404  2 Li px         
    13     -0.317359  1 Li pz                48     -0.317359  2 Li pz         

 Vector    7  Occ=0.000000D+00  E= 3.546282D-02  Symmetry=a
              MO Center= -1.2D-07,  2.8D-10, -1.8D-07, r^2= 2.6D+01
   Bfn.  Coefficient  Atom+Function         Bfn.  Coefficient  Atom+Function  
  ----- ------------  ---------------      ----- ------------  ---------------
    12      0.811235  1 Li py                47     -0.811235  2 Li py         
     4     -0.703477  1 Li s                 39     -0.703477  2 Li s          
     3      0.272943  1 Li s                 38      0.272943  2 Li s          

 Vector    8  Occ=0.000000D+00  E= 4.659268D-02  Symmetry=a
              MO Center=  1.1D-05, -2.6D-10,  1.6D-05, r^2= 4.2D+01
   Bfn.  Coefficient  Atom+Function         Bfn.  Coefficient  Atom+Function  
  ----- ------------  ---------------      ----- ------------  ---------------
     4      2.848768  1 Li s                 39     -2.848768  2 Li s          
    12      2.004720  1 Li py                47      2.004720  2 Li py         
     3     -0.431632  1 Li s                 38      0.431632  2 Li s          
     9     -0.361415  1 Li py                44     -0.361415  2 Li py         
    23     -0.150310  1 Li dyy               58      0.150310  2 Li dyy        

 Vector    9  Occ=0.000000D+00  E= 5.068050D-02  Symmetry=a
              MO Center=  9.2D-07, -2.2D-11, -1.9D-08, r^2= 2.8D+01
   Bfn.  Coefficient  Atom+Function         Bfn.  Coefficient  Atom+Function  
  ----- ------------  ---------------      ----- ------------  ---------------
    11      1.049675  1 Li px                46     -1.049675  2 Li px         
    13     -0.782880  1 Li pz                48      0.782880  2 Li pz         
     8     -0.208242  1 Li px                43      0.208242  2 Li px         
    10      0.155313  1 Li pz                45     -0.155313  2 Li pz         

 Vector   10  Occ=0.000000D+00  E= 5.068050D-02  Symmetry=a
              MO Center= -9.2D-06, -2.2D-11, -1.2D-05, r^2= 2.8D+01
   Bfn.  Coefficient  Atom+Function         Bfn.  Coefficient  Atom+Function  
  ----- ------------  ---------------      ----- ------------  ---------------
    13      1.049675  1 Li pz                48     -1.049675  2 Li pz         
    11      0.782880  1 Li px                46     -0.782880  2 Li px         
    10     -0.208242  1 Li pz                45      0.208242  2 Li pz         
     8     -0.155313  1 Li px                43      0.155313  2 Li px         

 Vector   11  Occ=0.000000D+00  E= 1.000864D-01  Symmetry=a
              MO Center=  1.1D-06, -1.9D-11,  1.6D-06, r^2= 1.8D+01
   Bfn.  Coefficient  Atom+Function         Bfn.  Coefficient  Atom+Function  
  ----- ------------  ---------------      ----- ------------  ---------------
     4     -1.123343  1 Li s                 39     -1.123343  2 Li s          
     3      1.091519  1 Li s                 38      1.091519  2 Li s          
    12     -0.872693  1 Li py                47      0.872693  2 Li py         
     9      0.668284  1 Li py                44     -0.668284  2 Li py         
    20      0.284896  1 Li dxx               25      0.284896  1 Li dzz        

 Vector   12  Occ=0.000000D+00  E= 1.126740D-01  Symmetry=a
              MO Center=  5.4D-06,  2.5D-11,  8.4D-06, r^2= 1.8D+01
   Bfn.  Coefficient  Atom+Function         Bfn.  Coefficient  Atom+Function  
  ----- ------------  ---------------      ----- ------------  ---------------
    10      0.977354  1 Li pz                45      0.977354  2 Li pz         
     8      0.630162  1 Li px                13     -0.631637  1 Li pz         
    43      0.630162  2 Li px                48     -0.631637  2 Li pz         
    11     -0.407257  1 Li px                46     -0.407257  2 Li px         

 Vector   13  Occ=0.000000D+00  E= 1.126740D-01  Symmetry=a
              MO Center=  5.8D-07,  2.5D-11,  5.3D-07, r^2= 1.8D+01
   Bfn.  Coefficient  Atom+Function         Bfn.  Coefficient  Atom+Function  
  ----- ------------  ---------------      ----- ------------  ---------------
     8      0.977354  1 Li px                43      0.977354  2 Li px         
    10     -0.630162  1 Li pz                11     -0.631637  1 Li px         
    45     -0.630162  2 Li pz                46     -0.631637  2 Li px         
    13      0.407257  1 Li pz                48      0.407257  2 Li pz         

 Vector   14  Occ=0.000000D+00  E= 1.144581D-01  Symmetry=a
              MO Center= -8.8D-06,  4.7D-11, -1.3D-05, r^2= 2.1D+01
   Bfn.  Coefficient  Atom+Function         Bfn.  Coefficient  Atom+Function  
  ----- ------------  ---------------      ----- ------------  ---------------
     4      1.285435  1 Li s                 39      1.285435  2 Li s          
     3     -1.020871  1 Li s                 38     -1.020871  2 Li s          
     9      0.868855  1 Li py                44     -0.868855  2 Li py         
    12     -0.693540  1 Li py                47      0.693540  2 Li py         
    23     -0.314872  1 Li dyy               58     -0.314872  2 Li dyy        


 Wrote Lagrangian and 1- and 2-particle density matrices to ./Li2.mcpdm


     Multipole analysis of the density
     ---------------------------------

     L   x y z        total        nuclear
     -   - - -        -----        -------
     0   0 0 0     -0.000000      6.000000

     1   1 0 0     -0.000005      0.000000
     1   0 1 0      0.000000      0.000000
     1   0 0 1     -0.000008      0.000000

     2   2 0 0    -12.502135      0.000000
     2   1 1 0     -0.000000      0.000000
     2   1 0 1     -0.000000      0.000000
     2   0 2 0     -4.208167     69.360000
     2   0 1 1      0.000000      0.000000
     2   0 0 2    -12.502135      0.000000


  Mulliken analysis of the total density
  --------------------------------------

    Atom       Charge   Shell Charges
 -----------   ------   -------------------------------------------------------
    1 Li   3     3.00   1.99 -0.01  0.48  0.53  0.01  0.01  0.00  0.00 -0.01 -0.00
    2 Li   3     3.00   1.99 -0.01  0.48  0.53  0.01  0.01  0.00  0.00 -0.01 -0.00

    Mulliken analysis of the active space density
    ---------------------------------------------

    Atom       Charge   Shell Charges
 -----------   ------   -------------------------------------------------------
    1 Li   3     3.00   1.99 -0.01  0.48  0.53  0.01  0.01  0.00  0.00 -0.01 -0.00
    2 Li   3     3.00   1.99 -0.01  0.48  0.53  0.01  0.01  0.00  0.00 -0.01 -0.00

 Parallel integral file used      20 records with       0 large values


 Task  times  cpu:        1.3s     wall:        1.4s


                                NWChem Input Module
                                -------------------


                                 NWChem SCF Module
                                 -----------------


                                        Li2



  ao basis        = "ao basis"
  functions       =    70
  atoms           =     2
  closed shells   =     3
  open shells     =     0
  charge          =   0.00
  wavefunction    = RHF 
  input vectors   = ./Li2.mos
  output vectors  = ./Li2-6.8.mos
  use symmetry    = F
  symmetry adapt  = F


 Summary of "ao basis" -> "ao basis" (cartesian)
 ------------------------------------------------------------------------------
       Tag                 Description            Shells   Functions and Types
 ---------------- ------------------------------  ------  ---------------------
 Li                         cc-pVTZ                 10       35   4s3p2d1f



 Forming initial guess at       1.5s


 Loading old vectors from job with title :

Li2


 Starting SCF solution at       1.5s



 ----------------------------------------------
         Quadratically convergent ROHF

 Convergence threshold     :          1.000E-04
 Maximum no. of iterations :           30
 Final Fock-matrix accuracy:          1.000E-07
 ----------------------------------------------


 Integral file          = ./Li2.aoints.0
 Record size in doubles =  65536        No. of integs per rec  =  43688
 Max. records in memory =     99        Max. records in file   = 280097
 No. of bits per label  =      8        No. of bits per value  =     64


 #quartets = 2.214D+04 #integrals = 8.602D+05 #direct =  0.0% #cached =100.0%



       Final RHF  results 
       ------------------ 

         Total SCF energy =    -14.858839976662
      One-electron energy =    -22.150455560917
      Two-electron energy =      5.968086172491
 Nuclear repulsion energy =      1.323529411765

        Time for solution =      0.1s


             Final eigenvalues
             -----------------

              1      
    1   -2.4697
    2   -2.4697
    3   -0.1638
    4   -0.0280
    5    0.0264
    6    0.0264
    7    0.0355
    8    0.0466
    9    0.0507
   10    0.0507
   11    0.1001
   12    0.1127
   13    0.1127

                       ROHF Final Molecular Orbital Analysis
                       -------------------------------------

 Vector    2  Occ=2.000000D+00  E=-2.469740D+00
              MO Center=  7.6D-10, -8.2D-10,  1.1D-09, r^2= 3.4D+00
   Bfn.  Coefficient  Atom+Function         Bfn.  Coefficient  Atom+Function  
  ----- ------------  ---------------      ----- ------------  ---------------
     1      0.704472  1 Li s                 36     -0.704472  2 Li s          

 Vector    3  Occ=2.000000D+00  E=-1.638304D-01
              MO Center=  1.6D-06, -3.2D-12,  2.3D-06, r^2= 6.9D+00
   Bfn.  Coefficient  Atom+Function         Bfn.  Coefficient  Atom+Function  
  ----- ------------  ---------------      ----- ------------  ---------------
     4      0.328324  1 Li s                 39      0.328324  2 Li s          
     3      0.326336  1 Li s                 38      0.326336  2 Li s          
     2      0.178672  1 Li s                 37      0.178672  2 Li s          

 Vector    4  Occ=0.000000D+00  E=-2.796361D-02
              MO Center= -6.7D-08, -2.7D-11, -1.0D-07, r^2= 8.6D+00
   Bfn.  Coefficient  Atom+Function         Bfn.  Coefficient  Atom+Function  
  ----- ------------  ---------------      ----- ------------  ---------------
     3      0.606181  1 Li s                 38     -0.606181  2 Li s          
     4      0.412338  1 Li s                 39     -0.412338  2 Li s          
     2      0.236150  1 Li s                 37     -0.236150  2 Li s          

 Vector    5  Occ=0.000000D+00  E= 2.644384D-02
              MO Center=  3.3D-06,  2.2D-11,  4.9D-06, r^2= 1.9D+01
   Bfn.  Coefficient  Atom+Function         Bfn.  Coefficient  Atom+Function  
  ----- ------------  ---------------      ----- ------------  ---------------
    13      0.473404  1 Li pz                48      0.473404  2 Li pz         
    11      0.317359  1 Li px                46      0.317359  2 Li px         

 Vector    6  Occ=0.000000D+00  E= 2.644384D-02
              MO Center=  5.2D-07,  2.2D-11,  7.6D-07, r^2= 1.9D+01
   Bfn.  Coefficient  Atom+Function         Bfn.  Coefficient  Atom+Function  
  ----- ------------  ---------------      ----- ------------  ---------------
    11      0.473404  1 Li px                46      0.473404  2 Li px         
    13     -0.317359  1 Li pz                48     -0.317359  2 Li pz         

 Vector    7  Occ=0.000000D+00  E= 3.546282D-02
              MO Center= -1.2D-07,  2.8D-10, -1.8D-07, r^2= 2.6D+01
   Bfn.  Coefficient  Atom+Function         Bfn.  Coefficient  Atom+Function  
  ----- ------------  ---------------      ----- ------------  ---------------
    12      0.811235  1 Li py                47     -0.811235  2 Li py         
     4     -0.703477  1 Li s                 39     -0.703477  2 Li s          
     3      0.272943  1 Li s                 38      0.272943  2 Li s          

 Vector    8  Occ=0.000000D+00  E= 4.659268D-02
              MO Center=  1.1D-05, -2.6D-10,  1.6D-05, r^2= 4.2D+01
   Bfn.  Coefficient  Atom+Function         Bfn.  Coefficient  Atom+Function  
  ----- ------------  ---------------      ----- ------------  ---------------
     4      2.848768  1 Li s                 39     -2.848768  2 Li s          
    12      2.004720  1 Li py                47      2.004720  2 Li py         
     3     -0.431632  1 Li s                 38      0.431632  2 Li s          
     9     -0.361415  1 Li py                44     -0.361415  2 Li py         
    23     -0.150310  1 Li dyy               58      0.150310  2 Li dyy        

 Vector    9  Occ=0.000000D+00  E= 5.068050D-02
              MO Center=  9.2D-07, -2.2D-11, -1.9D-08, r^2= 2.8D+01
   Bfn.  Coefficient  Atom+Function         Bfn.  Coefficient  Atom+Function  
  ----- ------------  ---------------      ----- ------------  ---------------
    11      1.049675  1 Li px                46     -1.049675  2 Li px         
    13     -0.782880  1 Li pz                48      0.782880  2 Li pz         
     8     -0.208242  1 Li px                43      0.208242  2 Li px         
    10      0.155313  1 Li pz                45     -0.155313  2 Li pz         

 Vector   10  Occ=0.000000D+00  E= 5.068050D-02
              MO Center= -9.2D-06, -2.2D-11, -1.2D-05, r^2= 2.8D+01
   Bfn.  Coefficient  Atom+Function         Bfn.  Coefficient  Atom+Function  
  ----- ------------  ---------------      ----- ------------  ---------------
    13      1.049675  1 Li pz                48     -1.049675  2 Li pz         
    11      0.782880  1 Li px                46     -0.782880  2 Li px         
    10     -0.208242  1 Li pz                45      0.208242  2 Li pz         
     8     -0.155313  1 Li px                43      0.155313  2 Li px         

 Vector   11  Occ=0.000000D+00  E= 1.000864D-01
              MO Center=  1.1D-06, -1.9D-11,  1.6D-06, r^2= 1.8D+01
   Bfn.  Coefficient  Atom+Function         Bfn.  Coefficient  Atom+Function  
  ----- ------------  ---------------      ----- ------------  ---------------
     4     -1.123343  1 Li s                 39     -1.123343  2 Li s          
     3      1.091519  1 Li s                 38      1.091519  2 Li s          
    12     -0.872693  1 Li py                47      0.872693  2 Li py         
     9      0.668284  1 Li py                44     -0.668284  2 Li py         
    20      0.284896  1 Li dxx               25      0.284896  1 Li dzz        

 Vector   12  Occ=0.000000D+00  E= 1.126740D-01
              MO Center=  5.4D-06,  2.5D-11,  8.4D-06, r^2= 1.8D+01
   Bfn.  Coefficient  Atom+Function         Bfn.  Coefficient  Atom+Function  
  ----- ------------  ---------------      ----- ------------  ---------------
    10      0.977354  1 Li pz                45      0.977354  2 Li pz         
     8      0.630162  1 Li px                13     -0.631637  1 Li pz         
    43      0.630162  2 Li px                48     -0.631637  2 Li pz         
    11     -0.407257  1 Li px                46     -0.407257  2 Li px         

 Vector   13  Occ=0.000000D+00  E= 1.126740D-01
              MO Center=  5.8D-07,  2.5D-11,  5.3D-07, r^2= 1.8D+01
   Bfn.  Coefficient  Atom+Function         Bfn.  Coefficient  Atom+Function  
  ----- ------------  ---------------      ----- ------------  ---------------
     8      0.977354  1 Li px                43      0.977354  2 Li px         
    10     -0.630162  1 Li pz                11     -0.631637  1 Li px         
    45     -0.630162  2 Li pz                46     -0.631637  2 Li px         
    13      0.407257  1 Li pz                48      0.407257  2 Li pz         

 Vector   14  Occ=0.000000D+00  E= 1.144581D-01
              MO Center= -8.8D-06,  4.7D-11, -1.3D-05, r^2= 2.1D+01
   Bfn.  Coefficient  Atom+Function         Bfn.  Coefficient  Atom+Function  
  ----- ------------  ---------------      ----- ------------  ---------------
     4      1.285435  1 Li s                 39      1.285435  2 Li s          
     3     -1.020871  1 Li s                 38     -1.020871  2 Li s          
     9      0.868855  1 Li py                44     -0.868855  2 Li py         
    12     -0.693540  1 Li py                47      0.693540  2 Li py         
    23     -0.314872  1 Li dyy               58     -0.314872  2 Li dyy        

 Vector   15  Occ=0.000000D+00  E= 1.395033D-01
              MO Center=  5.1D-07, -2.2D-11,  4.5D-07, r^2= 1.8D+01
   Bfn.  Coefficient  Atom+Function         Bfn.  Coefficient  Atom+Function  
  ----- ------------  ---------------      ----- ------------  ---------------
    10      1.282613  1 Li pz                45     -1.282613  2 Li pz         
    13     -1.128116  1 Li pz                48      1.128116  2 Li pz         
     8      0.390257  1 Li px                43     -0.390257  2 Li px         
    11     -0.343249  1 Li px                46      0.343249  2 Li px         

 Vector   16  Occ=0.000000D+00  E= 1.395033D-01
              MO Center=  5.1D-07, -2.2D-11,  1.1D-06, r^2= 1.8D+01
   Bfn.  Coefficient  Atom+Function         Bfn.  Coefficient  Atom+Function  
  ----- ------------  ---------------      ----- ------------  ---------------
     8      1.282613  1 Li px                43     -1.282613  2 Li px         
    11     -1.128116  1 Li px                46      1.128116  2 Li px         
    10     -0.390257  1 Li pz                45      0.390257  2 Li pz         
    13      0.343249  1 Li pz                48     -0.343249  2 Li pz         

 Vector   17  Occ=0.000000D+00  E= 1.479979D-01
              MO Center= -8.8D-07,  7.7D-12, -1.3D-06, r^2= 2.0D+01
   Bfn.  Coefficient  Atom+Function         Bfn.  Coefficient  Atom+Function  
  ----- ------------  ---------------      ----- ------------  ---------------
     4      5.874454  1 Li s                 39     -5.874454  2 Li s          
     3     -1.876066  1 Li s                 38      1.876066  2 Li s          
     9      1.473693  1 Li py                44      1.473693  2 Li py         
    12      1.332927  1 Li py                47      1.332927  2 Li py         
    20     -0.478270  1 Li dxx               25     -0.478270  1 Li dzz        

 Vector   18  Occ=0.000000D+00  E= 1.746716D-01
              MO Center=  1.1D-06, -1.7D-11,  1.6D-06, r^2= 2.0D+01
   Bfn.  Coefficient  Atom+Function         Bfn.  Coefficient  Atom+Function  
  ----- ------------  ---------------      ----- ------------  ---------------
     4      3.627526  1 Li s                 39     -3.627526  2 Li s          
     3     -1.625400  1 Li s                 38      1.625400  2 Li s          
    12      1.566795  1 Li py                47      1.566795  2 Li py         
     9     -1.384456  1 Li py                44     -1.384456  2 Li py         
    20     -0.422493  1 Li dxx               25     -0.422493  1 Li dzz        

 Vector   19  Occ=0.000000D+00  E= 2.153191D-01
              MO Center= -5.8D-07,  1.5D-11, -8.7D-07, r^2= 9.6D+00
   Bfn.  Coefficient  Atom+Function         Bfn.  Coefficient  Atom+Function  
  ----- ------------  ---------------      ----- ------------  ---------------
    20      0.655654  1 Li dxx               25     -0.655654  1 Li dzz        
    55      0.655654  2 Li dxx               60     -0.655654  2 Li dzz        

 Vector   20  Occ=0.000000D+00  E= 2.153191D-01
              MO Center= -5.8D-07,  1.5D-11, -8.7D-07, r^2= 9.6D+00
   Bfn.  Coefficient  Atom+Function         Bfn.  Coefficient  Atom+Function  
  ----- ------------  ---------------      ----- ------------  ---------------
    22      1.311308  1 Li dxz               57      1.311308  2 Li dxz        
    16     -0.270779  1 Li dxz               51     -0.270779  2 Li dxz        

 Vector   21  Occ=0.000000D+00  E= 2.286635D-01
              MO Center=  2.8D-07,  5.0D-12,  2.6D-07, r^2= 1.1D+01
   Bfn.  Coefficient  Atom+Function         Bfn.  Coefficient  Atom+Function  
  ----- ------------  ---------------      ----- ------------  ---------------
    21      0.911780  1 Li dxy               56     -0.911780  2 Li dxy        
    24     -0.817751  1 Li dyz               59      0.817751  2 Li dyz        
     8     -0.231990  1 Li px                43     -0.231990  2 Li px         
    10      0.208065  1 Li pz                45      0.208065  2 Li pz         
    15     -0.172750  1 Li dxy               50      0.172750  2 Li dxy        

 Vector   22  Occ=0.000000D+00  E= 2.286635D-01
              MO Center= -2.0D-07,  5.1D-12, -1.4D-07, r^2= 1.1D+01
   Bfn.  Coefficient  Atom+Function         Bfn.  Coefficient  Atom+Function  
  ----- ------------  ---------------      ----- ------------  ---------------
    24      0.911780  1 Li dyz               59     -0.911780  2 Li dyz        
    21      0.817751  1 Li dxy               56     -0.817751  2 Li dxy        
    10     -0.231990  1 Li pz                45     -0.231990  2 Li pz         
     8     -0.208065  1 Li px                43     -0.208065  2 Li px         
    18     -0.172750  1 Li dyz               53      0.172750  2 Li dyz        

 Vector   23  Occ=0.000000D+00  E= 2.586125D-01
              MO Center= -4.2D-07, -1.4D-11, -6.2D-07, r^2= 1.1D+01
   Bfn.  Coefficient  Atom+Function         Bfn.  Coefficient  Atom+Function  
  ----- ------------  ---------------      ----- ------------  ---------------
    20      0.775198  1 Li dxx               25     -0.775198  1 Li dzz        
    55     -0.775198  2 Li dxx               60      0.775198  2 Li dzz        

 Vector   24  Occ=0.000000D+00  E= 2.586125D-01
              MO Center= -4.2D-07, -1.4D-11, -6.2D-07, r^2= 1.1D+01
   Bfn.  Coefficient  Atom+Function         Bfn.  Coefficient  Atom+Function  
  ----- ------------  ---------------      ----- ------------  ---------------
    22      1.550395  1 Li dxz               57     -1.550395  2 Li dxz        
    16     -0.295159  1 Li dxz               51      0.295159  2 Li dxz        

 Vector   25  Occ=0.000000D+00  E= 2.895801D-01
              MO Center=  4.4D-08, -8.5D-12,  6.6D-08, r^2= 1.3D+01
   Bfn.  Coefficient  Atom+Function         Bfn.  Coefficient  Atom+Function  
  ----- ------------  ---------------      ----- ------------  ---------------
     9      0.689624  1 Li py                44     -0.689624  2 Li py         
    23     -0.683767  1 Li dyy               58     -0.683767  2 Li dyy        
    12     -0.627105  1 Li py                47      0.627105  2 Li py         
    20      0.601904  1 Li dxx               25      0.601904  1 Li dzz        
    55      0.601904  2 Li dxx               60      0.601904  2 Li dzz        

 Vector   26  Occ=0.000000D+00  E= 3.264589D-01
              MO Center=  1.1D-07, -5.5D-12,  8.2D-08, r^2= 1.2D+01
   Bfn.  Coefficient  Atom+Function         Bfn.  Coefficient  Atom+Function  
  ----- ------------  ---------------      ----- ------------  ---------------
    21      1.699950  1 Li dxy               56      1.699950  2 Li dxy        
    24     -1.376074  1 Li dyz               59     -1.376074  2 Li dyz        
    15     -0.294566  1 Li dxy               50     -0.294566  2 Li dxy        
    11      0.248761  1 Li px                46     -0.248761  2 Li px         
    18      0.238445  1 Li dyz               53      0.238445  2 Li dyz        

 Vector   27  Occ=0.000000D+00  E= 3.264589D-01
              MO Center= -2.4D-07, -5.5D-12, -2.8D-07, r^2= 1.2D+01
   Bfn.  Coefficient  Atom+Function         Bfn.  Coefficient  Atom+Function  
  ----- ------------  ---------------      ----- ------------  ---------------
    24      1.699950  1 Li dyz               59      1.699950  2 Li dyz        
    21      1.376074  1 Li dxy               56      1.376074  2 Li dxy        
    18     -0.294566  1 Li dyz               53     -0.294566  2 Li dyz        
    13      0.248761  1 Li pz                48     -0.248761  2 Li pz         
    15     -0.238445  1 Li dxy               50     -0.238445  2 Li dxy        

 Vector   28  Occ=0.000000D+00  E= 3.704397D-01
              MO Center=  4.8D-06,  5.1D-11,  8.2D-06, r^2= 1.1D+01
   Bfn.  Coefficient  Atom+Function         Bfn.  Coefficient  Atom+Function  
  ----- ------------  ---------------      ----- ------------  ---------------
    10      1.248242  1 Li pz                45      1.248242  2 Li pz         
     8      0.721971  1 Li px                43      0.721971  2 Li px         
     7     -0.548360  1 Li pz                42     -0.548360  2 Li pz         
    33     -0.524017  1 Li fyyz              68     -0.524017  2 Li fyyz       
    28     -0.441527  1 Li fxxz              35     -0.441527  1 Li fzzz       

 Vector   29  Occ=0.000000D+00  E= 3.704397D-01
              MO Center=  7.0D-07,  5.2D-11, -8.6D-08, r^2= 1.1D+01
   Bfn.  Coefficient  Atom+Function         Bfn.  Coefficient  Atom+Function  
  ----- ------------  ---------------      ----- ------------  ---------------
     8      1.248242  1 Li px                43      1.248242  2 Li px         
    10     -0.721971  1 Li pz                45     -0.721971  2 Li pz         
     5     -0.548360  1 Li px                40     -0.548360  2 Li px         
    29     -0.524017  1 Li fxyy              64     -0.524017  2 Li fxyy       
    26     -0.441527  1 Li fxxx              31     -0.441527  1 Li fxzz       

 Vector   30  Occ=0.000000D+00  E= 3.710956D-01
              MO Center=  5.2D-08,  1.1D-10,  7.7D-08, r^2= 1.3D+01
   Bfn.  Coefficient  Atom+Function         Bfn.  Coefficient  Atom+Function  
  ----- ------------  ---------------      ----- ------------  ---------------
     9      3.442019  1 Li py                44      3.442019  2 Li py         
     4      1.434196  1 Li s                 39     -1.434196  2 Li s          
    23      1.010652  1 Li dyy               58     -1.010652  2 Li dyy        
     6     -0.724312  1 Li py                41     -0.724312  2 Li py         
    27     -0.667762  1 Li fxxy              34     -0.667762  1 Li fyzz       

 Vector   31  Occ=0.000000D+00  E= 3.833869D-01
              MO Center= -3.0D-06, -1.1D-10, -4.5D-06, r^2= 1.4D+01
   Bfn.  Coefficient  Atom+Function         Bfn.  Coefficient  Atom+Function  
  ----- ------------  ---------------      ----- ------------  ---------------
     9      1.329799  1 Li py                44     -1.329799  2 Li py         
     4      1.089078  1 Li s                 39      1.089078  2 Li s          
    20     -0.737232  1 Li dxx               25     -0.737232  1 Li dzz        
    55     -0.737232  2 Li dxx               60     -0.737232  2 Li dzz        
     6     -0.559944  1 Li py                41      0.559944  2 Li py         

 Vector   32  Occ=0.000000D+00  E= 3.849470D-01
              MO Center=  1.7D-06, -5.2D-11,  3.9D-06, r^2= 1.1D+01
   Bfn.  Coefficient  Atom+Function         Bfn.  Coefficient  Atom+Function  
  ----- ------------  ---------------      ----- ------------  ---------------
    10      1.777707  1 Li pz                45     -1.777707  2 Li pz         
     8      0.783980  1 Li px                43     -0.783980  2 Li px         
    13     -0.685227  1 Li pz                48      0.685227  2 Li pz         
    24      0.665868  1 Li dyz               59      0.665868  2 Li dyz        
     7     -0.603693  1 Li pz                42      0.603693  2 Li pz         

 Vector   33  Occ=0.000000D+00  E= 3.849470D-01
              MO Center=  7.5D-07, -5.3D-11, -2.0D-07, r^2= 1.1D+01
   Bfn.  Coefficient  Atom+Function         Bfn.  Coefficient  Atom+Function  
  ----- ------------  ---------------      ----- ------------  ---------------
     8      1.777707  1 Li px                43     -1.777707  2 Li px         
    10     -0.783980  1 Li pz                45      0.783980  2 Li pz         
    11     -0.685227  1 Li px                46      0.685227  2 Li px         
    21      0.665868  1 Li dxy               56      0.665868  2 Li dxy        
     5     -0.603693  1 Li px                40      0.603693  2 Li px         

 Vector   34  Occ=0.000000D+00  E= 4.033294D-01
              MO Center= -2.2D-06, -5.8D-12, -3.3D-06, r^2= 1.3D+01
   Bfn.  Coefficient  Atom+Function         Bfn.  Coefficient  Atom+Function  
  ----- ------------  ---------------      ----- ------------  ---------------
     4      4.821384  1 Li s                 39     -4.821384  2 Li s          
     9      4.147721  1 Li py                44      4.147721  2 Li py         
    23      2.528536  1 Li dyy               58     -2.528536  2 Li dyy        
    20     -1.137516  1 Li dxx               25     -1.137516  1 Li dzz        
    55      1.137516  2 Li dxx               60      1.137516  2 Li dzz        

 Vector   35  Occ=0.000000D+00  E= 4.230231D-01
              MO Center= -2.7D-06,  7.0D-12, -4.0D-06, r^2= 7.6D+00
   Bfn.  Coefficient  Atom+Function         Bfn.  Coefficient  Atom+Function  
  ----- ------------  ---------------      ----- ------------  ---------------
    23      1.084048  1 Li dyy               58      1.084048  2 Li dyy        
     4     -0.901558  1 Li s                 39     -0.901558  2 Li s          
     9      0.822297  1 Li py                44     -0.822297  2 Li py         
    20      0.533145  1 Li dxx               25      0.533145  1 Li dzz        
    55      0.533145  2 Li dxx               60      0.533145  2 Li dzz        

 Vector   36  Occ=0.000000D+00  E= 4.936216D-01
              MO Center= -1.1D-06, -9.2D-12, -1.6D-06, r^2= 1.2D+01
   Bfn.  Coefficient  Atom+Function         Bfn.  Coefficient  Atom+Function  
  ----- ------------  ---------------      ----- ------------  ---------------
     9      4.531170  1 Li py                44      4.531170  2 Li py         
    23      3.901688  1 Li dyy               58     -3.901688  2 Li dyy        
     4     -2.191414  1 Li s                 39      2.191414  2 Li s          
     3      2.027293  1 Li s                 38     -2.027293  2 Li s          
    12     -0.864969  1 Li py                47     -0.864969  2 Li py         

 Vector   37  Occ=0.000000D+00  E= 6.771878D-01
              MO Center=  6.7D-07,  2.7D-12,  1.3D-06, r^2= 5.4D+00
   Bfn.  Coefficient  Atom+Function         Bfn.  Coefficient  Atom+Function  
  ----- ------------  ---------------      ----- ------------  ---------------
    33      1.211267  1 Li fyyz              68      1.211267  2 Li fyyz       
    18      1.065523  1 Li dyz               53     -1.065523  2 Li dyz        
    24     -0.718886  1 Li dyz               59      0.718886  2 Li dyz        
    29      0.374996  1 Li fxyy              64      0.374996  2 Li fxyy       
    15      0.329875  1 Li dxy               50     -0.329875  2 Li dxy        


 center of mass
 --------------
 x =   0.00000000 y =   0.00000000 z =   0.00000000

 moments of inertia (a.u.)
 ------------------
         162.209920000000           0.000000000000           0.000000000000
           0.000000000000           0.000000000000           0.000000000000
           0.000000000000           0.000000000000         162.209920000000

  Mulliken analysis of the total density
  --------------------------------------

    Atom       Charge   Shell Charges
 -----------   ------   -------------------------------------------------------
    1 Li   3     3.00   1.99 -0.01  0.46  0.55  0.01  0.02  0.00  0.00 -0.02 -0.00
    2 Li   3     3.00   1.99 -0.01  0.46  0.55  0.01  0.02  0.00  0.00 -0.02 -0.00

       Multipole analysis of the density wrt the origin
       ------------------------------------------------

     L   x y z        total         open         nuclear
     -   - - -        -----         ----         -------
     0   0 0 0     -0.000000      0.000000      6.000000

     1   1 0 0     -0.000006      0.000000      0.000000
     1   0 1 0      0.000000      0.000000      0.000000
     1   0 0 1     -0.000009      0.000000      0.000000

     2   2 0 0    -12.703740      0.000000      0.000000
     2   1 1 0     -0.000000      0.000000      0.000000
     2   1 0 1     -0.000000      0.000000      0.000000
     2   0 2 0     -2.462406      0.000000     69.360000
     2   0 1 1      0.000000      0.000000      0.000000
     2   0 0 2    -12.703740      0.000000      0.000000


 Parallel integral file used      20 records with       0 large values

 ------------------------------------
     Number of active orbitals      4
     Number of active alpha electrons      3
     Number of active beta electrons       3
 ------------------------------------
                   NWChem Extensible Many-Electron Theory Module
                   ---------------------------------------------

              ======================================================
                   This portion of the program was automatically
                  generated by a Tensor Contraction Engine (TCE).
                  The development of this portion of the program
                 and TCE was supported by US Department of Energy,
                Office of Science, Office of Basic Energy Science.
                      TCE is a product of Battelle and PNNL.
              Please cite: S.Hirata, J.Phys.Chem.A 107, 9887 (2003).
              ======================================================

                                        Li2


            General Information
            -------------------
      Number of processors :     1
         Wavefunction type : Restricted Hartree-Fock
          No. of electrons :     6
           Alpha electrons :     3
            Beta electrons :     3
           No. of orbitals :   140
            Alpha orbitals :    70
             Beta orbitals :    70
        Alpha frozen cores :     0
         Beta frozen cores :     0
     Alpha frozen virtuals :    66
      Beta frozen virtuals :    66
         Spin multiplicity : singlet 
    Number of AO functions :    70
       Number of AO shells :    20
        Use of symmetry is : off
      Symmetry adaption is : off
         Schwarz screening : 0.10D-09

          Correlation Information
          -----------------------
          Calculation type : Coupled-cluster singles & doubles                           
   Perturbative correction : none                                                        
            Max iterations :      300
        Residual threshold : 0.10D-06
     T(0) DIIS level shift : 0.30D+00
     L(0) DIIS level shift : 0.00D+00
     T(1) DIIS level shift : 0.00D+00
     L(1) DIIS level shift : 0.00D+00
     T(R) DIIS level shift : 0.00D+00
     T(I) DIIS level shift : 0.00D+00
   CC-T/L Amplitude update :  5-th order DIIS
                I/O scheme : Global Array Library
        L-threshold :  0.10D-06
        EOM-threshold :  0.10D-06
 no EOMCCSD initial starts read in
 TCE RESTART OPTIONS
 READ_INT:   F
 WRITE_INT:  F
 READ_TA:    F
 WRITE_TA:   F
 READ_XA:    F
 WRITE_XA:   F
 READ_IN3:   F
 WRITE_IN3:  F
 SLICE:      F
 D4D5:       F
 quantumc:   T
 qrotation:  F
 pwtce:      F
 qducc:      F
 nacto:                         0
 nrotv:                         0
 nrot:                          0

            Memory Information
            ------------------
          Available GA space size is    1610607836 doubles
          Available MA space size is    1610609956 doubles

 Maximum block size supplied by input
 Maximum block size         1 doubles

 tile_dim =      1

 Block   Spin    Irrep     Size     Offset   Alpha
 -------------------------------------------------
   1    alpha     a      1 doubles       0       1
   2    alpha     a      1 doubles       1       2
   3    alpha     a      1 doubles       2       3
   4    beta      a      1 doubles       3       1
   5    beta      a      1 doubles       4       2
   6    beta      a      1 doubles       5       3
   7    alpha     a      1 doubles       6       7
   8    beta      a      1 doubles       7       7

 Global array virtual files algorithm will be used

 Parallel file system coherency ......... OK

 Integral file          = ./Li2.aoints.0
 Record size in doubles =  65536        No. of integs per rec  =  43688
 Max. records in memory =     99        Max. records in file   = 280097
 No. of bits per label  =      8        No. of bits per value  =     64


 #quartets = 2.214D+04 #integrals = 8.606D+05 #direct =  0.0% #cached =100.0%


 Fock matrix recomputed
 1-e file size   =               16
 1-e file name   = ./Li2.f1
 Cpu & wall time / sec            0.1            0.1
 4-electron integrals stored in orbital form

 v2    file size   =               55
 4-index algorithm nr.  13 is used
 imaxsize =       30
 imaxsize ichop =        0
 begin_one_electron_integrals
    1    1        -4.8837510534
    3    1         0.1263187784
    2    2        -4.8842929292
    4    2         0.1458355506
    1    3         0.1263187784
    3    3        -1.3071837978
    2    4         0.1458355506
    4    4        -1.2543865695
 end_one_electron_integrals
 begin_two_electron_integrals
    1    1    1    1        0.8979978740
    2    1    1    1       -0.0000000003
    2    1    2    1        0.7512637898
    3    1    1    1       -0.0602029577
    3    1    3    1        0.0068533079
    3    1    2    2       -0.0602337945
    4    1    2    1       -0.0712112434
    4    1    4    1        0.0097316503
    4    1    3    2        0.0081275470
    2    2    1    1        0.8982660947
    2    2    2    1        0.0000000003
    2    2    2    2        0.8985344555
    3    2    2    1       -0.0609127269
    3    2    3    2        0.0068563990
    4    2    1    1       -0.0715743439
    4    2    3    1        0.0081270167
    4    2    2    2       -0.0716105874
    4    2    4    2        0.0097398517
    4    2    3    3       -0.0016825190
    3    3    1    1        0.2382830445
    3    3    3    1       -0.0009216129
    3    3    2    2        0.2382853200
    3    3    3    3        0.2021629995
    4    3    2    1        0.0964630796
    4    3    4    1       -0.0016575260
    4    3    3    2       -0.0019308101
    4    3    4    3        0.0524828107
    4    4    1    1        0.2443206000
    4    4    3    1       -0.0019679429
    4    4    2    2        0.2443291462
    4    4    4    2       -0.0022478063
    4    4    3    3        0.1887524516
    4    4    4    4        0.1908328592
 end_two_electron_integrals
 enrep_tce =    1.3235294117647058     
  EHF(A)             =       -14.85883998
  EHF(total)         =       -14.85883998
  Shift (HFtot-HFA)  =        -0.00000000
 Cpu & wall time / sec            1.1            1.1
 T1-number-of-tasks                    3

 t1 file size   =                3
 t1 file name   = ./Li2.t1
 t1 file handle =       -998
 T2-number-of-boxes                   15

 t2 file size   =               15
 t2 file name   = ./Li2.t2
 t2 file handle =       -996
CCSD iterations
 ---------------------------------------------------------
 Iter          Residuum       Correlation     Cpu    Wall 
 ---------------------------------------------------------
NEW TASK SCHEDULING
CCSD_T1_NTS --- OK
CCSD_T2_NTS --- OK
    1   0.0256638155777  -0.0101776087227     0.1     0.1
    2   0.0207736618601  -0.0116798539625     0.0     0.1
    3   0.0170648345443  -0.0129303190653     0.0     0.1
    4   0.0139736681267  -0.0139567044950     0.0     0.1
    5   0.0114129835599  -0.0147973030051     0.0     0.1
 MICROCYCLE DIIS UPDATE:                    5                    5
    6   0.0002502799334  -0.0185197881301     0.1     0.1
    7   0.0002020565133  -0.0185047221951     0.0     0.1
    8   0.0001631189816  -0.0184925676212     0.1     0.1
    9   0.0001316903111  -0.0184827548349     0.1     0.1
   10   0.0001063193753  -0.0184748328456     0.0     0.1
 MICROCYCLE DIIS UPDATE:                   10                    5
   11   0.0000000194253  -0.0184416331941     0.1     0.1
 -----------------------------------------------------------------
 Iterations converged
 CCSD correlation energy / hartree =        -0.018441633194133
 CCSD total energy / hartree       =       -14.877281609855974

 Singles contributions

 Doubles contributions
     4a   (alpha)     4a   (beta ) ---     3a   (alpha)     3a   (beta )       -0.3509232659
 Ground state specification:
 exp(T)|Ref>~(1+T)|Ref>
 ------- a(p)+/a(q) strings ----------

 singles norm

 doubles norm

 Reference string
  0.94358639951842904      :(1a)+ (2a)+ (3a)+ (1b)+ (2b)+ (3b)+ |0>

 Singles strings

 Doubles strings
 -0.33112642093896377      :(4a)+ (4b)+ (3b)  (3a)  (1a)+ (2a)+ (3a)+ (1b)+ (2b)+ (3b)+ |0>
 -------------------------------------

 Parallel integral file used      20 records with       0 large values


 Task  times  cpu:        1.9s     wall:        2.3s


                                NWChem Input Module
                                -------------------


 Summary of allocated global arrays
-----------------------------------
  No active global arrays


MA_summarize_allocated_blocks: starting scan ...
MA_summarize_allocated_blocks: scan completed: 0 heap blocks, 0 stack blocks
MA usage statistics:

	allocation statistics:
					      heap	     stack
					      ----	     -----
	current number of blocks	         0	         0
	maximum number of blocks	        18	        42
	current total bytes		         0	         0
	maximum total bytes		  51988456	  58642712
	maximum total K-bytes		     51989	     58643
	maximum total M-bytes		        52	        59


                                     CITATION
                                     --------
                Please cite the following reference when publishing
                           results obtained with NWChem:

          E. Apra, E. J. Bylaska, W. A. de Jong, N. Govind, K. Kowalski,
       T. P. Straatsma, M. Valiev, H. J. J. van Dam, Y. Alexeev, J. Anchell,
       V. Anisimov, F. W. Aquino, R. Atta-Fynn, J. Autschbach, N. P. Bauman,
     J. C. Becca, D. E. Bernholdt, K. Bhaskaran-Nair, S. Bogatko, P. Borowski,
         J. Boschen, J. Brabec, A. Bruner, E. Cauet, Y. Chen, G. N. Chuev,
      C. J. Cramer, J. Daily, M. J. O. Deegan, T. H. Dunning Jr., M. Dupuis,
   K. G. Dyall, G. I. Fann, S. A. Fischer, A. Fonari, H. Fruchtl, L. Gagliardi,
      J. Garza, N. Gawande, S. Ghosh, K. Glaesemann, A. W. Gotz, J. Hammond,
       V. Helms, E. D. Hermes, K. Hirao, S. Hirata, M. Jacquelin, L. Jensen,
   B. G. Johnson, H. Jonsson, R. A. Kendall, M. Klemm, R. Kobayashi, V. Konkov,
      S. Krishnamoorthy, M. Krishnan, Z. Lin, R. D. Lins, R. J. Littlefield,
      A. J. Logsdail, K. Lopata, W. Ma, A. V. Marenich, J. Martin del Campo,
   D. Mejia-Rodriguez, J. E. Moore, J. M. Mullin, T. Nakajima, D. R. Nascimento,
    J. A. Nichols, P. J. Nichols, J. Nieplocha, A. Otero-de-la-Roza, B. Palmer,
    A. Panyala, T. Pirojsirikul, B. Peng, R. Peverati, J. Pittner, L. Pollack,
   R. M. Richard, P. Sadayappan, G. C. Schatz, W. A. Shelton, D. W. Silverstein,
   D. M. A. Smith, T. A. Soares, D. Song, M. Swart, H. L. Taylor, G. S. Thomas,
            V. Tipparaju, D. G. Truhlar, K. Tsemekhman, T. Van Voorhis,
      A. Vazquez-Mayagoitia, P. Verma, O. Villa, A. Vishnu, K. D. Vogiatzis,
        D. Wang, J. H. Weare, M. J. Williamson, T. L. Windus, K. Wolinski,
        A. T. Wong, Q. Wu, C. Yang, Q. Yu, M. Zacharias, Z. Zhang, Y. Zhao,
                                and R. J. Harrison
                        "NWChem: Past, present, and future
                         J. Chem. Phys. 152, 184102 (2020)
                               doi:10.1063/5.0004997

                                      AUTHORS
                                      -------
  E. Apra, E. J. Bylaska, N. Govind, K. Kowalski, M. Valiev, D. Mejia-Rodriguez,
       A. Kunitsa, N. P. Bauman, A. Panyala, W. A. de Jong, T. P. Straatsma,
        H. J. J. van Dam, D. Wang, T. L. Windus, J. Hammond, J. Autschbach,
    K. Bhaskaran-Nair, J. Brabec, K. Lopata, S. A. Fischer, S. Krishnamoorthy,
     M. Jacquelin, W. Ma, M. Klemm, O. Villa, Y. Chen, V. Anisimov, F. Aquino,
    S. Hirata, M. T. Hackler, Eric Hermes, L. Jensen, J. E. Moore, J. C. Becca,
      V. Konjkov, T. Risthaus, M. Malagoli, A. Marenich, A. Otero-de-la-Roza,
        J. Mullin, P. Nichols, R. Peverati, J. Pittner, Y. Zhao, P.-D. Fan,
        A. Fonari, M. J. Williamson, R. J. Harrison, J. R. Rehr, M. Dupuis,
     D. Silverstein, D. M. A. Smith, J. Nieplocha, V. Tipparaju, M. Krishnan,
     B. E. Van Kuiken, A. Vazquez-Mayagoitia, M. Swart, Q. Wu, T. Van Voorhis,
     A. A. Auer, M. Nooijen, L. D. Crosby, E. Brown, G. Cisneros, G. I. Fann,
   H. Fruchtl, J. Garza, K. Hirao, R. A. Kendall, J. A. Nichols, K. Tsemekhman,
    K. Wolinski, J. Anchell, D. E. Bernholdt, P. Borowski, T. Clark, D. Clerc,
   H. Dachsel, M. J. O. Deegan, K. Dyall, D. Elwood, E. Glendening, M. Gutowski,
   A. C. Hess, J. Jaffe, B. G. Johnson, J. Ju, R. Kobayashi, R. Kutteh, Z. Lin,
   R. Littlefield, X. Long, B. Meng, T. Nakajima, S. Niu, L. Pollack, M. Rosing,
   K. Glaesemann, G. Sandrone, M. Stave, H. Taylor, G. Thomas, J. H. van Lenthe,
                               A. T. Wong, Z. Zhang.

 Total times  cpu:        3.2s     wall:        3.7s
