 argument  1 = input.nw
  NWChem w/ OpenMP: maximum threads =    1



============================== echo of input deck ==============================
 echo
 start H2O
 title "H2O"

 memory total 24 gb

 geometry units bohr
 symmetry c1
        O  0.00000000  0.00000000  0.00000000
        H  0.00000000  2.94952  0.00000000
        H  1.72558000 -0.64860000  0.00000000
 end

 basis spherical
   * library cc-pVDZ
 end

 mcscf
   active  8
   actelec 10
   multiplicity 1
   maxiter 40
   vectors input h2o.mos
   vectors output h2o.mos
 end

 task mcscf

 scf
   vectors input h2o.mos
   vectors output h2o-trash.mos
   noscf
 end

 tce
   2eorb
   2emet 13
   ccsd
   maxiter 300
 end

 set tce:print_integrals T
 set tce:qorb 8
 set tce:qela 5
 set tce:qelb 5

# set tce:qducc T
# set tce:nactv 3
# set tce:nonhf T
# set tce:ducc_model 6

 set tce:printtol 0.02

 task tce
================================================================================


                                         
                                         


             Northwest Computational Chemistry Package (NWChem) 7.0.1
             --------------------------------------------------------


                    Environmental Molecular Sciences Laboratory
                       Pacific Northwest National Laboratory
                                Richland, WA 99352

                              Copyright (c) 1994-2020
                       Pacific Northwest National Laboratory
                            Battelle Memorial Institute

             NWChem is an open-source computational chemistry package
                        distributed under the terms of the
                      Educational Community License (ECL) 2.0
             A copy of the license is included with this distribution
                              in the LICENSE.TXT file

                                  ACKNOWLEDGMENT
                                  --------------

            This software and its documentation were developed at the
            EMSL at Pacific Northwest National Laboratory, a multiprogram
            national laboratory, operated for the U.S. Department of Energy
            by Battelle under Contract Number DE-AC05-76RL01830. Support
            for this work was provided by the Department of Energy Office
            of Biological and Environmental Research, Office of Basic
            Energy Sciences, and the Office of Advanced Scientific Computing.


           Job information
           ---------------

    hostname        = WE46210
    program         = /home/baum612/code/nwchem/bin/LINUX64/nwchem
    date            = Wed Sep  4 11:55:45 2024

    compiled        = Wed_Sep_04_02:00:17_2024
    source          = /home/baum612/code/nwchem
    nwchem branch   = 7.0.0
    nwchem revision = nwchem_on_git-4191-g39d87d64de
    ga revision     = 5.8.1
    use scalapack   = F
    input           = input.nw
    prefix          = H2O.
    data base       = ./H2O.db
    status          = startup
    nproc           =        1
    time left       =     -1s



           Memory information
           ------------------

    heap     =  805306366 doubles =   6144.0 Mbytes
    stack    =  805306363 doubles =   6144.0 Mbytes
    global   = 1610612736 doubles =  12288.0 Mbytes (distinct from heap & stack)
    total    = 3221225465 doubles =  24576.0 Mbytes
    verify   = yes
    hardfail = no 


           Directory information
           ---------------------

  0 permanent = .
  0 scratch   = .




                                NWChem Input Module
                                -------------------


                                        H2O
                                        ---
 Turning off AUTOSYM since
 SYMMETRY directive was detected!


          ------
          auto-z
          ------
  autoz: The atoms group into disjoint clusters
 cluster   1:    1    3
 cluster   2:    2
 Connecting clusters   1   2 via atoms    1    2 r = 1.56
  autoz: regenerating connections with new bonds
  no constraints, skipping    0.0000000000000000     
  no constraints, skipping    0.0000000000000000     


                             Geometry "geometry" -> ""
                             -------------------------

 Output coordinates in a.u. (scale by  1.000000000 to convert to a.u.)

  No.       Tag          Charge          X              Y              Z
 ---- ---------------- ---------- -------------- -------------- --------------
    1 O                    8.0000    -0.17255800    -0.23009200     0.00000000
    2 H                    1.0000    -0.17255800     2.71942800     0.00000000
    3 H                    1.0000     1.55302200    -0.87869200     0.00000000

      Atomic Mass 
      ----------- 

      O                 15.994910
      H                  1.007825


 Effective nuclear repulsion energy (a.u.)       7.3025897844

            Nuclear Dipole moment (a.u.) 
            ----------------------------
        X                 Y               Z
 ---------------- ---------------- ----------------
    -0.0000000000     0.0000000000     0.0000000000



                                Z-matrix (autoz)
                                -------- 

 Units are Angstrom for bonds and degrees for angles

      Type          Name      I     J     K     L     M      Value
      ----------- --------  ----- ----- ----- ----- ----- ----------
    1 Stretch                  1     2                       1.56082
    2 Stretch                  1     3                       0.97551
    3 Bend                     2     1     3               110.59992


            XYZ format geometry
            -------------------
     3
 geometry
 O                    -0.09131377    -0.12175945     0.00000000
 H                    -0.09131377     1.43905943     0.00000000
 H                     0.82182391    -0.46498382     0.00000000

 ==============================================================================
                                internuclear distances
 ------------------------------------------------------------------------------
       center one      |      center two      | atomic units |       a.u.
 ------------------------------------------------------------------------------
    3 H                |   1 O                |     1.84345  |     1.84345
 ------------------------------------------------------------------------------
                         number of included internuclear distances:          1
 ==============================================================================





 Summary of "ao basis" -> "" (spherical)
 ------------------------------------------------------------------------------
       Tag                 Description            Shells   Functions and Types
 ---------------- ------------------------------  ------  ---------------------
 *                          cc-pVDZ                   on all atoms 


                      Basis "ao basis" -> "ao basis" (spherical)
                      -----
  O (Oxygen)
  ----------
            Exponent  Coefficients 
       -------------- ---------------------------------------------------------
  1 S  1.17200000E+04  0.000710
  1 S  1.75900000E+03  0.005470
  1 S  4.00800000E+02  0.027837
  1 S  1.13700000E+02  0.104800
  1 S  3.70300000E+01  0.283062
  1 S  1.32700000E+01  0.448719
  1 S  5.02500000E+00  0.270952
  1 S  1.01300000E+00  0.015458

  2 S  1.17200000E+04 -0.000160
  2 S  1.75900000E+03 -0.001263
  2 S  4.00800000E+02 -0.006267
  2 S  1.13700000E+02 -0.025716
  2 S  3.70300000E+01 -0.070924
  2 S  1.32700000E+01 -0.165411
  2 S  5.02500000E+00 -0.116955
  2 S  1.01300000E+00  0.557368

  3 S  3.02300000E-01  1.000000

  4 P  1.77000000E+01  0.043018
  4 P  3.85400000E+00  0.228913
  4 P  1.04600000E+00  0.508728

  5 P  2.75300000E-01  1.000000

  6 D  1.18500000E+00  1.000000

  H (Hydrogen)
  ------------
            Exponent  Coefficients 
       -------------- ---------------------------------------------------------
  1 S  1.30100000E+01  0.019685
  1 S  1.96200000E+00  0.137977
  1 S  4.44600000E-01  0.478148

  2 S  1.22000000E-01  1.000000

  3 P  7.27000000E-01  1.000000



 Summary of "ao basis" -> "ao basis" (spherical)
 ------------------------------------------------------------------------------
       Tag                 Description            Shells   Functions and Types
 ---------------- ------------------------------  ------  ---------------------
 O                          cc-pVDZ                  6       14   3s2p1d
 H                          cc-pVDZ                  3        5   2s1p



                            NWChem Direct MCSCF Module
                            --------------------------


                                        H2O


     -----------------------------------
       Basis functions:             24
       Inactive shells:              0
       Active shells:                8
       Active electrons:            10
       Symmetry:                    a       
       Multiplicity:                 1
       Orbital rotations:          128
     -----------------------------------

     -----------------------------------
       E2 extrapolation:             F
       Conjugacy:                    T
       Micro CI relax:               T
       Canonical orbitals:           T
       Maximum iterations:          40
       Converge threshold:    1.00E-04
       Conjugacy resets:            20
       Initial levelshift:        0.10
     -----------------------------------

 Loading old vectors from job with title :

H2O


   input molecular orbitals = ./h2o.mos
  output molecular orbtials = ./h2o.mos

       No. of determinants:          3136


  Starting Orbital Energies
   -20.584724    -1.285030    -0.650528    -0.515036    -0.506801    -0.064189
    -0.025973    -0.012649     0.484113     0.572024     1.045996     1.254402
     1.449554     1.508924     1.545941     1.637891     1.663543     2.096599
     2.340563     2.985815     3.190245     3.292733     3.363573     3.997976

  Orbital Symmetry Irreps
a    a    a    a    a    a    a    a    a    a    a    a    a    a    a   
a    a    a    a    a    a    a    a    a   

 #quartets = 3.081D+03 #integrals = 2.131D+04 #direct =  0.0% #cached =100.0%


 Integral file          = ./H2O.aoints.0
 Record size in doubles =  65536        No. of integs per rec  =  43688
 Max. records in memory =      4        Max. records in file   = 232576
 No. of bits per label  =      8        No. of bits per value  =     64




          %%%%% MacroIteration   1 %%%%%


          Number of sigma calls:       20
                       o<<<<< (aa):             0.00
                       o<<<<< (bb):             0.00
                       o<<<<< (ab):             0.06
                       o<<<<< (total)           0.07
                       o<<<<< (aa) ff           0.00
                       o<<<<< (aa) gop          0.00
                       o<<<<< (aa) dot          0.00
                       o<<<<< (ab) str          0.00
                       o<<<<< (ab) gath         0.00
                       o<<<<< (ab) dotab        0.00
                       o<<<<< (ab) scat         0.00
                       o<<<<< (ab) sync         0.00
                       o<<<<< Density           0.01
                       o<<<<< Density one       0.00
                       o<<<<< Density two       0.00
                       o<<<<< Density ab        0.01
                       o<<<<< Spin adapt        0.32
                       o<<<<< Symm adapt        0.00

                       o<<<<< (ab) max sync:      0.00

           >>>| Valence CI:            -83.312218611465
           >>>| MCSCF energy:          -76.009628827084
           >>>| Gradient norm:          0.379369926D-01

                              ----- Line search ------

        step       energy         lsg     num-lsg   num-lsh   lsrat    time
      ------- ---------------- --------- --------- --------- ------- --------
       0.0000     -76.00962883 -2.81D-04  0.00D+00  0.00D+00 0.0D+00      0.5

          Number of sigma calls:       20
                       o<<<<< (aa):             0.00
                       o<<<<< (bb):             0.00
                       o<<<<< (ab):             0.05
                       o<<<<< (total)           0.06
                       o<<<<< (aa) ff           0.00
                       o<<<<< (aa) gop          0.00
                       o<<<<< (aa) dot          0.00
                       o<<<<< (ab) str          0.00
                       o<<<<< (ab) gath         0.00
                       o<<<<< (ab) dotab        0.00
                       o<<<<< (ab) scat         0.00
                       o<<<<< (ab) sync         0.00
                       o<<<<< Density           0.01
                       o<<<<< Density one       0.00
                       o<<<<< Density two       0.00
                       o<<<<< Density ab        0.01
                       o<<<<< Spin adapt        0.35
                       o<<<<< Symm adapt        0.00

                       o<<<<< (ab) max sync:      0.00
       1.0000     -76.00978997 -4.05D-05 -4.07D-05  2.41D-04 1.4D-01      1.0

          Number of sigma calls:       18
                       o<<<<< (aa):             0.00
                       o<<<<< (bb):             0.00
                       o<<<<< (ab):             0.05
                       o<<<<< (total)           0.05
                       o<<<<< (aa) ff           0.00
                       o<<<<< (aa) gop          0.00
                       o<<<<< (aa) dot          0.00
                       o<<<<< (ab) str          0.00
                       o<<<<< (ab) gath         0.00
                       o<<<<< (ab) dotab        0.00
                       o<<<<< (ab) scat         0.00
                       o<<<<< (ab) sync         0.00
                       o<<<<< Density           0.01
                       o<<<<< Density one       0.00
                       o<<<<< Density two       0.00
                       o<<<<< Density ab        0.01
                       o<<<<< Spin adapt        0.27
                       o<<<<< Symm adapt        0.00

                       o<<<<< (ab) max sync:      0.00
       1.1682     -76.00979336  1.60D-07  1.56D-07  2.42D-04 5.7D-04      1.3
     --- Orbitals canonicalized ---



          %%%%% MacroIteration   2 %%%%%


          Number of sigma calls:       18
                       o<<<<< (aa):             0.00
                       o<<<<< (bb):             0.00
                       o<<<<< (ab):             0.05
                       o<<<<< (total)           0.06
                       o<<<<< (aa) ff           0.00
                       o<<<<< (aa) gop          0.00
                       o<<<<< (aa) dot          0.00
                       o<<<<< (ab) str          0.00
                       o<<<<< (ab) gath         0.00
                       o<<<<< (ab) dotab        0.00
                       o<<<<< (ab) scat         0.00
                       o<<<<< (ab) sync         0.00
                       o<<<<< Density           0.00
                       o<<<<< Density one       0.00
                       o<<<<< Density two       0.00
                       o<<<<< Density ab        0.00
                       o<<<<< Spin adapt        0.26
                       o<<<<< Symm adapt        0.00

                       o<<<<< (ab) max sync:      0.00

           >>>| Valence CI:            -83.312383149173
           >>>| MCSCF energy:          -76.009793364792
           >>>| Gradient norm:          0.669961676D-02
     --- Warning:    3 Hessian diagonals < 0.05 ---
     --- Conjugacy reset ---

                              ----- Line search ------

        step       energy         lsg     num-lsg   num-lsh   lsrat    time
      ------- ---------------- --------- --------- --------- ------- --------
       0.0000     -76.00979336 -1.21D-05  0.00D+00  0.00D+00 0.0D+00      1.7

          Number of sigma calls:       17
                       o<<<<< (aa):             0.00
                       o<<<<< (bb):             0.00
                       o<<<<< (ab):             0.05
                       o<<<<< (total)           0.05
                       o<<<<< (aa) ff           0.00
                       o<<<<< (aa) gop          0.00
                       o<<<<< (aa) dot          0.00
                       o<<<<< (ab) str          0.00
                       o<<<<< (ab) gath         0.00
                       o<<<<< (ab) dotab        0.00
                       o<<<<< (ab) scat         0.00
                       o<<<<< (ab) sync         0.00
                       o<<<<< Density           0.01
                       o<<<<< Density one       0.00
                       o<<<<< Density two       0.00
                       o<<<<< Density ab        0.01
                       o<<<<< Spin adapt        0.26
                       o<<<<< Symm adapt        0.00

                       o<<<<< (ab) max sync:      0.00
       1.0000     -76.00980098 -3.11D-06 -3.12D-06  8.99D-06 2.6D-01      2.1

          Number of sigma calls:       16
                       o<<<<< (aa):             0.00
                       o<<<<< (bb):             0.00
                       o<<<<< (ab):             0.04
                       o<<<<< (total)           0.05
                       o<<<<< (aa) ff           0.00
                       o<<<<< (aa) gop          0.00
                       o<<<<< (aa) dot          0.00
                       o<<<<< (ab) str          0.00
                       o<<<<< (ab) gath         0.00
                       o<<<<< (ab) dotab        0.00
                       o<<<<< (ab) scat         0.00
                       o<<<<< (ab) sync         0.00
                       o<<<<< Density           0.00
                       o<<<<< Density one       0.00
                       o<<<<< Density two       0.00
                       o<<<<< Density ab        0.00
                       o<<<<< Spin adapt        0.24
                       o<<<<< Symm adapt        0.00

                       o<<<<< (ab) max sync:      0.00
       1.3457     -76.00980151  2.11D-08  2.02D-08  9.05D-06 1.7D-03      2.4



          %%%%% MacroIteration   3 %%%%%


          Number of sigma calls:        1
                       o<<<<< (aa):             0.00
                       o<<<<< (bb):             0.00
                       o<<<<< (ab):             0.00
                       o<<<<< (total)           0.00
                       o<<<<< (aa) ff           0.00
                       o<<<<< (aa) gop          0.00
                       o<<<<< (aa) dot          0.00
                       o<<<<< (ab) str          0.00
                       o<<<<< (ab) gath         0.00
                       o<<<<< (ab) dotab        0.00
                       o<<<<< (ab) scat         0.00
                       o<<<<< (ab) sync         0.00
                       o<<<<< Density           0.01
                       o<<<<< Density one       0.00
                       o<<<<< Density two       0.00
                       o<<<<< Density ab        0.01
                       o<<<<< Spin adapt        0.00
                       o<<<<< Symm adapt        0.00

                       o<<<<< (ab) max sync:      0.00

           >>>| Valence CI:            -83.312391294135
           >>>| MCSCF energy:          -76.009801509754
           >>>| Gradient norm:          0.191028130D-02
     --- Warning:    3 Hessian diagonals < 0.05 ---

                              ----- Line search ------

        step       energy         lsg     num-lsg   num-lsh   lsrat    time
      ------- ---------------- --------- --------- --------- ------- --------
       0.0000     -76.00980151 -7.44D-07  0.00D+00  0.00D+00 0.0D+00      2.4

          Number of sigma calls:       15
                       o<<<<< (aa):             0.00
                       o<<<<< (bb):             0.00
                       o<<<<< (ab):             0.05
                       o<<<<< (total)           0.05
                       o<<<<< (aa) ff           0.00
                       o<<<<< (aa) gop          0.00
                       o<<<<< (aa) dot          0.00
                       o<<<<< (ab) str          0.00
                       o<<<<< (ab) gath         0.00
                       o<<<<< (ab) dotab        0.00
                       o<<<<< (ab) scat         0.00
                       o<<<<< (ab) sync         0.00
                       o<<<<< Density           0.01
                       o<<<<< Density one       0.00
                       o<<<<< Density two       0.00
                       o<<<<< Density ab        0.01
                       o<<<<< Spin adapt        0.28
                       o<<<<< Symm adapt        0.00

                       o<<<<< (ab) max sync:      0.00
       1.0000     -76.00980193 -1.05D-07 -1.05D-07  6.39D-07 1.4D-01      2.8

          Number of sigma calls:       12
                       o<<<<< (aa):             0.00
                       o<<<<< (bb):             0.00
                       o<<<<< (ab):             0.04
                       o<<<<< (total)           0.04
                       o<<<<< (aa) ff           0.00
                       o<<<<< (aa) gop          0.00
                       o<<<<< (aa) dot          0.00
                       o<<<<< (ab) str          0.00
                       o<<<<< (ab) gath         0.00
                       o<<<<< (ab) dotab        0.00
                       o<<<<< (ab) scat         0.00
                       o<<<<< (ab) sync         0.00
                       o<<<<< Density           0.01
                       o<<<<< Density one       0.00
                       o<<<<< Density two       0.00
                       o<<<<< Density ab        0.01
                       o<<<<< Spin adapt        0.21
                       o<<<<< Symm adapt        0.00

                       o<<<<< (ab) max sync:      0.00
       1.1638     -76.00980194  1.73D-11  1.68D-11  6.39D-07 2.3D-05      3.1



          %%%%% MacroIteration   4 %%%%%


          Number of sigma calls:        1
                       o<<<<< (aa):             0.00
                       o<<<<< (bb):             0.00
                       o<<<<< (ab):             0.00
                       o<<<<< (total)           0.00
                       o<<<<< (aa) ff           0.00
                       o<<<<< (aa) gop          0.00
                       o<<<<< (aa) dot          0.00
                       o<<<<< (ab) str          0.00
                       o<<<<< (ab) gath         0.00
                       o<<<<< (ab) dotab        0.00
                       o<<<<< (ab) scat         0.00
                       o<<<<< (ab) sync         0.00
                       o<<<<< Density           0.01
                       o<<<<< Density one       0.00
                       o<<<<< Density two       0.00
                       o<<<<< Density ab        0.01
                       o<<<<< Spin adapt        0.00
                       o<<<<< Symm adapt        0.00

                       o<<<<< (ab) max sync:      0.00

           >>>| Valence CI:            -83.312391727100
           >>>| MCSCF energy:          -76.009801942719
           >>>| Gradient norm:          0.347211242D-03
     --- Warning:    3 Hessian diagonals < 0.05 ---

                              ----- Line search ------

        step       energy         lsg     num-lsg   num-lsh   lsrat    time
      ------- ---------------- --------- --------- --------- ------- --------
       0.0000     -76.00980194 -3.47D-08  0.00D+00  0.00D+00 0.0D+00      3.1

          Number of sigma calls:       13
                       o<<<<< (aa):             0.00
                       o<<<<< (bb):             0.00
                       o<<<<< (ab):             0.05
                       o<<<<< (total)           0.05
                       o<<<<< (aa) ff           0.00
                       o<<<<< (aa) gop          0.00
                       o<<<<< (aa) dot          0.00
                       o<<<<< (ab) str          0.00
                       o<<<<< (ab) gath         0.00
                       o<<<<< (ab) dotab        0.00
                       o<<<<< (ab) scat         0.00
                       o<<<<< (ab) sync         0.00
                       o<<<<< Density           0.01
                       o<<<<< Density one       0.00
                       o<<<<< Density two       0.00
                       o<<<<< Density ab        0.01
                       o<<<<< Spin adapt        0.31
                       o<<<<< Symm adapt        0.00

                       o<<<<< (ab) max sync:      0.00
       1.0000     -76.00980196 -8.67D-09 -8.67D-09  2.61D-08 2.5D-01      3.5

          Number of sigma calls:       12
                       o<<<<< (aa):             0.00
                       o<<<<< (bb):             0.00
                       o<<<<< (ab):             0.03
                       o<<<<< (total)           0.04
                       o<<<<< (aa) ff           0.00
                       o<<<<< (aa) gop          0.00
                       o<<<<< (aa) dot          0.00
                       o<<<<< (ab) str          0.00
                       o<<<<< (ab) gath         0.00
                       o<<<<< (ab) dotab        0.00
                       o<<<<< (ab) scat         0.00
                       o<<<<< (ab) sync         0.00
                       o<<<<< Density           0.00
                       o<<<<< Density one       0.00
                       o<<<<< Density two       0.00
                       o<<<<< Density ab        0.00
                       o<<<<< Spin adapt        0.25
                       o<<<<< Symm adapt        0.00

                       o<<<<< (ab) max sync:      0.00
       1.3326     -76.00980197  2.10D-12  2.37D-12  2.61D-08 6.0D-05      3.8



          %%%%% MacroIteration   5 %%%%%


          Number of sigma calls:        1
                       o<<<<< (aa):             0.00
                       o<<<<< (bb):             0.00
                       o<<<<< (ab):             0.00
                       o<<<<< (total)           0.00
                       o<<<<< (aa) ff           0.00
                       o<<<<< (aa) gop          0.00
                       o<<<<< (aa) dot          0.00
                       o<<<<< (ab) str          0.00
                       o<<<<< (ab) gath         0.00
                       o<<<<< (ab) dotab        0.00
                       o<<<<< (ab) scat         0.00
                       o<<<<< (ab) sync         0.00
                       o<<<<< Density           0.01
                       o<<<<< Density one       0.00
                       o<<<<< Density two       0.00
                       o<<<<< Density ab        0.01
                       o<<<<< Spin adapt        0.00
                       o<<<<< Symm adapt        0.00

                       o<<<<< (ab) max sync:      0.00

           >>>| Valence CI:            -83.312391750245
           >>>| MCSCF energy:          -76.009801965864
           >>>| Gradient norm:          0.238684285D-04




     ==============================
            MCSCF Converged
     ==============================



          Canonical Eigenvalues

              1      
    1  -20.5885
    2   -1.2859
    3   -0.6503
    4   -0.5173
    5   -0.4985
    6   -0.0705
    7   -0.0260
    8   -0.0125
    9    0.4815
   10    0.5811
   11    1.0503
   12    1.2572
   13    1.4521
   14    1.4814
   15    1.5466
   16    1.6300
   17    1.6498
   18    2.1017
   19    2.3372
   20    2.9761
   21    3.1617
   22    3.2907
   23    3.3295
   24    3.9957


          Converged CI vector

   Index           Coefficient          Config. Occupation
         1         -0.94159909          1  2  3  4  5  1  2  3  4  5
         2         -0.08746078          1  2  3  4  5  1  2  3  4  6
        23          0.06604716          1  2  3  4  5  1  2  3  5  8
         9         -0.04070464          1  2  3  4  5  1  2  4  5  7
        41          0.02295587          1  2  3  4  5  1  2  5  7  8
        57         -0.08746078          1  2  3  4  6  1  2  3  4  5
        58          0.22738500          1  2  3  4  6  1  2  3  4  6
        79         -0.02569517          1  2  3  4  6  1  2  3  5  8
        60          0.06083563          1  2  3  4  6  1  2  4  5  6
        65          0.02132721          1  2  3  4  6  1  2  4  5  7
        61         -0.02011308          1  2  3  4  6  1  3  4  5  6
      1233          0.06604716          1  2  3  5  8  1  2  3  4  5
      1234         -0.02569517          1  2  3  5  8  1  2  3  4  6
      1255          0.04751111          1  2  3  5  8  1  2  3  5  8
      1241         -0.02930346          1  2  3  5  8  1  2  4  5  7
       170          0.06083563          1  2  4  5  6  1  2  3  4  6
       172          0.02718579          1  2  4  5  6  1  2  4  5  6
       449         -0.04070464          1  2  4  5  7  1  2  3  4  5
       450          0.02132721          1  2  4  5  7  1  2  3  4  6
       471         -0.02930346          1  2  4  5  7  1  2  3  5  8
       457          0.06665513          1  2  4  5  7  1  2  4  5  7
       458          0.02879170          1  2  4  5  7  1  3  4  5  7
       685         -0.02007030          1  2  4  6  7  1  2  4  6  7
      2241          0.02295587          1  2  5  7  8  1  2  3  4  5
       226         -0.02011308          1  3  4  5  6  1  2  3  4  6
       229          0.02004671          1  3  4  5  6  1  3  4  5  6
       513          0.02879170          1  3  4  5  7  1  2  4  5  7
       514          0.02743648          1  3  4  5  7  1  3  4  5  7

          Number of sigma calls:        1
                       o<<<<< (aa):             0.00
                       o<<<<< (bb):             0.00
                       o<<<<< (ab):             0.00
                       o<<<<< (total)           0.00
                       o<<<<< (aa) ff           0.00
                       o<<<<< (aa) gop          0.00
                       o<<<<< (aa) dot          0.00
                       o<<<<< (ab) str          0.00
                       o<<<<< (ab) gath         0.00
                       o<<<<< (ab) dotab        0.00
                       o<<<<< (ab) scat         0.00
                       o<<<<< (ab) sync         0.00
                       o<<<<< Density           0.00
                       o<<<<< Density one       0.00
                       o<<<<< Density two       0.00
                       o<<<<< Density ab        0.00
                       o<<<<< Spin adapt        0.00
                       o<<<<< Symm adapt        0.00

                       o<<<<< (ab) max sync:      0.00



          Natural orbital occupation numbers

              1      
    1    2.0000
    2    1.9979
    3    1.9834
    4    1.9739
    5    1.8591
    6    0.1429
    7    0.0269
    8    0.0158


          Number of sigma calls:       20
                       o<<<<< (aa):             0.00
                       o<<<<< (bb):             0.00
                       o<<<<< (ab):             0.06
                       o<<<<< (total)           0.06
                       o<<<<< (aa) ff           0.00
                       o<<<<< (aa) gop          0.00
                       o<<<<< (aa) dot          0.00
                       o<<<<< (ab) str          0.00
                       o<<<<< (ab) gath         0.00
                       o<<<<< (ab) dotab        0.00
                       o<<<<< (ab) scat         0.00
                       o<<<<< (ab) sync         0.00
                       o<<<<< Density           0.00
                       o<<<<< Density one       0.00
                       o<<<<< Density two       0.00
                       o<<<<< Density ab        0.00
                       o<<<<< Spin adapt        0.30
                       o<<<<< Symm adapt        0.00

                       o<<<<< (ab) max sync:      0.00


       Final MCSCF results 
       ------------------- 

       Total MCSCF energy =    -76.009801965864
            Gradient norm =      2.4D-05

    CPU time for solution =      4.2s
   Wall time for solution =      7.7s



                        Analysis of MCSCF natural orbitals
                        ----------------------------------

 Vector    1  Occ=1.999992D+00  E=-2.058850D+01  Symmetry=a
              MO Center= -9.1D-02, -1.2D-01,  7.0D-14, r^2= 1.5D-02
   Bfn.  Coefficient  Atom+Function         Bfn.  Coefficient  Atom+Function  
  ----- ------------  ---------------      ----- ------------  ---------------
     1      0.999990  1 O  s          

 Vector    2  Occ=1.997917D+00  E=-1.285851D+00  Symmetry=a
              MO Center= -2.9D-01, -1.4D-01, -2.1D-11, r^2= 4.2D-01
   Bfn.  Coefficient  Atom+Function         Bfn.  Coefficient  Atom+Function  
  ----- ------------  ---------------      ----- ------------  ---------------
     3      0.559612  1 O  s                  2      0.473987  1 O  s          
     4     -0.187251  1 O  px         

 Vector    3  Occ=1.983385D+00  E=-6.503161D-01  Symmetry=a
              MO Center= -7.1D-02, -1.2D-01,  2.1D-11, r^2= 5.9D-01
   Bfn.  Coefficient  Atom+Function         Bfn.  Coefficient  Atom+Function  
  ----- ------------  ---------------      ----- ------------  ---------------
     6      0.639522  1 O  pz                 9      0.497755  1 O  pz         

 Vector    4  Occ=1.973945D+00  E=-5.173310D-01  Symmetry=a
              MO Center=  3.5D-01, -2.6D-01,  4.3D-13, r^2= 5.8D-01
   Bfn.  Coefficient  Atom+Function         Bfn.  Coefficient  Atom+Function  
  ----- ------------  ---------------      ----- ------------  ---------------
     4      0.492001  1 O  px                20      0.432565  3 H  s          
     7      0.255084  1 O  px         

 Vector    5  Occ=1.859075D+00  E=-4.985022D-01  Symmetry=a
              MO Center= -5.9D-02,  5.6D-01,  4.7D-13, r^2= 1.1D+00
   Bfn.  Coefficient  Atom+Function         Bfn.  Coefficient  Atom+Function  
  ----- ------------  ---------------      ----- ------------  ---------------
     5      0.449613  1 O  py                15      0.352404  2 H  s          
     8      0.308654  1 O  py                16      0.265769  2 H  s          

 Vector    6  Occ=1.429274D-01  E=-7.047435D-02  Symmetry=a
              MO Center= -7.3D-02,  8.0D-01, -3.2D-13, r^2= 1.2D+00
   Bfn.  Coefficient  Atom+Function         Bfn.  Coefficient  Atom+Function  
  ----- ------------  ---------------      ----- ------------  ---------------
     5      0.615302  1 O  py                15     -0.572042  2 H  s          
    16     -0.341564  2 H  s                  8      0.202770  1 O  py         

 Vector    7  Occ=2.694088D-02  E=-2.598885D-02  Symmetry=a
              MO Center=  5.2D-01, -3.2D-01, -6.9D-13, r^2= 6.2D-01
   Bfn.  Coefficient  Atom+Function         Bfn.  Coefficient  Atom+Function  
  ----- ------------  ---------------      ----- ------------  ---------------
     4      0.812751  1 O  px                20     -0.761413  3 H  s          
     2      0.329031  1 O  s                  5     -0.223298  1 O  py         
    21     -0.203987  3 H  s                  3      0.189567  1 O  s          

 Vector    8  Occ=1.581660D-02  E=-1.250840D-02  Symmetry=a
              MO Center= -3.7D-02, -1.3D-01,  2.2D-11, r^2= 1.1D+00
   Bfn.  Coefficient  Atom+Function         Bfn.  Coefficient  Atom+Function  
  ----- ------------  ---------------      ----- ------------  ---------------
     9     -0.975578  1 O  pz                 6      0.955641  1 O  pz         

 Vector    9  Occ=0.000000D+00  E= 4.814859D-01  Symmetry=a
              MO Center=  1.1D+00, -6.4D-01, -6.4D-12, r^2= 2.6D+00
   Bfn.  Coefficient  Atom+Function         Bfn.  Coefficient  Atom+Function  
  ----- ------------  ---------------      ----- ------------  ---------------
    21      1.720665  3 H  s                  3     -0.830703  1 O  s          
    20     -0.627438  3 H  s                  7     -0.457557  1 O  px         
    22     -0.204291  3 H  px                 4      0.189089  1 O  px         

 Vector   10  Occ=0.000000D+00  E= 5.810510D-01  Symmetry=a
              MO Center= -1.2D-01,  1.7D+00,  2.3D-12, r^2= 2.3D+00
   Bfn.  Coefficient  Atom+Function         Bfn.  Coefficient  Atom+Function  
  ----- ------------  ---------------      ----- ------------  ---------------
    16      1.557846  2 H  s                 15     -1.102305  2 H  s          
    21     -0.440771  3 H  s                  8     -0.354131  1 O  py         
     3     -0.234329  1 O  s          

 Vector   11  Occ=0.000000D+00  E= 1.050321D+00  Symmetry=a
              MO Center= -2.6D-01,  1.8D-01, -1.4D-12, r^2= 1.5D+00
   Bfn.  Coefficient  Atom+Function         Bfn.  Coefficient  Atom+Function  
  ----- ------------  ---------------      ----- ------------  ---------------
     7      1.367546  1 O  px                20     -1.090842  3 H  s          
     3      0.549973  1 O  s                  4     -0.478958  1 O  px         
    17      0.293719  2 H  px                 8     -0.239903  1 O  py         
    21     -0.179071  3 H  s                 22      0.157774  3 H  px         

 Vector   12  Occ=0.000000D+00  E= 1.257172D+00  Symmetry=a
              MO Center=  8.0D-03, -1.5D-01, -4.3D-13, r^2= 1.5D+00
   Bfn.  Coefficient  Atom+Function         Bfn.  Coefficient  Atom+Function  
  ----- ------------  ---------------      ----- ------------  ---------------
     8      1.172589  1 O  py                 5     -0.809211  1 O  py         
    15     -0.412233  2 H  s                  3     -0.347346  1 O  s          
    20      0.307658  3 H  s                 21      0.292665  3 H  s          
     7     -0.245620  1 O  px                23      0.241658  3 H  py         
    16     -0.161765  2 H  s          

 Vector   13  Occ=0.000000D+00  E= 1.452103D+00  Symmetry=a
              MO Center=  2.3D-01,  6.9D-01,  1.2D-13, r^2= 1.5D+00
   Bfn.  Coefficient  Atom+Function         Bfn.  Coefficient  Atom+Function  
  ----- ------------  ---------------      ----- ------------  ---------------
    19      0.754864  2 H  pz                24     -0.629948  3 H  pz         
     9      0.168916  1 O  pz         

 Vector   14  Occ=0.000000D+00  E= 1.481445D+00  Symmetry=a
              MO Center=  1.7D-01,  6.1D-01, -3.9D-12, r^2= 1.6D+00
   Bfn.  Coefficient  Atom+Function         Bfn.  Coefficient  Atom+Function  
  ----- ------------  ---------------      ----- ------------  ---------------
     3      0.874997  1 O  s                  2     -0.699044  1 O  s          
    18     -0.668982  2 H  py                23     -0.504506  3 H  py         
    21     -0.380137  3 H  s                  7      0.293575  1 O  px         
     1     -0.282902  1 O  s                 15     -0.263691  2 H  s          
    16      0.251907  2 H  s                 20     -0.192082  3 H  s          

 Vector   15  Occ=0.000000D+00  E= 1.546592D+00  Symmetry=a
              MO Center= -7.1D-02,  4.3D-01, -1.8D-12, r^2= 1.8D+00
   Bfn.  Coefficient  Atom+Function         Bfn.  Coefficient  Atom+Function  
  ----- ------------  ---------------      ----- ------------  ---------------
     3      0.826786  1 O  s                  2     -0.722512  1 O  s          
    17      0.709165  2 H  px                23      0.447265  3 H  py         
     7     -0.397203  1 O  px                 1     -0.295443  1 O  s          
     8     -0.286627  1 O  py                21     -0.282598  3 H  s          
     4      0.236270  1 O  px                22      0.229112  3 H  px         

 Vector   16  Occ=0.000000D+00  E= 1.629995D+00  Symmetry=a
              MO Center=  2.9D-01,  3.1D-01,  4.9D-12, r^2= 1.7D+00
   Bfn.  Coefficient  Atom+Function         Bfn.  Coefficient  Atom+Function  
  ----- ------------  ---------------      ----- ------------  ---------------
    24      0.792937  3 H  pz                19      0.662886  2 H  pz         
     9     -0.542448  1 O  pz         

 Vector   17  Occ=0.000000D+00  E= 1.649817D+00  Symmetry=a
              MO Center=  2.3D-01,  3.2D-01, -8.3D-12, r^2= 1.7D+00
   Bfn.  Coefficient  Atom+Function         Bfn.  Coefficient  Atom+Function  
  ----- ------------  ---------------      ----- ------------  ---------------
     3      1.247286  1 O  s                  2     -0.749617  1 O  s          
    17     -0.656824  2 H  px                20     -0.614135  3 H  s          
     7      0.608593  1 O  px                 8     -0.596849  1 O  py         
    23      0.496723  3 H  py                21     -0.363541  3 H  s          
    22      0.353968  3 H  px                 1     -0.332154  1 O  s          

 Vector   18  Occ=0.000000D+00  E= 2.101679D+00  Symmetry=a
              MO Center=  5.2D-02,  4.6D-01, -5.2D-12, r^2= 1.5D+00
   Bfn.  Coefficient  Atom+Function         Bfn.  Coefficient  Atom+Function  
  ----- ------------  ---------------      ----- ------------  ---------------
     3      1.619915  1 O  s                  2     -1.177014  1 O  s          
    18      0.831579  2 H  py                 8      0.761778  1 O  py         
     1     -0.532355  1 O  s                 16     -0.415286  2 H  s          
    23     -0.389865  3 H  py                20     -0.320885  3 H  s          
     7      0.295571  1 O  px                22     -0.254519  3 H  px         


 Wrote Lagrangian and 1- and 2-particle density matrices to ./H2O.mcpdm


     Multipole analysis of the density
     ---------------------------------

     L   x y z        total        nuclear
     -   - - -        -----        -------
     0   0 0 0     -0.000000     10.000000

     1   1 0 0      0.586364     -0.000000
     1   0 1 0      0.270008      0.000000
     1   0 0 1     -0.000000      0.000000

     2   2 0 0     -4.348533      2.679864
     2   1 1 0     -0.726903     -1.516253
     2   1 0 1      0.000000      0.000000
     2   0 2 0     -3.153785      8.590927
     2   0 1 1     -0.000000      0.000000
     2   0 0 2     -5.662232      0.000000


  Mulliken analysis of the total density
  --------------------------------------

    Atom       Charge   Shell Charges
 -----------   ------   -------------------------------------------------------
    1 O    8     8.32   2.00  0.87  0.95  2.67  1.81  0.01
    2 H    1     0.85   0.50  0.34  0.01
    3 H    1     0.83   0.69  0.07  0.07

    Mulliken analysis of the active space density
    ---------------------------------------------

    Atom       Charge   Shell Charges
 -----------   ------   -------------------------------------------------------
    1 O    8     8.32   2.00  0.87  0.95  2.67  1.81  0.01
    2 H    1     0.85   0.50  0.34  0.01
    3 H    1     0.83   0.69  0.07  0.07

 Parallel integral file used       1 records with       0 large values


 Task  times  cpu:        4.2s     wall:        7.7s


                                NWChem Input Module
                                -------------------


                                 NWChem SCF Module
                                 -----------------


                                        H2O



  ao basis        = "ao basis"
  functions       =    24
  atoms           =     3
  closed shells   =     5
  open shells     =     0
  charge          =   0.00
  wavefunction    = RHF 
  input vectors   = ./h2o.mos
  output vectors  = ./h2o-trash.mos
  use symmetry    = F
  symmetry adapt  = F


 Summary of "ao basis" -> "ao basis" (spherical)
 ------------------------------------------------------------------------------
       Tag                 Description            Shells   Functions and Types
 ---------------- ------------------------------  ------  ---------------------
 O                          cc-pVDZ                  6       14   3s2p1d
 H                          cc-pVDZ                  3        5   2s1p



 Forming initial guess at       7.7s


 Loading old vectors from job with title :

H2O


 Starting SCF solution at       7.7s



 ----------------------------------------------
         Quadratically convergent ROHF

 Convergence threshold     :          1.000E-04
 Maximum no. of iterations :           30
 Final Fock-matrix accuracy:          1.000E-07
 ----------------------------------------------


 #quartets = 3.081D+03 #integrals = 2.131D+04 #direct =  0.0% #cached =100.0%


 Integral file          = ./H2O.aoints.0
 Record size in doubles =  65536        No. of integs per rec  =  43688
 Max. records in memory =      4        Max. records in file   = 232578
 No. of bits per label  =      8        No. of bits per value  =     64



       Final RHF  results 
       ------------------ 

         Total SCF energy =    -75.881454832030
      One-electron energy =   -119.398960699331
      Two-electron energy =     36.214916082921
 Nuclear repulsion energy =      7.302589784381

        Time for solution =      0.0s


             Final eigenvalues
             -----------------

              1      
    1  -20.5885
    2   -1.2859
    3   -0.6503
    4   -0.5173
    5   -0.4985
    6   -0.0705
    7   -0.0260
    8   -0.0125
    9    0.4815
   10    0.5811
   11    1.0503
   12    1.2572
   13    1.4521
   14    1.4814
   15    1.5466

                       ROHF Final Molecular Orbital Analysis
                       -------------------------------------

 Vector    2  Occ=2.000000D+00  E=-1.285851D+00
              MO Center= -2.9D-01, -1.4D-01, -2.1D-11, r^2= 4.2D-01
   Bfn.  Coefficient  Atom+Function         Bfn.  Coefficient  Atom+Function  
  ----- ------------  ---------------      ----- ------------  ---------------
     3      0.559612  1 O  s                  2      0.473987  1 O  s          
     4     -0.187251  1 O  px         

 Vector    3  Occ=2.000000D+00  E=-6.503161D-01
              MO Center= -7.1D-02, -1.2D-01,  2.1D-11, r^2= 5.9D-01
   Bfn.  Coefficient  Atom+Function         Bfn.  Coefficient  Atom+Function  
  ----- ------------  ---------------      ----- ------------  ---------------
     6      0.639522  1 O  pz                 9      0.497755  1 O  pz         

 Vector    4  Occ=2.000000D+00  E=-5.173310D-01
              MO Center=  3.5D-01, -2.6D-01,  4.3D-13, r^2= 5.8D-01
   Bfn.  Coefficient  Atom+Function         Bfn.  Coefficient  Atom+Function  
  ----- ------------  ---------------      ----- ------------  ---------------
     4      0.492001  1 O  px                20      0.432565  3 H  s          
     7      0.255084  1 O  px         

 Vector    5  Occ=2.000000D+00  E=-4.985022D-01
              MO Center= -5.9D-02,  5.6D-01,  4.7D-13, r^2= 1.1D+00
   Bfn.  Coefficient  Atom+Function         Bfn.  Coefficient  Atom+Function  
  ----- ------------  ---------------      ----- ------------  ---------------
     5      0.449613  1 O  py                15      0.352404  2 H  s          
     8      0.308654  1 O  py                16      0.265769  2 H  s          

 Vector    6  Occ=0.000000D+00  E=-7.047435D-02
              MO Center= -7.3D-02,  8.0D-01, -3.2D-13, r^2= 1.2D+00
   Bfn.  Coefficient  Atom+Function         Bfn.  Coefficient  Atom+Function  
  ----- ------------  ---------------      ----- ------------  ---------------
     5      0.615302  1 O  py                15     -0.572042  2 H  s          
    16     -0.341564  2 H  s                  8      0.202770  1 O  py         

 Vector    7  Occ=0.000000D+00  E=-2.598885D-02
              MO Center=  5.2D-01, -3.2D-01, -6.9D-13, r^2= 6.2D-01
   Bfn.  Coefficient  Atom+Function         Bfn.  Coefficient  Atom+Function  
  ----- ------------  ---------------      ----- ------------  ---------------
     4      0.812751  1 O  px                20     -0.761413  3 H  s          
     2      0.329031  1 O  s                  5     -0.223298  1 O  py         
    21     -0.203987  3 H  s                  3      0.189567  1 O  s          

 Vector    8  Occ=0.000000D+00  E=-1.250840D-02
              MO Center= -3.7D-02, -1.3D-01,  2.2D-11, r^2= 1.1D+00
   Bfn.  Coefficient  Atom+Function         Bfn.  Coefficient  Atom+Function  
  ----- ------------  ---------------      ----- ------------  ---------------
     9     -0.975578  1 O  pz                 6      0.955641  1 O  pz         

 Vector    9  Occ=0.000000D+00  E= 4.814859D-01
              MO Center=  1.1D+00, -6.4D-01, -6.4D-12, r^2= 2.6D+00
   Bfn.  Coefficient  Atom+Function         Bfn.  Coefficient  Atom+Function  
  ----- ------------  ---------------      ----- ------------  ---------------
    21      1.720665  3 H  s                  3     -0.830703  1 O  s          
    20     -0.627438  3 H  s                  7     -0.457557  1 O  px         
    22     -0.204291  3 H  px                 4      0.189089  1 O  px         

 Vector   10  Occ=0.000000D+00  E= 5.810510D-01
              MO Center= -1.2D-01,  1.7D+00,  2.3D-12, r^2= 2.3D+00
   Bfn.  Coefficient  Atom+Function         Bfn.  Coefficient  Atom+Function  
  ----- ------------  ---------------      ----- ------------  ---------------
    16      1.557846  2 H  s                 15     -1.102305  2 H  s          
    21     -0.440771  3 H  s                  8     -0.354131  1 O  py         
     3     -0.234329  1 O  s          

 Vector   11  Occ=0.000000D+00  E= 1.050321D+00
              MO Center= -2.6D-01,  1.8D-01, -1.4D-12, r^2= 1.5D+00
   Bfn.  Coefficient  Atom+Function         Bfn.  Coefficient  Atom+Function  
  ----- ------------  ---------------      ----- ------------  ---------------
     7      1.367546  1 O  px                20     -1.090842  3 H  s          
     3      0.549973  1 O  s                  4     -0.478958  1 O  px         
    17      0.293719  2 H  px                 8     -0.239903  1 O  py         
    21     -0.179071  3 H  s                 22      0.157774  3 H  px         

 Vector   12  Occ=0.000000D+00  E= 1.257172D+00
              MO Center=  8.0D-03, -1.5D-01, -4.3D-13, r^2= 1.5D+00
   Bfn.  Coefficient  Atom+Function         Bfn.  Coefficient  Atom+Function  
  ----- ------------  ---------------      ----- ------------  ---------------
     8      1.172589  1 O  py                 5     -0.809211  1 O  py         
    15     -0.412233  2 H  s                  3     -0.347346  1 O  s          
    20      0.307658  3 H  s                 21      0.292665  3 H  s          
     7     -0.245620  1 O  px                23      0.241658  3 H  py         
    16     -0.161765  2 H  s          

 Vector   13  Occ=0.000000D+00  E= 1.452103D+00
              MO Center=  2.3D-01,  6.9D-01,  1.2D-13, r^2= 1.5D+00
   Bfn.  Coefficient  Atom+Function         Bfn.  Coefficient  Atom+Function  
  ----- ------------  ---------------      ----- ------------  ---------------
    19      0.754864  2 H  pz                24     -0.629948  3 H  pz         
     9      0.168916  1 O  pz         

 Vector   14  Occ=0.000000D+00  E= 1.481445D+00
              MO Center=  1.7D-01,  6.1D-01, -3.9D-12, r^2= 1.6D+00
   Bfn.  Coefficient  Atom+Function         Bfn.  Coefficient  Atom+Function  
  ----- ------------  ---------------      ----- ------------  ---------------
     3      0.874997  1 O  s                  2     -0.699044  1 O  s          
    18     -0.668982  2 H  py                23     -0.504506  3 H  py         
    21     -0.380137  3 H  s                  7      0.293575  1 O  px         
     1     -0.282902  1 O  s                 15     -0.263691  2 H  s          
    16      0.251907  2 H  s                 20     -0.192082  3 H  s          

 Vector   15  Occ=0.000000D+00  E= 1.546592D+00
              MO Center= -7.1D-02,  4.3D-01, -1.8D-12, r^2= 1.8D+00
   Bfn.  Coefficient  Atom+Function         Bfn.  Coefficient  Atom+Function  
  ----- ------------  ---------------      ----- ------------  ---------------
     3      0.826786  1 O  s                  2     -0.722512  1 O  s          
    17      0.709165  2 H  px                23      0.447265  3 H  py         
     7     -0.397203  1 O  px                 1     -0.295443  1 O  s          
     8     -0.286627  1 O  py                21     -0.282598  3 H  s          
     4      0.236270  1 O  px                22      0.229112  3 H  px         


 center of mass
 --------------
 x =  -0.07599894 y =  -0.10133839 z =   0.00000000

 moments of inertia (a.u.)
 ------------------
           8.893146993912           1.351882194370           0.000000000000
           1.351882194370           2.833002082974           0.000000000000
           0.000000000000           0.000000000000          11.726149076886

  Mulliken analysis of the total density
  --------------------------------------

    Atom       Charge   Shell Charges
 -----------   ------   -------------------------------------------------------
    1 O    8     8.34   2.00  0.87  0.95  2.66  1.85  0.01
    2 H    1     0.83   0.48  0.34  0.01
    3 H    1     0.83   0.68  0.07  0.07

       Multipole analysis of the density wrt the origin
       ------------------------------------------------

     L   x y z        total         open         nuclear
     -   - - -        -----         ----         -------
     0   0 0 0     -0.000000      0.000000     10.000000

     1   1 0 0      0.594168      0.000000     -0.000000
     1   0 1 0      0.333500      0.000000      0.000000
     1   0 0 1     -0.000000      0.000000      0.000000

     2   2 0 0     -4.340414      0.000000      2.679864
     2   1 1 0     -0.764704      0.000000     -1.516253
     2   1 0 1      0.000000      0.000000      0.000000
     2   0 2 0     -2.930797      0.000000      8.590927
     2   0 1 1     -0.000000      0.000000      0.000000
     2   0 0 2     -5.661373      0.000000      0.000000


 Parallel integral file used       1 records with       0 large values

 ------------------------------------
     Number of active orbitals      8
     Number of active alpha electrons      5
     Number of active beta electrons       5
 ------------------------------------
                   NWChem Extensible Many-Electron Theory Module
                   ---------------------------------------------

              ======================================================
                   This portion of the program was automatically
                  generated by a Tensor Contraction Engine (TCE).
                  The development of this portion of the program
                 and TCE was supported by US Department of Energy,
                Office of Science, Office of Basic Energy Science.
                      TCE is a product of Battelle and PNNL.
              Please cite: S.Hirata, J.Phys.Chem.A 107, 9887 (2003).
              ======================================================

                                        H2O


            General Information
            -------------------
      Number of processors :     1
         Wavefunction type : Restricted Hartree-Fock
          No. of electrons :    10
           Alpha electrons :     5
            Beta electrons :     5
           No. of orbitals :    48
            Alpha orbitals :    24
             Beta orbitals :    24
        Alpha frozen cores :     0
         Beta frozen cores :     0
     Alpha frozen virtuals :    16
      Beta frozen virtuals :    16
         Spin multiplicity : singlet 
    Number of AO functions :    24
       Number of AO shells :    12
        Use of symmetry is : off
      Symmetry adaption is : off
         Schwarz screening : 0.10D-09

          Correlation Information
          -----------------------
          Calculation type : Coupled-cluster singles & doubles                           
   Perturbative correction : none                                                        
            Max iterations :      300
        Residual threshold : 0.10D-06
     T(0) DIIS level shift : 0.00D+00
     L(0) DIIS level shift : 0.00D+00
     T(1) DIIS level shift : 0.00D+00
     L(1) DIIS level shift : 0.00D+00
     T(R) DIIS level shift : 0.00D+00
     T(I) DIIS level shift : 0.00D+00
   CC-T/L Amplitude update :  5-th order DIIS
                I/O scheme : Global Array Library
        L-threshold :  0.10D-06
        EOM-threshold :  0.10D-06
 no EOMCCSD initial starts read in
 TCE RESTART OPTIONS
 READ_INT:   F
 WRITE_INT:  F
 READ_TA:    F
 WRITE_TA:   F
 READ_XA:    F
 WRITE_XA:   F
 READ_IN3:   F
 WRITE_IN3:  F
 SLICE:      F
 D4D5:       F
 quantumc:   T
 qrotation:  F
 pwtce:      F
 qducc:      F
 nacto:                         0
 nrotv:                         0
 nrot:                          0

            Memory Information
            ------------------
          Available GA space size is    1610612160 doubles
          Available MA space size is    1610610956 doubles

 Maximum block size supplied by input
 Maximum block size         1 doubles

 tile_dim =      1

 Block   Spin    Irrep     Size     Offset   Alpha
 -------------------------------------------------
   1    alpha     a      1 doubles       0       1
   2    alpha     a      1 doubles       1       2
   3    alpha     a      1 doubles       2       3
   4    alpha     a      1 doubles       3       4
   5    alpha     a      1 doubles       4       5
   6    beta      a      1 doubles       5       1
   7    beta      a      1 doubles       6       2
   8    beta      a      1 doubles       7       3
   9    beta      a      1 doubles       8       4
  10    beta      a      1 doubles       9       5
  11    alpha     a      1 doubles      10      11
  12    alpha     a      1 doubles      11      12
  13    alpha     a      1 doubles      12      13
  14    beta      a      1 doubles      13      11
  15    beta      a      1 doubles      14      12
  16    beta      a      1 doubles      15      13

 Global array virtual files algorithm will be used

 Parallel file system coherency ......... OK

 #quartets = 3.081D+03 #integrals = 2.131D+04 #direct =  0.0% #cached =100.0%


 Integral file          = ./H2O.aoints.0
 Record size in doubles =  65536        No. of integs per rec  =  43688
 Max. records in memory =      4        Max. records in file   = 232578
 No. of bits per label  =      8        No. of bits per value  =     64


 Fock matrix recomputed
 1-e file size   =               64
 1-e file name   = ./H2O.f1
 Cpu & wall time / sec            0.0            0.0
 4-electron integrals stored in orbital form

 v2    file size   =              666
 4-index algorithm nr.  13 is used
 imaxsize =       30
 imaxsize ichop =        0
 begin_one_electron_integrals
    1    1       -32.8063099314
    2    1        -0.5660535341
    4    1         0.1247711729
    5    1         0.0000255324
    6    1         0.1239498683
    7    1         0.2002955507
    1    2        -0.5660535341
    2    2        -7.7114184093
    4    2        -0.2641428719
    5    2         0.0552455289
    6    2        -0.2841170241
    7    2        -0.1197636230
    3    3        -6.9577694785
    8    3        -2.0671877612
    1    4         0.1247711729
    2    4        -0.2641428719
    4    4        -6.6753271360
    5    4        -0.0842544767
    6    4        -0.0179070054
    7    4        -1.9548449369
    1    5         0.0000255324
    2    5         0.0552455289
    4    5        -0.0842544767
    5    5        -5.5486553944
    6    5        -2.0859198515
    7    5         0.0397401445
    1    6         0.1239498683
    2    6        -0.2841170241
    4    6        -0.0179070054
    5    6        -2.0859198515
    6    6        -5.3967525274
    7    6         0.0449279266
    1    7         0.2002955507
    2    7        -0.1197636230
    4    7        -1.9548449369
    5    7         0.0397401445
    6    7         0.0449279266
    7    7        -5.9274296344
    3    8        -2.0671877612
    8    8        -5.1681953165
 end_one_electron_integrals
 begin_two_electron_integrals
    1    1    1    1        4.8099132032
    2    1    1    1       -0.2870991033
    2    1    2    1        0.0385782358
    3    1    3    1        0.0280676012
    4    1    1    1       -0.0913767023
    4    1    2    1        0.0039788046
    4    1    4    1        0.0208503082
    4    1    2    2       -0.0148148263
    4    1    3    3       -0.0022338254
    5    1    1    1       -0.0033170699
    5    1    2    1       -0.0015658914
    5    1    4    1        0.0010878686
    5    1    5    1        0.0149856277
    5    1    2    2       -0.0035718852
    5    1    4    2        0.0004473839
    5    1    3    3        0.0006866220
    5    1    4    4        0.0007505304
    6    1    1    1       -0.0893483538
    6    1    2    1        0.0072685350
    6    1    4    1        0.0023203714
    6    1    5    1        0.0191962007
    6    1    6    1        0.0269901511
    6    1    2    2       -0.0085291274
    6    1    4    2       -0.0009462941
    6    1    5    2        0.0194806919
    6    1    3    3       -0.0034602505
    6    1    4    4       -0.0034960710
    6    1    5    4        0.0036490854
    6    1    5    5        0.0019743488
    7    1    1    1       -0.1610817785
    7    1    2    1        0.0091218016
    7    1    4    1        0.0313826212
    7    1    5    1        0.0000249560
    7    1    6    1        0.0021509020
    7    1    7    1        0.0477508346
    7    1    2    2       -0.0224202578
    7    1    4    2        0.0251090112
    7    1    5    2       -0.0004065970
    7    1    6    2       -0.0044902009
    7    1    3    3       -0.0036096419
    7    1    4    4        0.0148206703
    7    1    5    4        0.0000167620
    7    1    6    4        0.0031473546
    7    1    5    5       -0.0028564861
    7    1    6    5       -0.0018762195
    7    1    6    6       -0.0045768842
    8    1    3    1        0.0356430867
    8    1    8    1        0.0454777191
    8    1    3    2        0.0356015863
    8    1    4    3        0.0071785971
    8    1    5    3        0.0009063601
    8    1    6    3        0.0056918080
    8    1    7    3        0.0094438867
    2    2    1    1        1.0888432787
    2    2    2    1        0.0038986315
    2    2    2    2        0.8337700639
    3    2    3    1        0.0267284284
    3    2    3    2        0.1432922956
    4    2    1    1       -0.0033147005
    4    2    2    1       -0.0047896125
    4    2    4    1        0.0166623171
    4    2    2    2       -0.0569642381
    4    2    4    2        0.0880140615
    4    2    3    3        0.0094757170
    5    2    1    1       -0.0363603870
    5    2    2    1       -0.0016703216
    5    2    4    1        0.0008674938
    5    2    5    1        0.0143649492
    5    2    2    2       -0.0390326374
    5    2    4    2       -0.0011561495
    5    2    5    2        0.0887019720
    5    2    3    3       -0.0147290932
    5    2    4    4       -0.0177542297
    6    2    1    1        0.0605995910
    6    2    2    1       -0.0016169580
    6    2    4    1       -0.0018098553
    6    2    5    1        0.0151861214
    6    2    6    1        0.0193697111
    6    2    2    2        0.0177137827
    6    2    4    2       -0.0092067456
    6    2    5    2        0.0715085472
    6    2    6    2        0.0708203521
    6    2    3    3        0.0313776721
    6    2    4    4        0.0167662727
    6    2    5    4        0.0118366295
    6    2    5    5        0.0289464709
    7    2    1    1        0.0264340996
    7    2    2    1       -0.0053173766
    7    2    4    1        0.0159973818
    7    2    5    1       -0.0010384691
    7    2    6    1       -0.0030885358
    7    2    7    1        0.0232358472
    7    2    2    2       -0.0272185196
    7    2    4    2        0.0591109592
    7    2    5    2       -0.0077391018
    7    2    6    2       -0.0127490561
    7    2    7    2        0.0521346030
    7    2    3    3        0.0182636555
    7    2    4    4        0.0379760258
    7    2    5    4       -0.0000493549
    7    2    6    4        0.0063665947
    7    2    5    5        0.0075020491
    7    2    6    5        0.0124350071
    7    2    6    6        0.0080545693
    8    2    3    1        0.0201429284
    8    2    8    1        0.0242073801
    8    2    3    2        0.0513530124
    8    2    8    2        0.0444678624
    8    2    4    3        0.0057356692
    8    2    5    3       -0.0001604885
    8    2    6    3        0.0094434323
    8    2    7    3        0.0121945972
    3    3    1    1        1.0476042550
    3    3    2    1        0.0018483119
    3    3    2    2        0.7441178751
    3    3    3    3        0.7674190495
    4    3    3    1        0.0056589594
    4    3    3    2        0.0230050694
    4    3    4    3        0.0365558689
    5    3    3    1        0.0006447917
    5    3    3    2        0.0027830785
    5    3    4    3        0.0019629206
    5    3    5    3        0.0233601386
    6    3    3    1        0.0045586050
    6    3    3    2        0.0164249400
    6    3    4    3        0.0029315529
    6    3    5    3        0.0198861993
    6    3    6    3        0.0222063573
    7    3    3    1        0.0078597859
    7    3    3    2        0.0212191665
    7    3    4    3        0.0213207521
    7    3    5    3       -0.0002024334
    7    3    6    3        0.0025151176
    7    3    7    3        0.0254031624
    8    3    1    1        0.5106985984
    8    3    2    1       -0.0005705264
    8    3    4    1       -0.0034020647
    8    3    5    1        0.0004735802
    8    3    6    1       -0.0030851751
    8    3    7    1       -0.0057693401
    8    3    2    2        0.2095241955
    8    3    4    2       -0.0031974891
    8    3    5    2       -0.0077319053
    8    3    6    2        0.0187503507
    8    3    7    2        0.0088961854
    8    3    3    3        0.2082928146
    8    3    8    3        0.1587347893
    8    3    4    4        0.1414859939
    8    3    5    4        0.0051174400
    8    3    6    4        0.0021926581
    8    3    7    4        0.1191918204
    8    3    5    5        0.1107144445
    8    3    6    5        0.1022443358
    8    3    7    5       -0.0017025211
    8    3    6    6        0.1313553229
    8    3    7    6       -0.0035261102
    8    3    7    7        0.1642857626
    4    4    1    1        0.8984479144
    4    4    2    1       -0.0009213119
    4    4    4    1        0.0095023946
    4    4    2    2        0.6318203413
    4    4    4    2        0.0793298501
    4    4    3    3        0.6356143194
    4    4    4    4        0.7683912402
    5    4    1    1        0.0194490849
    5    4    2    1       -0.0003450051
    5    4    4    1        0.0003105939
    5    4    5    1        0.0029841552
    5    4    2    2        0.0056454225
    5    4    4    2       -0.0017827551
    5    4    5    2        0.0105507275
    5    4    3    3        0.0093056620
    5    4    4    4        0.0055149083
    5    4    5    4        0.0214330492
    6    4    1    1        0.0062024206
    6    4    2    1       -0.0013007662
    6    4    4    1        0.0025474096
    6    4    5    1        0.0034283862
    6    4    6    1        0.0042038443
    6    4    2    2       -0.0088327264
    6    4    4    2        0.0053157924
    6    4    5    2        0.0142435856
    6    4    6    2        0.0111255955
    6    4    3    3        0.0015838024
    6    4    4    4       -0.0000349291
    6    4    5    4        0.0184596907
    6    4    6    4        0.0198327190
    6    4    5    5        0.0107450653
    7    4    1    1        0.4674863543
    7    4    2    1       -0.0024228282
    7    4    4    1        0.0041297142
    7    4    5    1        0.0006710906
    7    4    6    1       -0.0027607901
    7    4    7    1        0.0034385636
    7    4    2    2        0.2113539533
    7    4    4    2       -0.0102010534
    7    4    5    2       -0.0033035117
    7    4    6    2        0.0183822842
    7    4    7    2        0.0179084078
    7    4    3    3        0.1869224447
    7    4    4    4        0.1023790092
    7    4    5    4        0.0083496299
    7    4    6    4        0.0084903013
    7    4    7    4        0.2088235542
    7    4    5    5        0.1210072379
    7    4    6    5        0.0931342258
    7    4    6    6        0.1386205093
    8    4    3    1        0.0029534993
    8    4    8    1        0.0031688107
    8    4    3    2       -0.0000933689
    8    4    8    2        0.0039325713
    8    4    4    3        0.0037282489
    8    4    5    3        0.0005123102
    8    4    6    3        0.0013643932
    8    4    7    3        0.0161080961
    8    4    8    4        0.0171159935
    5    5    1    1        0.7357120686
    5    5    2    1        0.0010218728
    5    5    4    1       -0.0015117820
    5    5    5    1        0.0023489277
    5    5    2    2        0.5660145275
    5    5    4    2       -0.0004349051
    5    5    5    2        0.0294992469
    5    5    3    3        0.5336344801
    5    5    4    4        0.4899474675
    5    5    5    4        0.0085488058
    5    5    5    5        0.5560747332
    6    5    1    1        0.4293105004
    6    5    2    1        0.0004481538
    6    5    4    1       -0.0011488195
    6    5    5    1        0.0024194325
    6    5    6    1       -0.0008578017
    6    5    2    2        0.2348292272
    6    5    4    2        0.0097231732
    6    5    5    2       -0.0270574609
    6    5    6    2        0.0156325428
    6    5    3    3        0.2130607214
    6    5    4    4        0.1911140783
    6    5    5    4        0.0074930069
    6    5    6    4       -0.0039647834
    6    5    5    5        0.0698846771
    6    5    6    5        0.2143520840
    7    5    1    1       -0.0076557289
    7    5    2    1       -0.0007024334
    7    5    4    1        0.0007320950
    7    5    5    1        0.0043069286
    7    5    6    1        0.0054769122
    7    5    7    1        0.0006725078
    7    5    2    2       -0.0106029197
    7    5    4    2        0.0016654345
    7    5    5    2        0.0128313962
    7    5    6    2        0.0119375880
    7    5    7    2       -0.0009702168
    7    5    3    3       -0.0044019407
    7    5    4    4        0.0022530473
    7    5    5    4        0.0112195909
    7    5    6    4        0.0133384252
    7    5    7    4       -0.0038159755
    7    5    5    5        0.0003767351
    7    5    6    5       -0.0031669523
    7    5    7    5        0.0145906156
    7    5    6    6        0.0028600736
    8    5    3    1        0.0001558875
    8    5    8    1       -0.0000109572
    8    5    3    2       -0.0038800196
    8    5    8    2        0.0005164668
    8    5    4    3        0.0000631160
    8    5    5    3        0.0037577309
    8    5    6    3        0.0087059724
    8    5    7    3        0.0000963285
    8    5    8    4        0.0007938907
    8    5    8    5        0.0124066139
    6    6    1    1        0.8119442174
    6    6    2    1       -0.0002520106
    6    6    4    1       -0.0022903787
    6    6    5    1        0.0057765001
    6    6    6    1        0.0054303449
    6    6    2    2        0.5631634044
    6    6    4    2       -0.0008299937
    6    6    5    2        0.0371306119
    6    6    6    2        0.0391716949
    6    6    3    3        0.5342741653
    6    6    4    4        0.4847738726
    6    6    5    4        0.0075541654
    6    6    6    4        0.0129172607
    6    6    5    5        0.5668072573
    6    6    6    5        0.0516930386
    6    6    6    6        0.6086047541
    7    6    1    1       -0.0125263453
    7    6    2    1       -0.0018553236
    7    6    4    1        0.0035259010
    7    6    5    1        0.0051311151
    7    6    6    1        0.0062338304
    7    6    7    1        0.0047153484
    7    6    2    2       -0.0209968608
    7    6    4    2        0.0133645564
    7    6    5    2        0.0147454447
    7    6    6    2        0.0130697554
    7    6    7    2        0.0075670747
    7    6    3    3       -0.0037419733
    7    6    4    4        0.0111833865
    7    6    5    4        0.0151804314
    7    6    6    4        0.0168946945
    7    6    7    4       -0.0076086250
    7    6    5    5       -0.0031879576
    7    6    6    5        0.0017597334
    7    6    7    5        0.0159872372
    7    6    6    6       -0.0036567064
    7    6    7    6        0.0210463024
    8    6    3    1        0.0043138785
    8    6    8    1        0.0056275687
    8    6    3    2        0.0173446544
    8    6    8    2        0.0062062586
    8    6    4    3        0.0036974317
    8    6    5    3        0.0126683549
    8    6    6    3        0.0141131338
    8    6    7    3        0.0019868349
    8    6    8    4       -0.0000599035
    8    6    8    5        0.0067496555
    8    6    8    6        0.0143180159
    7    7    1    1        1.0277774254
    7    7    2    1       -0.0047374421
    7    7    4    1        0.0093553779
    7    7    5    1        0.0005539936
    7    7    6    1       -0.0056349692
    7    7    7    1        0.0138410179
    7    7    2    2        0.6254551934
    7    7    4    2        0.0702889312
    7    7    5    2       -0.0188963546
    7    7    6    2        0.0184189823
    7    7    7    2        0.0371475713
    7    7    3    3        0.6315167343
    7    7    4    4        0.7478713065
    7    7    5    4        0.0039045109
    7    7    6    4       -0.0026199429
    7    7    7    4        0.1002088469
    7    7    5    5        0.4811953753
    7    7    6    5        0.1990569019
    7    7    7    5        0.0014789618
    7    7    6    6        0.4849516609
    7    7    7    6        0.0100957833
    7    7    7    7        0.7809991724
    8    7    3    1        0.0074513720
    8    7    8    1        0.0094310100
    8    7    3    2        0.0258329773
    8    7    8    2        0.0076233169
    8    7    4    3        0.0277804586
    8    7    5    3        0.0010412555
    8    7    6    3        0.0023621633
    8    7    7    3        0.0175996462
    8    7    8    4        0.0037443748
    8    7    8    5       -0.0007929350
    8    7    8    6        0.0037059070
    8    7    8    7        0.0286329001
    8    8    1    1        0.9859831530
    8    8    2    1       -0.0020261988
    8    8    4    1       -0.0040253286
    8    8    5    1        0.0006076464
    8    8    6    1       -0.0040262269
    8    8    7    1       -0.0064049671
    8    8    2    2        0.6363993278
    8    8    4    2        0.0060393231
    8    8    5    2       -0.0113540022
    8    8    6    2        0.0241954010
    8    8    7    2        0.0111619604
    8    8    3    3        0.6558563991
    8    8    8    3        0.1655947576
    8    8    4    4        0.5614474092
    8    8    5    4        0.0072256870
    8    8    6    4        0.0005641461
    8    8    7    4        0.1445092190
    8    8    5    5        0.4765916687
    8    8    6    5        0.1702576963
    8    8    7    5       -0.0032065440
    8    8    6    6        0.4788285646
    8    8    7    6       -0.0026285541
    8    8    7    7        0.5699173645
    8    8    8    8        0.5970776370
 end_two_electron_integrals
 enrep_tce =    7.3025897843805341     
  EHF(A)             =       -75.88145483
  EHF(total)         =       -75.88145483
  Shift (HFtot-HFA)  =         0.00000000
 Cpu & wall time / sec            0.1            0.1
 T1-number-of-tasks                   15

 t1 file size   =               15
 t1 file name   = ./H2O.t1
 t1 file handle =       -998
 T2-number-of-boxes                  315

 t2 file size   =              315
 t2 file name   = ./H2O.t2
 t2 file handle =       -996
CCSD iterations
 ---------------------------------------------------------
 Iter          Residuum       Correlation     Cpu    Wall 
 ---------------------------------------------------------
NEW TASK SCHEDULING
CCSD_T1_NTS --- OK
CCSD_T2_NTS --- OK
    1   0.6507464408589  -0.2408867532732     1.9     2.6
    2   1.0243521554259   0.0587147284988     1.9     2.6
    3   1.6458035572762  -0.4186801102872     1.9     2.6
    4   2.6393904426912   0.3286229429909     1.8     2.6
    5   4.2585627379760  -0.8371188650634     1.8     2.6
 MICROCYCLE DIIS UPDATE:                    5                    5
    6   0.0188587495518  -0.1262581439213     1.9     2.5
    7   0.0275278854809  -0.1266397337972     1.9     2.6
    8   0.0552339095257  -0.1276604102705     1.9     2.6
    9   0.1183740688076  -0.1271813018515     1.8     2.6
   10   0.2579560365783  -0.1270974510578     1.9     2.6
 MICROCYCLE DIIS UPDATE:                   10                    5
   11   0.0010055801944  -0.1274748810199     2.0     2.6
   12   0.0011193565658  -0.1274375553375     1.9     2.6
   13   0.0018444258349  -0.1273867918448     1.8     2.6
   14   0.0033153792677  -0.1274760431520     1.8     2.6
   15   0.0060878747055  -0.1273308077705     1.9     2.6
 MICROCYCLE DIIS UPDATE:                   15                    5
   16   0.0000918074414  -0.1274182088262     1.8     2.5
   17   0.0000973504719  -0.1274195269261     1.9     2.6
   18   0.0001898192316  -0.1274324860660     1.8     2.6
   19   0.0004024373867  -0.1274163641996     1.9     2.6
   20   0.0008672871492  -0.1274405538082     1.8     2.6
 MICROCYCLE DIIS UPDATE:                   20                    5
   21   0.0000070153440  -0.1274267625604     1.9     2.6
   22   0.0000059237090  -0.1274268294961     1.8     2.6
   23   0.0000086600784  -0.1274259928740     1.9     2.5
   24   0.0000155329897  -0.1274273335034     1.8     2.5
   25   0.0000293237405  -0.1274252034237     1.8     2.6
 MICROCYCLE DIIS UPDATE:                   25                    5
   26   0.0000007225242  -0.1274264758783     1.9     2.6
   27   0.0000007068858  -0.1274264984855     1.8     2.6
   28   0.0000013720946  -0.1274265994787     1.9     2.6
   29   0.0000029155872  -0.1274264746451     1.8     2.6
   30   0.0000063030616  -0.1274266642356     1.8     2.6
 MICROCYCLE DIIS UPDATE:                   30                    5
   31   0.0000000615625  -0.1274265550991     2.0     2.6
 -----------------------------------------------------------------
 Iterations converged
 CCSD correlation energy / hartree =        -0.127426555099134
 CCSD total energy / hartree       =       -76.008881387128838

 Singles contributions

 Doubles contributions
     6a   (alpha)     8a   (alpha) ---     3a   (alpha)     5a   (alpha)        0.0253054008
     6a   (alpha)     6a   (beta ) ---     2a   (alpha)     2a   (beta )       -0.0208349591
     6a   (alpha)     6a   (beta ) ---     5a   (alpha)     5a   (beta )       -0.2654208643
     6a   (alpha)     7a   (beta ) ---     5a   (alpha)     4a   (beta )       -0.0346700331
     6a   (alpha)     8a   (beta ) ---     5a   (alpha)     3a   (beta )       -0.0357379923
     7a   (alpha)     8a   (alpha) ---     3a   (alpha)     4a   (alpha)        0.0291511734
     7a   (alpha)     6a   (beta ) ---     4a   (alpha)     5a   (beta )       -0.0346700331
     7a   (alpha)     7a   (beta ) ---     4a   (alpha)     4a   (beta )       -0.0912408720
     7a   (alpha)     8a   (beta ) ---     4a   (alpha)     3a   (beta )       -0.0389626823
     8a   (alpha)     6a   (beta ) ---     3a   (alpha)     5a   (beta )       -0.0357379923
     8a   (alpha)     7a   (beta ) ---     3a   (alpha)     4a   (beta )       -0.0389626823
     8a   (alpha)     8a   (beta ) ---     3a   (alpha)     3a   (beta )       -0.0541778232
 Ground state specification:
 exp(T)|Ref>~(1+T)|Ref>
 ------- a(p)+/a(q) strings ----------

 singles norm

 doubles norm

 Reference string
  0.96653406418080245      :(1a)+ (2a)+ (3a)+ (4a)+ (5a)+ (1b)+ (2b)+ (3b)+ (4b)+ (5b)+ |0>

 Singles strings

 Doubles strings
 -0.25653830664861821      :(6a)+ (6b)+ (5b)  (5a)  (1a)+ (2a)+ (3a)+ (4a)+ (5a)+ (1b)+ (2b)+ (3b)+ (4b)+ (5b)+ |0>
 -------------------------------------

 Parallel integral file used       1 records with       0 large values


 Task  times  cpu:       58.0s     wall:       80.5s


                                NWChem Input Module
                                -------------------


 Summary of allocated global arrays
-----------------------------------
  No active global arrays


MA_summarize_allocated_blocks: starting scan ...
MA_summarize_allocated_blocks: scan completed: 0 heap blocks, 0 stack blocks
MA usage statistics:

	allocation statistics:
					      heap	     stack
					      ----	     -----
	current number of blocks	         0	         0
	maximum number of blocks	        18	        42
	current total bytes		         0	         0
	maximum total bytes		   2175760	  16034616
	maximum total K-bytes		      2176	     16035
	maximum total M-bytes		         3	        17


                                     CITATION
                                     --------
                Please cite the following reference when publishing
                           results obtained with NWChem:

          E. Apra, E. J. Bylaska, W. A. de Jong, N. Govind, K. Kowalski,
       T. P. Straatsma, M. Valiev, H. J. J. van Dam, Y. Alexeev, J. Anchell,
       V. Anisimov, F. W. Aquino, R. Atta-Fynn, J. Autschbach, N. P. Bauman,
     J. C. Becca, D. E. Bernholdt, K. Bhaskaran-Nair, S. Bogatko, P. Borowski,
         J. Boschen, J. Brabec, A. Bruner, E. Cauet, Y. Chen, G. N. Chuev,
      C. J. Cramer, J. Daily, M. J. O. Deegan, T. H. Dunning Jr., M. Dupuis,
   K. G. Dyall, G. I. Fann, S. A. Fischer, A. Fonari, H. Fruchtl, L. Gagliardi,
      J. Garza, N. Gawande, S. Ghosh, K. Glaesemann, A. W. Gotz, J. Hammond,
       V. Helms, E. D. Hermes, K. Hirao, S. Hirata, M. Jacquelin, L. Jensen,
   B. G. Johnson, H. Jonsson, R. A. Kendall, M. Klemm, R. Kobayashi, V. Konkov,
      S. Krishnamoorthy, M. Krishnan, Z. Lin, R. D. Lins, R. J. Littlefield,
      A. J. Logsdail, K. Lopata, W. Ma, A. V. Marenich, J. Martin del Campo,
   D. Mejia-Rodriguez, J. E. Moore, J. M. Mullin, T. Nakajima, D. R. Nascimento,
    J. A. Nichols, P. J. Nichols, J. Nieplocha, A. Otero-de-la-Roza, B. Palmer,
    A. Panyala, T. Pirojsirikul, B. Peng, R. Peverati, J. Pittner, L. Pollack,
   R. M. Richard, P. Sadayappan, G. C. Schatz, W. A. Shelton, D. W. Silverstein,
   D. M. A. Smith, T. A. Soares, D. Song, M. Swart, H. L. Taylor, G. S. Thomas,
            V. Tipparaju, D. G. Truhlar, K. Tsemekhman, T. Van Voorhis,
      A. Vazquez-Mayagoitia, P. Verma, O. Villa, A. Vishnu, K. D. Vogiatzis,
        D. Wang, J. H. Weare, M. J. Williamson, T. L. Windus, K. Wolinski,
        A. T. Wong, Q. Wu, C. Yang, Q. Yu, M. Zacharias, Z. Zhang, Y. Zhao,
                                and R. J. Harrison
                        "NWChem: Past, present, and future
                         J. Chem. Phys. 152, 184102 (2020)
                               doi:10.1063/5.0004997

                                      AUTHORS
                                      -------
  E. Apra, E. J. Bylaska, N. Govind, K. Kowalski, M. Valiev, D. Mejia-Rodriguez,
       A. Kunitsa, N. P. Bauman, A. Panyala, W. A. de Jong, T. P. Straatsma,
        H. J. J. van Dam, D. Wang, T. L. Windus, J. Hammond, J. Autschbach,
    K. Bhaskaran-Nair, J. Brabec, K. Lopata, S. A. Fischer, S. Krishnamoorthy,
     M. Jacquelin, W. Ma, M. Klemm, O. Villa, Y. Chen, V. Anisimov, F. Aquino,
    S. Hirata, M. T. Hackler, Eric Hermes, L. Jensen, J. E. Moore, J. C. Becca,
      V. Konjkov, T. Risthaus, M. Malagoli, A. Marenich, A. Otero-de-la-Roza,
        J. Mullin, P. Nichols, R. Peverati, J. Pittner, Y. Zhao, P.-D. Fan,
        A. Fonari, M. J. Williamson, R. J. Harrison, J. R. Rehr, M. Dupuis,
     D. Silverstein, D. M. A. Smith, J. Nieplocha, V. Tipparaju, M. Krishnan,
     B. E. Van Kuiken, A. Vazquez-Mayagoitia, M. Swart, Q. Wu, T. Van Voorhis,
     A. A. Auer, M. Nooijen, L. D. Crosby, E. Brown, G. Cisneros, G. I. Fann,
   H. Fruchtl, J. Garza, K. Hirao, R. A. Kendall, J. A. Nichols, K. Tsemekhman,
    K. Wolinski, J. Anchell, D. E. Bernholdt, P. Borowski, T. Clark, D. Clerc,
   H. Dachsel, M. J. O. Deegan, K. Dyall, D. Elwood, E. Glendening, M. Gutowski,
   A. C. Hess, J. Jaffe, B. G. Johnson, J. Ju, R. Kobayashi, R. Kutteh, Z. Lin,
   R. Littlefield, X. Long, B. Meng, T. Nakajima, S. Niu, L. Pollack, M. Rosing,
   K. Glaesemann, G. Sandrone, M. Stave, H. Taylor, G. Thomas, J. H. van Lenthe,
                               A. T. Wong, Z. Zhang.

 Total times  cpu:       62.2s     wall:       88.2s
