 argument  1 = input.nw
  NWChem w/ OpenMP: maximum threads =    1



============================== echo of input deck ==============================
 echo
 start HF
 title "HF"

 memory total 24 gb

 geometry units bohr
 symmetry c1
        F  0.00000000  0.00000000  0.00000000
        H  0.00000000  4.33125  0.00000000
 end

 basis spherical
   * library cc-pVTZ
 end

 mcscf
   active  8
   actelec 10
   multiplicity 1
   maxiter 40
   vectors input HF.mos
   vectors output HF.mos
 end

 task mcscf

 scf
   vectors input HF.mos
   vectors output HF-trash.mos
   noscf
 end

 tce
   2eorb
   2emet 13
   ccsd
   maxiter 500
 end

# set tce:print_integrals T
# set tce:qorb 8
# set tce:qela 5
# set tce:qelb 5

 set tce:qducc T
 set tce:nactv 3
 set tce:nonhf T
 set tce:ducc_model 6

 set tce:printtol 0.02

 task tce
================================================================================


                                         
                                         


             Northwest Computational Chemistry Package (NWChem) 7.0.1
             --------------------------------------------------------


                    Environmental Molecular Sciences Laboratory
                       Pacific Northwest National Laboratory
                                Richland, WA 99352

                              Copyright (c) 1994-2020
                       Pacific Northwest National Laboratory
                            Battelle Memorial Institute

             NWChem is an open-source computational chemistry package
                        distributed under the terms of the
                      Educational Community License (ECL) 2.0
             A copy of the license is included with this distribution
                              in the LICENSE.TXT file

                                  ACKNOWLEDGMENT
                                  --------------

            This software and its documentation were developed at the
            EMSL at Pacific Northwest National Laboratory, a multiprogram
            national laboratory, operated for the U.S. Department of Energy
            by Battelle under Contract Number DE-AC05-76RL01830. Support
            for this work was provided by the Department of Energy Office
            of Biological and Environmental Research, Office of Basic
            Energy Sciences, and the Office of Advanced Scientific Computing.


           Job information
           ---------------

    hostname        = WE46210
    program         = /home/baum612/code/nwchem/bin/LINUX64/nwchem
    date            = Mon Nov  6 18:53:41 2023

    compiled        = Mon_Nov_06_10:06:57_2023
    source          = /home/baum612/code/nwchem
    nwchem branch   = 7.0.0
    nwchem revision = nwchem_on_git-4191-g39d87d64de
    ga revision     = 5.8.1
    use scalapack   = F
    input           = input.nw
    prefix          = HF.
    data base       = ./HF.db
    status          = startup
    nproc           =        1
    time left       =     -1s



           Memory information
           ------------------

    heap     =  805306362 doubles =   6144.0 Mbytes
    stack    =  805306367 doubles =   6144.0 Mbytes
    global   = 1610612736 doubles =  12288.0 Mbytes (distinct from heap & stack)
    total    = 3221225465 doubles =  24576.0 Mbytes
    verify   = yes
    hardfail = no 


           Directory information
           ---------------------

  0 permanent = .
  0 scratch   = .




                                NWChem Input Module
                                -------------------


                                        HF
                                        --
 Turning off AUTOSYM since
 SYMMETRY directive was detected!


          ------
          auto-z
          ------
     1 autoz failed with cvr_scaling = 1.2 changing to 1.3
     2 autoz failed with cvr_scaling = 1.3 changing to 1.4
     3 autoz failed with cvr_scaling = 1.4 changing to 1.5
     4 autoz failed with cvr_scaling = 1.5 changing to 1.6
     5 autoz failed with cvr_scaling = 1.6 changing to 1.7

 AUTOZ failed to generate good internal coordinates.
 Cartesian coordinates will be used in optimizations.



                             Geometry "geometry" -> ""
                             -------------------------

 Output coordinates in a.u. (scale by  1.000000000 to convert to a.u.)

  No.       Tag          Charge          X              Y              Z
 ---- ---------------- ---------- -------------- -------------- --------------
    1 F                    9.0000     0.00000000    -0.43312500     0.00000000
    2 H                    1.0000     0.00000000     3.89812500     0.00000000

      Atomic Mass 
      ----------- 

      F                 18.998400
      H                  1.007825


 Effective nuclear repulsion energy (a.u.)       2.0779220779

            Nuclear Dipole moment (a.u.) 
            ----------------------------
        X                 Y               Z
 ---------------- ---------------- ----------------
     0.0000000000    -0.0000000000     0.0000000000


            XYZ format geometry
            -------------------
     2
 geometry
 F                     0.00000000    -0.22919990     0.00000000
 H                     0.00000000     2.06279906     0.00000000



 Summary of "ao basis" -> "" (spherical)
 ------------------------------------------------------------------------------
       Tag                 Description            Shells   Functions and Types
 ---------------- ------------------------------  ------  ---------------------
 *                          cc-pVTZ                   on all atoms 


                      Basis "ao basis" -> "ao basis" (spherical)
                      -----
  F (Fluorine)
  ------------
            Exponent  Coefficients 
       -------------- ---------------------------------------------------------
  1 S  1.95000000E+04  0.000507
  1 S  2.92300000E+03  0.003923
  1 S  6.64500000E+02  0.020200
  1 S  1.87500000E+02  0.079010
  1 S  6.06200000E+01  0.230439
  1 S  2.14200000E+01  0.432872
  1 S  7.95000000E+00  0.349964
  1 S  8.81500000E-01 -0.007892

  2 S  1.95000000E+04 -0.000117
  2 S  2.92300000E+03 -0.000912
  2 S  6.64500000E+02 -0.004717
  2 S  1.87500000E+02 -0.019086
  2 S  6.06200000E+01 -0.059655
  2 S  2.14200000E+01 -0.140010
  2 S  7.95000000E+00 -0.176782
  2 S  8.81500000E-01  0.605043

  3 S  2.25700000E+00  1.000000

  4 S  3.04100000E-01  1.000000

  5 P  4.38800000E+01  0.016665
  5 P  9.92600000E+00  0.104472
  5 P  2.93000000E+00  0.317260

  6 P  9.13200000E-01  1.000000

  7 P  2.67200000E-01  1.000000

  8 D  3.10700000E+00  1.000000

  9 D  8.55000000E-01  1.000000

 10 F  1.91700000E+00  1.000000

  H (Hydrogen)
  ------------
            Exponent  Coefficients 
       -------------- ---------------------------------------------------------
  1 S  3.38700000E+01  0.006068
  1 S  5.09500000E+00  0.045308
  1 S  1.15900000E+00  0.202822

  2 S  3.25800000E-01  1.000000

  3 S  1.02700000E-01  1.000000

  4 P  1.40700000E+00  1.000000

  5 P  3.88000000E-01  1.000000

  6 D  1.05700000E+00  1.000000



 Summary of "ao basis" -> "ao basis" (spherical)
 ------------------------------------------------------------------------------
       Tag                 Description            Shells   Functions and Types
 ---------------- ------------------------------  ------  ---------------------
 F                          cc-pVTZ                 10       30   4s3p2d1f
 H                          cc-pVTZ                  6       14   3s2p1d



                            NWChem Direct MCSCF Module
                            --------------------------


                                        HF


     -----------------------------------
       Basis functions:             44
       Inactive shells:              0
       Active shells:                8
       Active electrons:            10
       Symmetry:                    a       
       Multiplicity:                 1
       Orbital rotations:          288
     -----------------------------------

     -----------------------------------
       E2 extrapolation:             F
       Conjugacy:                    T
       Micro CI relax:               T
       Canonical orbitals:           T
       Maximum iterations:          40
       Converge threshold:    1.00E-04
       Conjugacy resets:            20
       Initial levelshift:        0.10
     -----------------------------------

 Loading old vectors from job with title :

HF


   input molecular orbitals = ./HF.mos
  output molecular orbtials = ./HF.mos

       No. of determinants:          3136


  Starting Orbital Energies
   -26.364470    -1.556354    -0.695043    -0.693114    -0.477800    -0.185569
    -0.006731    -0.006660     0.376475     0.743516     0.743534     0.759180
     0.959642     0.959714     1.013973     1.430783     2.209882     2.233591
     2.233711     2.605833     3.431327     3.431328     3.439830     3.439832
     3.522482     3.870554     3.870556     4.076400     5.039923     5.039956
     5.119443     7.322554     7.322604     7.329056     7.341223     7.341240
     7.374787     7.374787     7.862067     7.872505     8.788301     8.788397
     8.836707     9.842755

  Orbital Symmetry Irreps
a    a    a    a    a    a    a    a    a    a    a    a    a    a    a   
a    a    a    a    a    a    a    a    a    a    a    a    a    a    a   
a    a    a    a    a    a    a    a    a    a    a    a    a    a   

 Integral file          = ./HF.aoints.0
 Record size in doubles =  65536        No. of integs per rec  =  43688
 Max. records in memory =     18        Max. records in file   = 280338
 No. of bits per label  =      8        No. of bits per value  =     64


 #quartets = 9.205D+03 #integrals = 1.144D+05 #direct =  0.0% #cached =100.0%




          %%%%% MacroIteration   1 %%%%%


          Number of sigma calls:       22
                       o<<<<< (aa):             0.00
                       o<<<<< (bb):             0.00
                       o<<<<< (ab):             0.07
                       o<<<<< (total)           0.08
                       o<<<<< (aa) ff           0.00
                       o<<<<< (aa) gop          0.00
                       o<<<<< (aa) dot          0.00
                       o<<<<< (ab) str          0.00
                       o<<<<< (ab) gath         0.00
                       o<<<<< (ab) dotab        0.00
                       o<<<<< (ab) scat         0.00
                       o<<<<< (ab) sync         0.00
                       o<<<<< Density           0.01
                       o<<<<< Density one       0.00
                       o<<<<< Density two       0.00
                       o<<<<< Density ab        0.01
                       o<<<<< Spin adapt        0.37
                       o<<<<< Symm adapt        0.00

                       o<<<<< (ab) max sync:      0.00

           >>>| Valence CI:           -102.007233696403
           >>>| MCSCF energy:          -99.929311618482
           >>>| Gradient norm:          0.491319703D-01
     --- Warning:   18 Hessian diagonals < 0.05 ---

                              ----- Line search ------

        step       energy         lsg     num-lsg   num-lsh   lsrat    time
      ------- ---------------- --------- --------- --------- ------- --------
       0.0000     -99.92931162 -5.58D-04  0.00D+00  0.00D+00 0.0D+00      0.8

          Number of sigma calls:       24
                       o<<<<< (aa):             0.00
                       o<<<<< (bb):             0.00
                       o<<<<< (ab):             0.06
                       o<<<<< (total)           0.07
                       o<<<<< (aa) ff           0.00
                       o<<<<< (aa) gop          0.00
                       o<<<<< (aa) dot          0.00
                       o<<<<< (ab) str          0.00
                       o<<<<< (ab) gath         0.00
                       o<<<<< (ab) dotab        0.00
                       o<<<<< (ab) scat         0.00
                       o<<<<< (ab) sync         0.00
                       o<<<<< Density           0.01
                       o<<<<< Density one       0.00
                       o<<<<< Density two       0.00
                       o<<<<< Density ab        0.01
                       o<<<<< Spin adapt        0.35
                       o<<<<< Symm adapt        0.00

                       o<<<<< (ab) max sync:      0.00
       1.0000     -99.92963076 -7.81D-05 -7.91D-05  4.80D-04 1.4D-01      1.3

          Number of sigma calls:       21
                       o<<<<< (aa):             0.00
                       o<<<<< (bb):             0.00
                       o<<<<< (ab):             0.07
                       o<<<<< (total)           0.07
                       o<<<<< (aa) ff           0.00
                       o<<<<< (aa) gop          0.00
                       o<<<<< (aa) dot          0.00
                       o<<<<< (ab) str          0.00
                       o<<<<< (ab) gath         0.00
                       o<<<<< (ab) dotab        0.00
                       o<<<<< (ab) scat         0.00
                       o<<<<< (ab) sync         0.00
                       o<<<<< Density           0.01
                       o<<<<< Density one       0.00
                       o<<<<< Density two       0.00
                       o<<<<< Density ab        0.01
                       o<<<<< Spin adapt        0.34
                       o<<<<< Symm adapt        0.00

                       o<<<<< (ab) max sync:      0.00
       1.1626     -99.92963702  1.11D-06  1.09D-06  4.87D-04 2.0D-03      1.7
     --- Orbitals canonicalized ---



          %%%%% MacroIteration   2 %%%%%


          Number of sigma calls:       23
                       o<<<<< (aa):             0.00
                       o<<<<< (bb):             0.00
                       o<<<<< (ab):             0.07
                       o<<<<< (total)           0.08
                       o<<<<< (aa) ff           0.00
                       o<<<<< (aa) gop          0.00
                       o<<<<< (aa) dot          0.00
                       o<<<<< (ab) str          0.00
                       o<<<<< (ab) gath         0.00
                       o<<<<< (ab) dotab        0.00
                       o<<<<< (ab) scat         0.00
                       o<<<<< (ab) sync         0.00
                       o<<<<< Density           0.00
                       o<<<<< Density one       0.00
                       o<<<<< Density two       0.00
                       o<<<<< Density ab        0.00
                       o<<<<< Spin adapt        0.42
                       o<<<<< Symm adapt        0.00

                       o<<<<< (ab) max sync:      0.00

           >>>| Valence CI:           -102.007559100760
           >>>| MCSCF energy:          -99.929637022838
           >>>| Gradient norm:          0.608577988D-02
     --- Warning:   46 Hessian diagonals < 0.05 ---
     --- Conjugacy reset ---

                              ----- Line search ------

        step       energy         lsg     num-lsg   num-lsh   lsrat    time
      ------- ---------------- --------- --------- --------- ------- --------
       0.0000     -99.92963702 -9.37D-06  0.00D+00  0.00D+00 0.0D+00      2.3

          Number of sigma calls:       20
                       o<<<<< (aa):             0.00
                       o<<<<< (bb):             0.00
                       o<<<<< (ab):             0.05
                       o<<<<< (total)           0.05
                       o<<<<< (aa) ff           0.00
                       o<<<<< (aa) gop          0.00
                       o<<<<< (aa) dot          0.00
                       o<<<<< (ab) str          0.00
                       o<<<<< (ab) gath         0.00
                       o<<<<< (ab) dotab        0.00
                       o<<<<< (ab) scat         0.00
                       o<<<<< (ab) sync         0.00
                       o<<<<< Density           0.01
                       o<<<<< Density one       0.00
                       o<<<<< Density two       0.00
                       o<<<<< Density ab        0.01
                       o<<<<< Spin adapt        0.22
                       o<<<<< Symm adapt        0.00

                       o<<<<< (ab) max sync:      0.00
       1.0000     -99.92964234 -1.26D-06 -1.27D-06  8.10D-06 1.4D-01      2.6

          Number of sigma calls:       17
                       o<<<<< (aa):             0.00
                       o<<<<< (bb):             0.00
                       o<<<<< (ab):             0.05
                       o<<<<< (total)           0.05
                       o<<<<< (aa) ff           0.00
                       o<<<<< (aa) gop          0.00
                       o<<<<< (aa) dot          0.00
                       o<<<<< (ab) str          0.00
                       o<<<<< (ab) gath         0.00
                       o<<<<< (ab) dotab        0.00
                       o<<<<< (ab) scat         0.00
                       o<<<<< (ab) sync         0.00
                       o<<<<< Density           0.00
                       o<<<<< Density one       0.00
                       o<<<<< Density two       0.00
                       o<<<<< Density ab        0.00
                       o<<<<< Spin adapt        0.26
                       o<<<<< Symm adapt        0.00

                       o<<<<< (ab) max sync:      0.00
       1.1561     -99.92964244  1.53D-09  1.50D-09  8.11D-06 1.6D-04      3.0



          %%%%% MacroIteration   3 %%%%%


          Number of sigma calls:        1
                       o<<<<< (aa):             0.00
                       o<<<<< (bb):             0.00
                       o<<<<< (ab):             0.00
                       o<<<<< (total)           0.00
                       o<<<<< (aa) ff           0.00
                       o<<<<< (aa) gop          0.00
                       o<<<<< (aa) dot          0.00
                       o<<<<< (ab) str          0.00
                       o<<<<< (ab) gath         0.00
                       o<<<<< (ab) dotab        0.00
                       o<<<<< (ab) scat         0.00
                       o<<<<< (ab) sync         0.00
                       o<<<<< Density           0.01
                       o<<<<< Density one       0.00
                       o<<<<< Density two       0.00
                       o<<<<< Density ab        0.01
                       o<<<<< Spin adapt        0.00
                       o<<<<< Symm adapt        0.00

                       o<<<<< (ab) max sync:      0.00

           >>>| Valence CI:           -102.007564516306
           >>>| MCSCF energy:          -99.929642438384
           >>>| Gradient norm:          0.943969076D-03
     --- Warning:   46 Hessian diagonals < 0.05 ---

                              ----- Line search ------

        step       energy         lsg     num-lsg   num-lsh   lsrat    time
      ------- ---------------- --------- --------- --------- ------- --------
       0.0000     -99.92964244 -7.66D-07  0.00D+00  0.00D+00 0.0D+00      3.0

          Number of sigma calls:       18
                       o<<<<< (aa):             0.00
                       o<<<<< (bb):             0.00
                       o<<<<< (ab):             0.05
                       o<<<<< (total)           0.05
                       o<<<<< (aa) ff           0.00
                       o<<<<< (aa) gop          0.00
                       o<<<<< (aa) dot          0.00
                       o<<<<< (ab) str          0.00
                       o<<<<< (ab) gath         0.00
                       o<<<<< (ab) dotab        0.00
                       o<<<<< (ab) scat         0.00
                       o<<<<< (ab) sync         0.00
                       o<<<<< Density           0.01
                       o<<<<< Density one       0.00
                       o<<<<< Density two       0.00
                       o<<<<< Density ab        0.01
                       o<<<<< Spin adapt        0.29
                       o<<<<< Symm adapt        0.00

                       o<<<<< (ab) max sync:      0.00
       1.0000     -99.92964308 -5.08D-07 -5.08D-07  2.57D-07 6.6D-01      3.4

          Number of sigma calls:       19
                       o<<<<< (aa):             0.00
                       o<<<<< (bb):             0.00
                       o<<<<< (ab):             0.04
                       o<<<<< (total)           0.05
                       o<<<<< (aa) ff           0.00
                       o<<<<< (aa) gop          0.00
                       o<<<<< (aa) dot          0.00
                       o<<<<< (ab) str          0.00
                       o<<<<< (ab) gath         0.00
                       o<<<<< (ab) dotab        0.00
                       o<<<<< (ab) scat         0.00
                       o<<<<< (ab) sync         0.00
                       o<<<<< Density           0.01
                       o<<<<< Density one       0.00
                       o<<<<< Density two       0.00
                       o<<<<< Density ab        0.01
                       o<<<<< Spin adapt        0.38
                       o<<<<< Symm adapt        0.00

                       o<<<<< (ab) max sync:      0.00
       2.9741     -99.92964357  3.57D-09  3.18D-09  2.59D-07 4.7D-03      3.9



          %%%%% MacroIteration   4 %%%%%


          Number of sigma calls:        1
                       o<<<<< (aa):             0.00
                       o<<<<< (bb):             0.00
                       o<<<<< (ab):             0.00
                       o<<<<< (total)           0.00
                       o<<<<< (aa) ff           0.00
                       o<<<<< (aa) gop          0.00
                       o<<<<< (aa) dot          0.00
                       o<<<<< (ab) str          0.00
                       o<<<<< (ab) gath         0.00
                       o<<<<< (ab) dotab        0.00
                       o<<<<< (ab) scat         0.00
                       o<<<<< (ab) sync         0.00
                       o<<<<< Density           0.01
                       o<<<<< Density one       0.00
                       o<<<<< Density two       0.00
                       o<<<<< Density ab        0.01
                       o<<<<< Spin adapt        0.00
                       o<<<<< Symm adapt        0.00

                       o<<<<< (ab) max sync:      0.00

           >>>| Valence CI:           -102.007565652333
           >>>| MCSCF energy:          -99.929643574411
           >>>| Gradient norm:          0.168622693D-02
     --- Warning:   46 Hessian diagonals < 0.05 ---

                              ----- Line search ------

        step       energy         lsg     num-lsg   num-lsh   lsrat    time
      ------- ---------------- --------- --------- --------- ------- --------
       0.0000     -99.92964357 -8.27D-07  0.00D+00  0.00D+00 0.0D+00      4.0

          Number of sigma calls:       17
                       o<<<<< (aa):             0.00
                       o<<<<< (bb):             0.00
                       o<<<<< (ab):             0.04
                       o<<<<< (total)           0.04
                       o<<<<< (aa) ff           0.00
                       o<<<<< (aa) gop          0.00
                       o<<<<< (aa) dot          0.00
                       o<<<<< (ab) str          0.00
                       o<<<<< (ab) gath         0.00
                       o<<<<< (ab) dotab        0.00
                       o<<<<< (ab) scat         0.00
                       o<<<<< (ab) sync         0.00
                       o<<<<< Density           0.01
                       o<<<<< Density one       0.00
                       o<<<<< Density two       0.00
                       o<<<<< Density ab        0.01
                       o<<<<< Spin adapt        0.28
                       o<<<<< Symm adapt        0.00

                       o<<<<< (ab) max sync:      0.00
       1.0000     -99.92964427 -5.72D-07 -5.73D-07  2.55D-07 6.9D-01      4.4

          Number of sigma calls:       18
                       o<<<<< (aa):             0.00
                       o<<<<< (bb):             0.00
                       o<<<<< (ab):             0.05
                       o<<<<< (total)           0.06
                       o<<<<< (aa) ff           0.00
                       o<<<<< (aa) gop          0.00
                       o<<<<< (aa) dot          0.00
                       o<<<<< (ab) str          0.00
                       o<<<<< (ab) gath         0.00
                       o<<<<< (ab) dotab        0.00
                       o<<<<< (ab) scat         0.00
                       o<<<<< (ab) sync         0.00
                       o<<<<< Density           0.01
                       o<<<<< Density one       0.00
                       o<<<<< Density two       0.00
                       o<<<<< Density ab        0.01
                       o<<<<< Spin adapt        0.43
                       o<<<<< Symm adapt        0.00

                       o<<<<< (ab) max sync:      0.00
       3.2413     -99.92964490  2.30D-08  2.03D-08  2.66D-07 2.8D-02      4.9



          %%%%% MacroIteration   5 %%%%%


          Number of sigma calls:        1
                       o<<<<< (aa):             0.00
                       o<<<<< (bb):             0.00
                       o<<<<< (ab):             0.00
                       o<<<<< (total)           0.00
                       o<<<<< (aa) ff           0.00
                       o<<<<< (aa) gop          0.00
                       o<<<<< (aa) dot          0.00
                       o<<<<< (ab) str          0.00
                       o<<<<< (ab) gath         0.00
                       o<<<<< (ab) dotab        0.00
                       o<<<<< (ab) scat         0.00
                       o<<<<< (ab) sync         0.00
                       o<<<<< Density           0.01
                       o<<<<< Density one       0.00
                       o<<<<< Density two       0.00
                       o<<<<< Density ab        0.01
                       o<<<<< Spin adapt        0.00
                       o<<<<< Symm adapt        0.00

                       o<<<<< (ab) max sync:      0.00

           >>>| Valence CI:           -102.007566974019
           >>>| MCSCF energy:          -99.929644896097
           >>>| Gradient norm:          0.623153315D-03
     --- Warning:   46 Hessian diagonals < 0.05 ---

                              ----- Line search ------

        step       energy         lsg     num-lsg   num-lsh   lsrat    time
      ------- ---------------- --------- --------- --------- ------- --------
       0.0000     -99.92964490 -2.37D-07  0.00D+00  0.00D+00 0.0D+00      5.0

          Number of sigma calls:       18
                       o<<<<< (aa):             0.00
                       o<<<<< (bb):             0.00
                       o<<<<< (ab):             0.05
                       o<<<<< (total)           0.06
                       o<<<<< (aa) ff           0.00
                       o<<<<< (aa) gop          0.00
                       o<<<<< (aa) dot          0.00
                       o<<<<< (ab) str          0.00
                       o<<<<< (ab) gath         0.00
                       o<<<<< (ab) dotab        0.00
                       o<<<<< (ab) scat         0.00
                       o<<<<< (ab) sync         0.00
                       o<<<<< Density           0.01
                       o<<<<< Density one       0.00
                       o<<<<< Density two       0.00
                       o<<<<< Density ab        0.01
                       o<<<<< Spin adapt        0.37
                       o<<<<< Symm adapt        0.00

                       o<<<<< (ab) max sync:      0.00
       1.0000     -99.92964504 -4.22D-08 -4.22D-08  1.95D-07 1.8D-01      5.5

          Number of sigma calls:       16
                       o<<<<< (aa):             0.00
                       o<<<<< (bb):             0.00
                       o<<<<< (ab):             0.05
                       o<<<<< (total)           0.05
                       o<<<<< (aa) ff           0.00
                       o<<<<< (aa) gop          0.00
                       o<<<<< (aa) dot          0.00
                       o<<<<< (ab) str          0.00
                       o<<<<< (ab) gath         0.00
                       o<<<<< (ab) dotab        0.00
                       o<<<<< (ab) scat         0.00
                       o<<<<< (ab) sync         0.00
                       o<<<<< Density           0.00
                       o<<<<< Density one       0.00
                       o<<<<< Density two       0.00
                       o<<<<< Density ab        0.00
                       o<<<<< Spin adapt        0.39
                       o<<<<< Symm adapt        0.00

                       o<<<<< (ab) max sync:      0.00
       1.2166     -99.92964504  2.88D-11  3.01D-11  1.95D-07 1.2D-04      5.9



          %%%%% MacroIteration   6 %%%%%


          Number of sigma calls:        1
                       o<<<<< (aa):             0.00
                       o<<<<< (bb):             0.00
                       o<<<<< (ab):             0.00
                       o<<<<< (total)           0.00
                       o<<<<< (aa) ff           0.00
                       o<<<<< (aa) gop          0.00
                       o<<<<< (aa) dot          0.00
                       o<<<<< (ab) str          0.00
                       o<<<<< (ab) gath         0.00
                       o<<<<< (ab) dotab        0.00
                       o<<<<< (ab) scat         0.00
                       o<<<<< (ab) sync         0.00
                       o<<<<< Density           0.00
                       o<<<<< Density one       0.00
                       o<<<<< Density two       0.00
                       o<<<<< Density ab        0.00
                       o<<<<< Spin adapt        0.00
                       o<<<<< Symm adapt        0.00

                       o<<<<< (ab) max sync:      0.00

           >>>| Valence CI:           -102.007567118181
           >>>| MCSCF energy:          -99.929645040259
           >>>| Gradient norm:          0.813458653D-04




     ==============================
            MCSCF Converged
     ==============================



          Canonical Eigenvalues

              1      
    1  -26.3721
    2   -1.5633
    3   -0.7030
    4   -0.6999
    5   -0.4507
    6   -0.2149
    7   -0.0067
    8   -0.0065
    9    0.3889
   10    0.7174
   11    0.7574
   12    0.7574
   13    0.9392
   14    0.9392
   15    1.0257
   16    1.3463
   17    2.2239
   18    2.2249
   19    2.2251
   20    2.5479
   21    3.4404
   22    3.4404
   23    3.4419
   24    3.4419
   25    3.4729
   26    3.8736
   27    3.8736
   28    3.9847
   29    5.0265
   30    5.0266
   31    5.1131
   32    7.3095
   33    7.3127
   34    7.3128
   35    7.3328
   36    7.3328
   37    7.3669
   38    7.3669
   39    7.8578
   40    7.8764
   41    8.7758
   42    8.7760
   43    8.7895
   44    9.6935


          Converged CI vector

   Index           Coefficient          Config. Occupation
         1          0.64927203          1  2  3  4  5  1  2  3  4  5
         2          0.45023022          1  2  3  4  5  1  2  3  4  6
        57          0.45023022          1  2  3  4  6  1  2  3  4  5
        58         -0.41180647          1  2  3  4  6  1  2  3  4  6

          Number of sigma calls:        1
                       o<<<<< (aa):             0.00
                       o<<<<< (bb):             0.00
                       o<<<<< (ab):             0.00
                       o<<<<< (total)           0.00
                       o<<<<< (aa) ff           0.00
                       o<<<<< (aa) gop          0.00
                       o<<<<< (aa) dot          0.00
                       o<<<<< (ab) str          0.00
                       o<<<<< (ab) gath         0.00
                       o<<<<< (ab) dotab        0.00
                       o<<<<< (ab) scat         0.00
                       o<<<<< (ab) sync         0.00
                       o<<<<< Density           0.01
                       o<<<<< Density one       0.00
                       o<<<<< Density two       0.00
                       o<<<<< Density ab        0.01
                       o<<<<< Spin adapt        0.00
                       o<<<<< Symm adapt        0.00

                       o<<<<< (ab) max sync:      0.00



          Natural orbital occupation numbers

              1      
    1    2.0000
    2    1.9991
    3    1.9977
    4    1.9966
    5    1.3315
    6    0.6687
    7    0.0033
    8    0.0030


          Number of sigma calls:       22
                       o<<<<< (aa):             0.00
                       o<<<<< (bb):             0.00
                       o<<<<< (ab):             0.09
                       o<<<<< (total)           0.09
                       o<<<<< (aa) ff           0.00
                       o<<<<< (aa) gop          0.00
                       o<<<<< (aa) dot          0.00
                       o<<<<< (ab) str          0.00
                       o<<<<< (ab) gath         0.00
                       o<<<<< (ab) dotab        0.00
                       o<<<<< (ab) scat         0.00
                       o<<<<< (ab) sync         0.00
                       o<<<<< Density           0.02
                       o<<<<< Density one       0.01
                       o<<<<< Density two       0.00
                       o<<<<< Density ab        0.01
                       o<<<<< Spin adapt        0.45
                       o<<<<< Symm adapt        0.00

                       o<<<<< (ab) max sync:      0.00


       Final MCSCF results 
       ------------------- 

       Total MCSCF energy =    -99.929645040259
            Gradient norm =      8.1D-05

    CPU time for solution =      6.5s
   Wall time for solution =     12.1s



                        Analysis of MCSCF natural orbitals
                        ----------------------------------

 Vector    1  Occ=2.000000D+00  E=-2.637212D+01  Symmetry=a
              MO Center= -1.4D-08, -2.3D-01,  1.2D-08, r^2= 1.1D-02
   Bfn.  Coefficient  Atom+Function         Bfn.  Coefficient  Atom+Function  
  ----- ------------  ---------------      ----- ------------  ---------------
     1      0.975761  1 F  s          

 Vector    2  Occ=1.999147D+00  E=-1.563322D+00  Symmetry=a
              MO Center= -1.3D-06, -2.3D-01,  1.1D-06, r^2= 3.4D-01
   Bfn.  Coefficient  Atom+Function         Bfn.  Coefficient  Atom+Function  
  ----- ------------  ---------------      ----- ------------  ---------------
     2      0.585318  1 F  s                  4      0.369988  1 F  s          
     3      0.172592  1 F  s          

 Vector    3  Occ=1.997748D+00  E=-7.030283D-01  Symmetry=a
              MO Center= -2.8D-09, -2.3D-01,  7.4D-09, r^2= 4.3D-01
   Bfn.  Coefficient  Atom+Function         Bfn.  Coefficient  Atom+Function  
  ----- ------------  ---------------      ----- ------------  ---------------
    10      0.367152  1 F  pz                 8      0.314607  1 F  px         
     7      0.300035  1 F  pz                13      0.259777  1 F  pz         
     5      0.257096  1 F  px                11      0.222599  1 F  px         

 Vector    4  Occ=1.996638D+00  E=-6.999241D-01  Symmetry=a
              MO Center=  1.3D-06, -2.3D-01, -1.1D-06, r^2= 4.3D-01
   Bfn.  Coefficient  Atom+Function         Bfn.  Coefficient  Atom+Function  
  ----- ------------  ---------------      ----- ------------  ---------------
     8      0.367819  1 F  px                10     -0.315179  1 F  pz         
     5      0.300109  1 F  px                11      0.258847  1 F  px         
     7     -0.257159  1 F  pz                13     -0.221802  1 F  pz         

 Vector    5  Occ=1.331519D+00  E=-4.506774D-01  Symmetry=a
              MO Center=  1.2D-09,  8.2D-01, -1.0D-09, r^2= 1.9D+00
   Bfn.  Coefficient  Atom+Function         Bfn.  Coefficient  Atom+Function  
  ----- ------------  ---------------      ----- ------------  ---------------
     9      0.347712  1 F  py                32      0.329445  2 H  s          
     6      0.281131  1 F  py                33      0.252091  2 H  s          
    12      0.229172  1 F  py                31      0.155606  2 H  s          

 Vector    6  Occ=6.686549D-01  E=-2.149408D-01  Symmetry=a
              MO Center=  1.5D-09,  1.0D+00, -1.3D-09, r^2= 2.0D+00
   Bfn.  Coefficient  Atom+Function         Bfn.  Coefficient  Atom+Function  
  ----- ------------  ---------------      ----- ------------  ---------------
    32     -0.392181  2 H  s                  9      0.371500  1 F  py         
     6      0.298066  1 F  py                33     -0.277498  2 H  s          
    12      0.191699  1 F  py                31     -0.179961  2 H  s          

 Vector    7  Occ=3.317788D-03  E=-6.667648D-03  Symmetry=a
              MO Center= -1.0D-06, -2.3D-01,  8.9D-07, r^2= 4.0D-01
   Bfn.  Coefficient  Atom+Function         Bfn.  Coefficient  Atom+Function  
  ----- ------------  ---------------      ----- ------------  ---------------
    22      0.646600  1 F  d  1              17      0.378745  1 F  d  1       
    23      0.299858  1 F  d  2              18      0.188342  1 F  d  2       

 Vector    8  Occ=2.976324D-03  E=-6.459979D-03  Symmetry=a
              MO Center= -9.1D-07, -2.3D-01,  7.7D-07, r^2= 4.0D-01
   Bfn.  Coefficient  Atom+Function         Bfn.  Coefficient  Atom+Function  
  ----- ------------  ---------------      ----- ------------  ---------------
    21      0.607864  1 F  d  0              16      0.369080  1 F  d  0       
    23     -0.350948  1 F  d  2              18     -0.213088  1 F  d  2       

 Vector    9  Occ=0.000000D+00  E= 3.888837D-01  Symmetry=a
              MO Center= -8.7D-10,  2.2D+00,  7.9D-10, r^2= 3.0D+00
   Bfn.  Coefficient  Atom+Function         Bfn.  Coefficient  Atom+Function  
  ----- ------------  ---------------      ----- ------------  ---------------
    33      1.652453  2 H  s                 32     -1.366625  2 H  s          
    12     -0.196708  1 F  py         

 Vector   10  Occ=0.000000D+00  E= 7.173769D-01  Symmetry=a
              MO Center= -2.0D-08,  1.6D+00,  1.8D-08, r^2= 1.5D+00
   Bfn.  Coefficient  Atom+Function         Bfn.  Coefficient  Atom+Function  
  ----- ------------  ---------------      ----- ------------  ---------------
    38      0.843925  2 H  py                12     -0.420042  1 F  py         
     9      0.301984  1 F  py                 2      0.265155  1 F  s          
     4     -0.260925  1 F  s          

 Vector   11  Occ=0.000000D+00  E= 7.573910D-01  Symmetry=a
              MO Center=  5.4D-08,  1.8D+00, -4.6D-08, r^2= 1.4D+00
   Bfn.  Coefficient  Atom+Function         Bfn.  Coefficient  Atom+Function  
  ----- ------------  ---------------      ----- ------------  ---------------
    37      0.754183  2 H  px                39     -0.646717  2 H  pz         
    11      0.266022  1 F  px                13     -0.228116  1 F  pz         
     8     -0.175996  1 F  px                10      0.150918  1 F  pz         

 Vector   12  Occ=0.000000D+00  E= 7.574030D-01  Symmetry=a
              MO Center=  4.1D-08,  1.8D+00, -3.5D-08, r^2= 1.4D+00
   Bfn.  Coefficient  Atom+Function         Bfn.  Coefficient  Atom+Function  
  ----- ------------  ---------------      ----- ------------  ---------------
    39      0.754217  2 H  pz                37      0.646746  2 H  px         
    13      0.265808  1 F  pz                11      0.227932  1 F  px         
    10     -0.176080  1 F  pz                 8     -0.150990  1 F  px         

 Vector   13  Occ=0.000000D+00  E= 9.391541D-01  Symmetry=a
              MO Center=  4.6D-07,  4.0D-03, -3.9D-07, r^2= 1.9D+00
   Bfn.  Coefficient  Atom+Function         Bfn.  Coefficient  Atom+Function  
  ----- ------------  ---------------      ----- ------------  ---------------
    11      0.865633  1 F  px                13     -0.742447  1 F  pz         
     8     -0.521596  1 F  px                10      0.447369  1 F  pz         
    37     -0.280566  2 H  px                39      0.240639  2 H  pz         
     5     -0.181005  1 F  px                 7      0.155247  1 F  pz         

 Vector   14  Occ=0.000000D+00  E= 9.392126D-01  Symmetry=a
              MO Center=  4.8D-07,  3.8D-03, -4.1D-07, r^2= 1.9D+00
   Bfn.  Coefficient  Atom+Function         Bfn.  Coefficient  Atom+Function  
  ----- ------------  ---------------      ----- ------------  ---------------
    13      0.865435  1 F  pz                11      0.742277  1 F  px         
    10     -0.521941  1 F  pz                 8     -0.447664  1 F  px         
    39     -0.280473  2 H  pz                37     -0.240560  2 H  px         
     7     -0.181281  1 F  pz                 5     -0.155483  1 F  px         

 Vector   15  Occ=0.000000D+00  E= 1.025697D+00  Symmetry=a
              MO Center=  6.2D-08, -5.9D-01, -5.5D-08, r^2= 1.7D+00
   Bfn.  Coefficient  Atom+Function         Bfn.  Coefficient  Atom+Function  
  ----- ------------  ---------------      ----- ------------  ---------------
    12      1.058113  1 F  py                 4     -0.800473  1 F  s          
     2      0.711505  1 F  s                  9     -0.587160  1 F  py         
    38      0.423022  2 H  py                 1      0.255175  1 F  s          
     6     -0.182883  1 F  py         

 Vector   16  Occ=0.000000D+00  E= 1.346331D+00  Symmetry=a
              MO Center=  4.0D-09,  5.6D-01, -3.2D-09, r^2= 1.8D+00
   Bfn.  Coefficient  Atom+Function         Bfn.  Coefficient  Atom+Function  
  ----- ------------  ---------------      ----- ------------  ---------------
     4      1.515291  1 F  s                  2     -1.198519  1 F  s          
    12      0.644174  1 F  py                38      0.567167  2 H  py         
    33     -0.461432  2 H  s                  1     -0.434856  1 F  s          
     9     -0.300050  1 F  py                 3     -0.224941  1 F  s          
    32      0.225260  2 H  s          

 Vector   17  Occ=0.000000D+00  E= 2.223896D+00  Symmetry=a
              MO Center=  1.9D-09, -1.0D-02, -1.7D-09, r^2= 1.1D+00
   Bfn.  Coefficient  Atom+Function         Bfn.  Coefficient  Atom+Function  
  ----- ------------  ---------------      ----- ------------  ---------------
    23      0.738737  1 F  d  2              21      0.494333  1 F  d  0       
    32     -0.451551  2 H  s                 22     -0.378825  1 F  d  1       
    31      0.368743  2 H  s                 33      0.248940  2 H  s          

 Vector   18  Occ=0.000000D+00  E= 2.224920D+00  Symmetry=a
              MO Center=  5.5D-12, -2.2D-01, -3.8D-11, r^2= 5.9D-01
   Bfn.  Coefficient  Atom+Function         Bfn.  Coefficient  Atom+Function  
  ----- ------------  ---------------      ----- ------------  ---------------
    20      0.763358  1 F  d -1              19      0.654107  1 F  d -2       


 Wrote Lagrangian and 1- and 2-particle density matrices to ./HF.mcpdm


     Multipole analysis of the density
     ---------------------------------

     L   x y z        total        nuclear
     -   - - -        -----        -------
     0   0 0 0     -0.000000     10.000000

     1   1 0 0      0.000000      0.000000
     1   0 1 0      0.133773     -0.000000
     1   0 0 1     -0.000000      0.000000

     2   2 0 0     -4.580605      0.000000
     2   1 1 0     -0.000000      0.000000
     2   1 0 1     -0.001249      0.000000
     2   0 2 0     -3.252234     16.883754
     2   0 1 1      0.000000      0.000000
     2   0 0 2     -4.580992      0.000000


  Mulliken analysis of the total density
  --------------------------------------

    Atom       Charge   Shell Charges
 -----------   ------   -------------------------------------------------------
    1 F    9     9.03   1.95  1.11  0.28  0.66  1.50  2.29  1.23  0.00  0.00  0.00
    2 H    1     0.97   0.17  0.48  0.32 -0.00  0.00 -0.00

    Mulliken analysis of the active space density
    ---------------------------------------------

    Atom       Charge   Shell Charges
 -----------   ------   -------------------------------------------------------
    1 F    9     9.03   1.95  1.11  0.28  0.66  1.50  2.29  1.23  0.00  0.00  0.00
    2 H    1     0.97   0.17  0.48  0.32 -0.00  0.00 -0.00

 Parallel integral file used       3 records with       0 large values


 Task  times  cpu:        6.5s     wall:       12.1s


                                NWChem Input Module
                                -------------------


                                 NWChem SCF Module
                                 -----------------


                                        HF



  ao basis        = "ao basis"
  functions       =    44
  atoms           =     2
  closed shells   =     5
  open shells     =     0
  charge          =   0.00
  wavefunction    = RHF 
  input vectors   = ./HF.mos
  output vectors  = ./HF-trash.mos
  use symmetry    = F
  symmetry adapt  = F


 Summary of "ao basis" -> "ao basis" (spherical)
 ------------------------------------------------------------------------------
       Tag                 Description            Shells   Functions and Types
 ---------------- ------------------------------  ------  ---------------------
 F                          cc-pVTZ                 10       30   4s3p2d1f
 H                          cc-pVTZ                  6       14   3s2p1d



 Forming initial guess at      12.1s


 Loading old vectors from job with title :

HF


 Starting SCF solution at      12.1s



 ----------------------------------------------
         Quadratically convergent ROHF

 Convergence threshold     :          1.000E-04
 Maximum no. of iterations :           30
 Final Fock-matrix accuracy:          1.000E-07
 ----------------------------------------------


 Integral file          = ./HF.aoints.0
 Record size in doubles =  65536        No. of integs per rec  =  43688
 Max. records in memory =     18        Max. records in file   = 280346
 No. of bits per label  =      8        No. of bits per value  =     64


 #quartets = 9.119D+03 #integrals = 1.113D+05 #direct =  0.0% #cached =100.0%



       Final RHF  results 
       ------------------ 

         Total SCF energy =    -99.710732046685
      One-electron energy =   -144.127112396730
      Two-electron energy =     42.338458272123
 Nuclear repulsion energy =      2.077922077922

        Time for solution =      0.0s


             Final eigenvalues
             -----------------

              1      
    1  -26.3721
    2   -1.5633
    3   -0.7030
    4   -0.6999
    5   -0.4507
    6   -0.2149
    7   -0.0067
    8   -0.0065
    9    0.3889
   10    0.7174
   11    0.7574
   12    0.7574
   13    0.9392
   14    0.9392
   15    1.0257

                       ROHF Final Molecular Orbital Analysis
                       -------------------------------------

 Vector    2  Occ=2.000000D+00  E=-1.563322D+00
              MO Center= -1.3D-06, -2.3D-01,  1.1D-06, r^2= 3.4D-01
   Bfn.  Coefficient  Atom+Function         Bfn.  Coefficient  Atom+Function  
  ----- ------------  ---------------      ----- ------------  ---------------
     2      0.585318  1 F  s                  4      0.369988  1 F  s          
     3      0.172592  1 F  s          

 Vector    3  Occ=2.000000D+00  E=-7.030283D-01
              MO Center= -2.8D-09, -2.3D-01,  7.4D-09, r^2= 4.3D-01
   Bfn.  Coefficient  Atom+Function         Bfn.  Coefficient  Atom+Function  
  ----- ------------  ---------------      ----- ------------  ---------------
    10      0.367152  1 F  pz                 8      0.314607  1 F  px         
     7      0.300035  1 F  pz                13      0.259777  1 F  pz         
     5      0.257096  1 F  px                11      0.222599  1 F  px         

 Vector    4  Occ=2.000000D+00  E=-6.999241D-01
              MO Center=  1.3D-06, -2.3D-01, -1.1D-06, r^2= 4.3D-01
   Bfn.  Coefficient  Atom+Function         Bfn.  Coefficient  Atom+Function  
  ----- ------------  ---------------      ----- ------------  ---------------
     8      0.367819  1 F  px                10     -0.315179  1 F  pz         
     5      0.300109  1 F  px                11      0.258847  1 F  px         
     7     -0.257159  1 F  pz                13     -0.221802  1 F  pz         

 Vector    5  Occ=2.000000D+00  E=-4.506774D-01
              MO Center=  1.2D-09,  8.2D-01, -1.0D-09, r^2= 1.9D+00
   Bfn.  Coefficient  Atom+Function         Bfn.  Coefficient  Atom+Function  
  ----- ------------  ---------------      ----- ------------  ---------------
     9      0.347712  1 F  py                32      0.329445  2 H  s          
     6      0.281131  1 F  py                33      0.252091  2 H  s          
    12      0.229172  1 F  py                31      0.155606  2 H  s          

 Vector    6  Occ=0.000000D+00  E=-2.149408D-01
              MO Center=  1.5D-09,  1.0D+00, -1.3D-09, r^2= 2.0D+00
   Bfn.  Coefficient  Atom+Function         Bfn.  Coefficient  Atom+Function  
  ----- ------------  ---------------      ----- ------------  ---------------
    32     -0.392181  2 H  s                  9      0.371500  1 F  py         
     6      0.298066  1 F  py                33     -0.277498  2 H  s          
    12      0.191699  1 F  py                31     -0.179961  2 H  s          

 Vector    7  Occ=0.000000D+00  E=-6.667648D-03
              MO Center= -1.0D-06, -2.3D-01,  8.9D-07, r^2= 4.0D-01
   Bfn.  Coefficient  Atom+Function         Bfn.  Coefficient  Atom+Function  
  ----- ------------  ---------------      ----- ------------  ---------------
    22      0.646600  1 F  d  1              17      0.378745  1 F  d  1       
    23      0.299858  1 F  d  2              18      0.188342  1 F  d  2       

 Vector    8  Occ=0.000000D+00  E=-6.459979D-03
              MO Center= -9.1D-07, -2.3D-01,  7.7D-07, r^2= 4.0D-01
   Bfn.  Coefficient  Atom+Function         Bfn.  Coefficient  Atom+Function  
  ----- ------------  ---------------      ----- ------------  ---------------
    21      0.607864  1 F  d  0              16      0.369080  1 F  d  0       
    23     -0.350948  1 F  d  2              18     -0.213088  1 F  d  2       

 Vector    9  Occ=0.000000D+00  E= 3.888837D-01
              MO Center= -8.7D-10,  2.2D+00,  7.9D-10, r^2= 3.0D+00
   Bfn.  Coefficient  Atom+Function         Bfn.  Coefficient  Atom+Function  
  ----- ------------  ---------------      ----- ------------  ---------------
    33      1.652453  2 H  s                 32     -1.366625  2 H  s          
    12     -0.196708  1 F  py         

 Vector   10  Occ=0.000000D+00  E= 7.173769D-01
              MO Center= -2.0D-08,  1.6D+00,  1.8D-08, r^2= 1.5D+00
   Bfn.  Coefficient  Atom+Function         Bfn.  Coefficient  Atom+Function  
  ----- ------------  ---------------      ----- ------------  ---------------
    38      0.843925  2 H  py                12     -0.420042  1 F  py         
     9      0.301984  1 F  py                 2      0.265155  1 F  s          
     4     -0.260925  1 F  s          

 Vector   11  Occ=0.000000D+00  E= 7.573910D-01
              MO Center=  5.4D-08,  1.8D+00, -4.6D-08, r^2= 1.4D+00
   Bfn.  Coefficient  Atom+Function         Bfn.  Coefficient  Atom+Function  
  ----- ------------  ---------------      ----- ------------  ---------------
    37      0.754183  2 H  px                39     -0.646717  2 H  pz         
    11      0.266022  1 F  px                13     -0.228116  1 F  pz         
     8     -0.175996  1 F  px                10      0.150918  1 F  pz         

 Vector   12  Occ=0.000000D+00  E= 7.574030D-01
              MO Center=  4.1D-08,  1.8D+00, -3.5D-08, r^2= 1.4D+00
   Bfn.  Coefficient  Atom+Function         Bfn.  Coefficient  Atom+Function  
  ----- ------------  ---------------      ----- ------------  ---------------
    39      0.754217  2 H  pz                37      0.646746  2 H  px         
    13      0.265808  1 F  pz                11      0.227932  1 F  px         
    10     -0.176080  1 F  pz                 8     -0.150990  1 F  px         

 Vector   13  Occ=0.000000D+00  E= 9.391541D-01
              MO Center=  4.6D-07,  4.0D-03, -3.9D-07, r^2= 1.9D+00
   Bfn.  Coefficient  Atom+Function         Bfn.  Coefficient  Atom+Function  
  ----- ------------  ---------------      ----- ------------  ---------------
    11      0.865633  1 F  px                13     -0.742447  1 F  pz         
     8     -0.521596  1 F  px                10      0.447369  1 F  pz         
    37     -0.280566  2 H  px                39      0.240639  2 H  pz         
     5     -0.181005  1 F  px                 7      0.155247  1 F  pz         

 Vector   14  Occ=0.000000D+00  E= 9.392126D-01
              MO Center=  4.8D-07,  3.8D-03, -4.1D-07, r^2= 1.9D+00
   Bfn.  Coefficient  Atom+Function         Bfn.  Coefficient  Atom+Function  
  ----- ------------  ---------------      ----- ------------  ---------------
    13      0.865435  1 F  pz                11      0.742277  1 F  px         
    10     -0.521941  1 F  pz                 8     -0.447664  1 F  px         
    39     -0.280473  2 H  pz                37     -0.240560  2 H  px         
     7     -0.181281  1 F  pz                 5     -0.155483  1 F  px         

 Vector   15  Occ=0.000000D+00  E= 1.025697D+00
              MO Center=  6.2D-08, -5.9D-01, -5.5D-08, r^2= 1.7D+00
   Bfn.  Coefficient  Atom+Function         Bfn.  Coefficient  Atom+Function  
  ----- ------------  ---------------      ----- ------------  ---------------
    12      1.058113  1 F  py                 4     -0.800473  1 F  s          
     2      0.711505  1 F  s                  9     -0.587160  1 F  py         
    38      0.423022  2 H  py                 1      0.255175  1 F  s          
     6     -0.182883  1 F  py         


 center of mass
 --------------
 x =   0.00000000 y =  -0.21493581 z =   0.00000000

 moments of inertia (a.u.)
 ------------------
          17.954094618045           0.000000000000           0.000000000000
           0.000000000000           0.000000000000           0.000000000000
           0.000000000000           0.000000000000          17.954094618045

  Mulliken analysis of the total density
  --------------------------------------

    Atom       Charge   Shell Charges
 -----------   ------   -------------------------------------------------------
    1 F    9     9.07   1.95  1.11  0.28  0.66  1.49  2.29  1.29  0.00  0.00  0.00
    2 H    1     0.93   0.15  0.45  0.33 -0.00  0.00  0.00

       Multipole analysis of the density wrt the origin
       ------------------------------------------------

     L   x y z        total         open         nuclear
     -   - - -        -----         ----         -------
     0   0 0 0     -0.000000      0.000000     10.000000

     1   1 0 0      0.000000      0.000000      0.000000
     1   0 1 0      0.356789      0.000000     -0.000000
     1   0 0 1     -0.000000      0.000000      0.000000

     2   2 0 0     -4.597982      0.000000      0.000000
     2   1 1 0     -0.000000      0.000000      0.000000
     2   1 0 1     -0.001416      0.000000      0.000000
     2   0 2 0     -2.202299      0.000000     16.883754
     2   0 1 1      0.000000      0.000000      0.000000
     2   0 0 2     -4.598422      0.000000      0.000000


 Parallel integral file used       3 records with       0 large values

                   NWChem Extensible Many-Electron Theory Module
                   ---------------------------------------------

              ======================================================
                   This portion of the program was automatically
                  generated by a Tensor Contraction Engine (TCE).
                  The development of this portion of the program
                 and TCE was supported by US Department of Energy,
                Office of Science, Office of Basic Energy Science.
                      TCE is a product of Battelle and PNNL.
              Please cite: S.Hirata, J.Phys.Chem.A 107, 9887 (2003).
              ======================================================

                                        HF


            General Information
            -------------------
      Number of processors :     1
         Wavefunction type : Restricted Hartree-Fock
          No. of electrons :    10
           Alpha electrons :     5
            Beta electrons :     5
           No. of orbitals :    88
            Alpha orbitals :    44
             Beta orbitals :    44
        Alpha frozen cores :     0
         Beta frozen cores :     0
     Alpha frozen virtuals :     0
      Beta frozen virtuals :     0
         Spin multiplicity : singlet 
    Number of AO functions :    44
       Number of AO shells :    16
        Use of symmetry is : off
      Symmetry adaption is : off
         Schwarz screening : 0.10D-09

          Correlation Information
          -----------------------
          Calculation type : Coupled-cluster singles & doubles                           
   Perturbative correction : none                                                        
            Max iterations :      500
        Residual threshold : 0.10D-06
     T(0) DIIS level shift : 0.00D+00
     L(0) DIIS level shift : 0.00D+00
     T(1) DIIS level shift : 0.00D+00
     L(1) DIIS level shift : 0.00D+00
     T(R) DIIS level shift : 0.00D+00
     T(I) DIIS level shift : 0.00D+00
   CC-T/L Amplitude update :  5-th order DIIS
                I/O scheme : Global Array Library
        L-threshold :  0.10D-06
        EOM-threshold :  0.10D-06
 no EOMCCSD initial starts read in
 TCE RESTART OPTIONS
 READ_INT:   F
 WRITE_INT:  F
 READ_TA:    F
 WRITE_TA:   F
 READ_XA:    F
 WRITE_XA:   F
 READ_IN3:   F
 WRITE_IN3:  F
 SLICE:      F
 D4D5:       F
 quantumc:   F
 qrotation:  F
 pwtce:      F
 qducc:      T
 nacto:                         0
 nrotv:                         0
 nrot:                          0

            Memory Information
            ------------------
          Available GA space size is    1610610800 doubles
          Available MA space size is    1610610316 doubles

 Maximum block size        32 doubles

 tile_dim =     20

 Block   Spin    Irrep     Size     Offset   Alpha
 -------------------------------------------------
   1    alpha     a      5 doubles       0       1
   2    beta      a      5 doubles       5       1
   3    alpha     a     19 doubles      10       3
   4    alpha     a     20 doubles      29       4
   5    beta      a     19 doubles      49       3
   6    beta      a     20 doubles      68       4

 Global array virtual files algorithm will be used

 Parallel file system coherency ......... OK

 Integral file          = ./HF.aoints.0
 Record size in doubles =  65536        No. of integs per rec  =  43688
 Max. records in memory =     18        Max. records in file   = 280346
 No. of bits per label  =      8        No. of bits per value  =     64


 #quartets = 9.264D+03 #integrals = 1.212D+05 #direct =  0.0% #cached =100.0%


 Fock matrix recomputed
 1-e file size   =             1936
 1-e file name   = ./HF.f1
 Cpu & wall time / sec            0.0            0.1
 4-electron integrals stored in orbital form

 v2    file size   =          1153346
 4-index algorithm nr.  13 is used
 imaxsize =       30
 imaxsize ichop =        0
 Cpu & wall time / sec            0.4            0.4
 T1-number-of-tasks                    2

 t1 file size   =              195
 t1 file name   = ./HF.t1
 t1 file handle =       -998
 T2-number-of-boxes                    7

 t2 file size   =            66550
 t2 file name   = ./HF.t2
 t2 file handle =       -996
CCSD iterations
 ---------------------------------------------------------
 Iter          Residuum       Correlation     Cpu    Wall 
 ---------------------------------------------------------
NEW TASK SCHEDULING
CCSD_T1_NTS --- OK
CCSD_T2_NTS --- OK
    1   1.7975885708256  -0.5733061951692     0.1     0.1
    2   6.9349962036051   0.1830741661818     0.1     0.1
    3  32.3541846859978  -1.8694590831830     0.1     0.1
    4  93.5884985649296   7.1055142809363     0.1     0.1
    5 499.0736337319294 -11.3054144917504     0.1     0.1
 MICROCYCLE DIIS UPDATE:                    5                    5
    6   0.2824701078268  -0.3848810126768     0.1     0.1
    7   1.0673474680887  -0.4445674369787     0.1     0.1
    8   5.5101464185539  -0.2181253407391     0.1     0.1
    9  33.5786900286460  -1.0764285911472     0.1     0.1
   10 178.0182219898931   2.5358550099715     0.1     0.1
 MICROCYCLE DIIS UPDATE:                   10                    5
   11   0.0516532957778  -0.3997178662249     0.1     0.1
   12   0.1082289436577  -0.4065388946211     0.1     0.1
   13   0.5103248105688  -0.3982542210151     0.1     0.1
   14   3.0169905702449  -0.4488231746102     0.1     0.1
   15  18.9851982819657  -0.1892990226434     0.1     0.1
 MICROCYCLE DIIS UPDATE:                   15                    5
   16   0.0098785970678  -0.4081682218129     0.1     0.1
   17   0.0491447319226  -0.4067755010472     0.1     0.1
   18   0.3272644132171  -0.4092819263568     0.1     0.1
   19   2.2267113766792  -0.4045526643759     0.1     0.1
   20  15.2457341076625  -0.4304158482890     0.1     0.1
 MICROCYCLE DIIS UPDATE:                   20                    5
   21   0.0019130197388  -0.4080299105091     0.1     0.1
   22   0.0079047724188  -0.4080071516805     0.1     0.1
   23   0.0518561097813  -0.4085018780603     0.1     0.1
   24   0.3531864948285  -0.4076501697791     0.1     0.1
   25   2.4118099654940  -0.4066672076691     0.1     0.1
 MICROCYCLE DIIS UPDATE:                   25                    5
   26   0.0003045386727  -0.4082426926882     0.1     0.1
   27   0.0005999560649  -0.4081475559534     0.1     0.1
   28   0.0015680888733  -0.4083029693060     0.1     0.1
   29   0.0083466576724  -0.4081436032130     0.1     0.1
   30   0.0538128860860  -0.4079493255079     0.1     0.1
 MICROCYCLE DIIS UPDATE:                   30                    5
   31   0.0000783169115  -0.4082187271744     0.1     0.1
   32   0.0001284031736  -0.4082129212026     0.0     0.1
   33   0.0004178737799  -0.4082536903992     0.1     0.1
   34   0.0020228957487  -0.4081269909895     0.1     0.1
   35   0.0112647468047  -0.4085757240977     0.1     0.1
 MICROCYCLE DIIS UPDATE:                   35                    5
   36   0.0000165230425  -0.4082272867821     0.1     0.1
   37   0.0000312075643  -0.4082231335749     0.1     0.1
   38   0.0000976810583  -0.4082300376602     0.1     0.1
   39   0.0005754710840  -0.4082236845592     0.1     0.1
   40   0.0038560345435  -0.4082109218708     0.1     0.1
 MICROCYCLE DIIS UPDATE:                   40                    5
   41   0.0000041835045  -0.4082264196044     0.1     0.1
   42   0.0000073745739  -0.4082259371781     0.1     0.1
   43   0.0000251020055  -0.4082284070707     0.1     0.1
   44   0.0001196058557  -0.4082208037751     0.1     0.1
   45   0.0006524154197  -0.4082478088846     0.1     0.1
 MICROCYCLE DIIS UPDATE:                   45                    5
   46   0.0000009450717  -0.4082267843227     0.1     0.1
   47   0.0000016047405  -0.4082265910207     0.1     0.1
   48   0.0000051394541  -0.4082269301398     0.1     0.1
   49   0.0000309231140  -0.4082265941663     0.1     0.1
   50   0.0002088020064  -0.4082261047746     0.1     0.1
 MICROCYCLE DIIS UPDATE:                   50                    5
   51   0.0000002300101  -0.4082267542505     0.1     0.1
   52   0.0000004135453  -0.4082267254101     0.1     0.1
   53   0.0000014275673  -0.4082268620250     0.1     0.1
   54   0.0000068551317  -0.4082264452759     0.1     0.1
   55   0.0000376490331  -0.4082279266834     0.1     0.1
 MICROCYCLE DIIS UPDATE:                   55                    5
   56   0.0000000551347  -0.4082267719653     0.1     0.1
 -----------------------------------------------------------------
 Iterations converged
 CCSD correlation energy / hartree =        -0.408226771965293
 CCSD total energy / hartree       =      -100.118958818650100

 Singles contributions
     6a   (alpha) ---     5a   (alpha)        0.0755303459

 Doubles contributions
     6a   (alpha)     6a   (beta ) ---     5a   (alpha)     5a   (beta )       -0.5340518631
     6a   (alpha)    13a   (beta ) ---     5a   (alpha)     4a   (beta )        0.0213927919
     6a   (alpha)    14a   (beta ) ---     5a   (alpha)     3a   (beta )        0.0213952525
     6a   (alpha)    17a   (beta ) ---     2a   (alpha)     5a   (beta )        0.0228013121
     7a   (alpha)     7a   (beta ) ---     4a   (alpha)     4a   (beta )       -0.0240859115
    13a   (alpha)     6a   (beta ) ---     4a   (alpha)     5a   (beta )        0.0213927919
    13a   (alpha)    13a   (beta ) ---     4a   (alpha)     4a   (beta )       -0.0354535578
    13a   (alpha)    14a   (beta ) ---     4a   (alpha)     3a   (beta )       -0.0251097582
    14a   (alpha)     6a   (beta ) ---     3a   (alpha)     5a   (beta )        0.0213952525
    14a   (alpha)    13a   (beta ) ---     3a   (alpha)     4a   (beta )       -0.0251097582
    14a   (alpha)    14a   (beta ) ---     3a   (alpha)     3a   (beta )       -0.0354651192
    17a   (alpha)     6a   (beta ) ---     5a   (alpha)     2a   (beta )        0.0228013121
 Ground state specification:
 exp(T)|Ref>~(1+T)|Ref>
 ------- a(p)+/a(q) strings ----------

 singles norm

 doubles norm

 Reference string
  0.88208963047729105      :(1a)+ (2a)+ (3a)+ (4a)+ (5a)+ (1b)+ (2b)+ (3b)+ (4b)+ (5b)+ |0>

 Singles strings

 Doubles strings
 -0.47108161055642567      :(6a)+ (6b)+ (5b)  (5a)  (1a)+ (2a)+ (3a)+ (4a)+ (5a)+ (1b)+ (2b)+ (3b)+ (4b)+ (5b)+ |0>
 -------------------------------------
 enrep_tce =    2.0779220779220768     
  EHF(total)         =       -99.71073205
  Shift (HFtot-HFA)  =         0.00000000
 ALL OCCUPIED ORBITALS ARE ACTIVE IN DUCC --> NO SHIFT
 Number of active orbitals                    8
 Number of active alpha electrons                    5
 Number of active beta electrons                    5
  nos                    10
  nvs                    78
 noas                     5
 nobs                     5
 nvas                    39
 nvbs                    39
 nactv                     3
 DUCC MODEL =                     6
 NONHF =  T
 F-T1 correlation    =   -1.2410019578760969E-002
 V-T1-T1 correlation =    7.7848268492626527E-004
 V-T2 correlation    =  -0.39659523507146754     
 Total correlation   =  -0.40822677196530227     
 F-T1(Ext) correlation         =   -2.6086272473076610E-003
 V-T1(Ext)-T1(Ext) correlation =    2.4622736115309068E-004
 V-T2(Ext) correlation         =  -0.22669919044809117     
 Total Ext correlation         =  -0.22906159033424575     
1-BODY TIME =   64.414 SECONDS.
  HHHH TIME =   69.898 SECONDS.
  PPPP TIME =    0.225 SECONDS.
  HHHP TIME =    9.523 SECONDS.
  PPPH TIME =    0.601 SECONDS.
  HPHP TIME =    5.715 SECONDS.
  HHPP TIME =    3.370 SECONDS.
 ONE-BODY UNITARY CHECK
 TWO-BODY UNITARY CHECK
                    1                    1                    1                    2   1.3020984425954146E-012
                    1                    1                    1                    5  -7.4945324046806609E-011
                    1                    1                    2                    1  -1.3020972693808534E-012
                    1                    1                    2                    5   1.5270286453365635E-010
                    1                    1                    5                    1   7.4945324007609621E-011
                    1                    1                    5                    2  -1.5270286454003742E-010
                    1                    2                    1                    1  -1.3020984425954146E-012
                    1                    2                    1                    5   1.5384445800625812E-010
                    1                    2                    2                    1   3.5263569841958997E-011
                    1                    2                    2                    2  -3.8203246342277036E-010
                    1                    2                    2                    5  -2.4481930993103598E-009
                    1                    2                    3                    3  -2.2211813080209131E-009
                    1                    2                    4                    4  -2.3289717185778675E-009
                    1                    2                    5                    1  -1.8542068574989301E-010
                    1                    2                    5                    2   2.1799298451433136E-009
                    1                    2                    5                    5  -2.4137444925248798E-010
                    1                    3                    2                    3  -1.3182585162363480E-009
                    1                    3                    3                    1   1.0107248371582500E-011
                    1                    3                    3                    2  -8.6889405392920338E-011
                    1                    3                    3                    5  -5.1403728621758626E-009
                    1                    3                    5                    3   3.5634312527642320E-009
                    1                    4                    2                    4  -7.2586519433981422E-010
                    1                    4                    4                    1  -1.6121237678135003E-010
                    1                    4                    4                    2   3.1845445724876242E-010
                    1                    4                    4                    5  -5.0086365924965209E-009
                    1                    4                    5                    4   3.9332186594059210E-009
                    1                    5                    1                    1   7.4945324046806609E-011
                    1                    5                    1                    2  -1.5384445800625812E-010
                    1                    5                    2                    1  -9.9415387727619375E-010
                    1                    5                    2                    2   1.9264961088521373E-009
                    1                    5                    2                    5  -7.0906905347278837E-011
                    1                    5                    3                    3   3.4818465781965903E-010
                    1                    5                    4                    4   3.6049239133105257E-010
                    1                    5                    5                    1  -3.8372084398829998E-009
                    1                    5                    5                    2   7.0264765603123003E-009
                    1                    5                    5                    5  -4.4909603622375224E-010
                    1                    6                    1                    7  -4.4250247910326834E-010
                    1                    6                    1                   10  -2.9261766100463493E-010
                    1                    6                    2                    6  -3.5848990442843842E-011
                    1                    6                    2                    7   1.4809045170705026E-009
                    1                    6                    2                   10   3.8857174387840754E-009
                    1                    6                    3                    8   2.7277310549189693E-009
                    1                    6                    4                    9   3.9435078744154417E-009
                    1                    6                    5                    6  -1.7867056792408853E-011
                    1                    6                    5                    7   1.9702224018924852E-009
                    1                    6                    5                   10   1.5475997976188705E-008
                    1                    6                    6                    2   4.4380438213309503E-010
                    1                    6                    6                    5   2.1767235409975161E-010
                    1                    6                    7                    1   3.4547087413017152E-011
                    1                    6                    7                    2  -1.4809045170705026E-009
                    1                    6                    7                    5  -3.7330145819143568E-009
                    1                    6                    8                    3  -2.7277310549189693E-009
                    1                    6                    9                    4  -3.9435078744154417E-009
                    1                    6                   10                    1   9.2812363697292177E-011
                    1                    6                   10                    2  -2.1229252583285230E-009
                    1                    6                   10                    5  -1.5475997976188705E-008
                    1                    7                    1                    6   4.4250247910326834E-010
                    1                    7                    1                   10   4.2318360621296236E-011
                    1                    7                    2                    6  -3.4641636781351792E-011
                    1                    7                    2                    7   1.1412349138623101E-009
                    1                    7                    2                   10   1.0405949287851674E-008
                    1                    7                    3                    8   2.4061952916265561E-009
                    1                    7                    4                    9   2.9309758370343886E-009
                    1                    7                    5                    6   5.3459805592764864E-011
                    1                    7                    5                    7   1.1219887181661281E-008
                    1                    7                    5                   10   3.3615234935890914E-009
                    1                    7                    6                    1  -4.4380465968885119E-010
                    1                    7                    6                    5   1.1152590352961345E-010
                    1                    7                    7                    1   6.9904970700918057E-011
                    1                    7                    7                    2  -1.5232673681447872E-009
                    1                    7                    7                    5  -1.2854142379301568E-008
                    1                    7                    8                    3  -4.6273766485249723E-009
                    1                    7                    9                    4  -5.2599475330872281E-009
                    1                    7                   10                    1  -2.3888026279283991E-010
                    1                    7                   10                    2  -9.0399573447850091E-009
                    1                    7                   10                    5  -3.6028979348567969E-009
                    1                    8                    2                    8   2.1837077476133393E-009
                    1                    8                    3                    6   1.8134301699168631E-010
                    1                    8                    3                    7   2.4966861356112702E-009
                    1                    8                    3                   10   6.0820361737386197E-009
                    1                    8                    5                    8   1.0340350960029443E-008
                    1                    8                    7                    3  -3.5019663349733499E-009
                    1                    8                    8                    1  -1.7123746864911027E-010
                    1                    8                    8                    2  -2.5835755141159766E-009
                    1                    8                    8                    5  -1.1222409042853376E-008
                    1                    8                   10                    3  -6.7769197024947214E-009
                    1                    9                    2                    9   2.0922419413302307E-009
                    1                    9                    4                    6   1.6516159967450150E-010
                    1                    9                    4                    7   2.7282595002620091E-009
                    1                    9                    4                   10   6.1968039386916390E-009
                    1                    9                    5                    9   1.0278795831305219E-008
                    1                    9                    7                    4  -2.8181072891930725E-009
                    1                    9                    9                    1  -3.2637448299510652E-010
                    1                    9                    9                    2  -2.4098048929596660E-009
                    1                    9                    9                    5  -1.1205440530320798E-008
                    1                    9                   10                    4  -6.3455771711403569E-009
                    1                   10                    1                    6   2.9261766100463493E-010
                    1                   10                    1                    7  -4.2318360621296236E-011
                    1                   10                    2                    6   3.6175108481667495E-011
                    1                   10                    2                    7   5.8437509867464814E-009
                    1                   10                    2                   10   1.0749822915503970E-009
                    1                   10                    3                    8   3.9802731994663040E-009
                    1                   10                    4                    9   3.8923147635755787E-009
                    1                   10                    5                    6   1.7233985072362401E-010
                    1                   10                    5                    7   5.4930922414875294E-009
                    1                   10                    5                   10   3.5549386430454646E-009
                    1                   10                    6                    1  -2.1767235236502813E-010
                    1                   10                    6                    2  -1.1152590439697518E-010
                    1                   10                    7                    1  -1.0303291518576341E-009
                    1                   10                    7                    2  -3.9172548780023672E-009
                    1                   10                    7                    5  -1.1458893937887904E-009
[...]
    8    6    2    7        0.0000000089
    8    6    2    8        0.0024562377
    8    7    2    1        0.0000000036
    8    7    2    2        0.0000001367
    8    7    2    3       -0.0000000574
    8    7    2    5       -0.0000000131
    8    7    2    6       -0.0000000033
    8    7    2    7       -0.0000001038
    8    7    2    8        0.0228901410
    8    8    2    1        0.0018040122
    8    8    2    2        0.8503729606
    8    8    2    3        0.0000000007
    8    8    2    4        0.0000003666
    8    8    2    5       -0.0103772089
    8    8    2    6        0.0102476521
    8    8    2    7        0.0262723772
    8    8    2    8       -0.0000019246
    8    1    3    1       -0.0000003807
    8    1    3    2       -0.0000002867
    8    1    3    3        0.0000002861
    8    1    3    4       -0.0064487010
    8    1    3    5        0.0000000071
    8    1    3    6       -0.0000000083
    8    1    3    7        0.0000001034
    8    1    3    8        0.0000000004
    8    2    3    1       -0.0000000622
    8    2    3    2        0.0000002481
    8    2    3    3       -0.0000016440
    8    2    3    4       -0.0567126434
    8    2    3    5        0.0000000057
    8    2    3    6       -0.0000000040
    8    2    3    7       -0.0000000951
    8    2    3    8        0.0000000002
    8    3    3    1        0.0000000296
    8    3    3    2        0.0000008510
    8    3    3    3       -0.0000015046
    8    3    3    4       -0.0000000013
    8    3    3    5       -0.0000000341
    8    3    3    6       -0.0000000092
    8    3    3    7        0.0000003261
    8    3    3    8        0.1288307506
    8    4    3    1       -0.0275133366
    8    4    3    2       -0.1272417468
    8    4    3    3       -0.0000000037
    8    4    3    4       -0.0000005968
    8    4    3    5        0.0019559781
    8    4    3    6       -0.0028103158
    8    4    3    7        0.0404023728
    8    4    3    8        0.0000003225
    8    5    3    1        0.0000000050
    8    5    3    2        0.0000000191
    8    5    3    3        0.0000003060
    8    5    3    4        0.0011441590
    8    5    3    5       -0.0000000383
    8    5    3    6       -0.0000000460
    8    5    3    7       -0.0000000071
    8    5    3    8       -0.0000000004
    8    6    3    1       -0.0000000056
    8    6    3    2       -0.0000000194
    8    6    3    3       -0.0000005716
    8    6    3    4       -0.0017036326
    8    6    3    5       -0.0000000529
    8    6    3    6       -0.0000000611
    8    6    3    7        0.0000000072
    8    6    3    8       -0.0000000003
    8    7    3    1       -0.0000000480
    8    7    3    2       -0.0000000530
    8    7    3    3        0.0000002904
    8    7    3    4       -0.0158613919
    8    7    3    5        0.0000000035
    8    7    3    6       -0.0000000038
    8    7    3    7       -0.0000000180
    8    7    3    8        0.0000000002
    8    8    3    1        0.0000000005
    8    8    3    2        0.0000000007
    8    8    3    3        0.8415154212
    8    8    3    4        0.0000001381
    8    8    3    5       -0.0000000003
    8    8    3    7       -0.0000000012
    8    8    3    8       -0.0000013939
    8    1    4    1       -0.0000000005
    8    1    4    2       -0.0000000004
    8    1    4    3       -0.0063828372
    8    1    4    4        0.0000001562
    8    1    4    7       -0.0000000003
    8    1    4    8        0.0000002555
    8    2    4    2        0.0000000007
    8    2    4    3       -0.0563638202
    8    2    4    4       -0.0000027065
    8    2    4    5        0.0000000002
    8    2    4    6        0.0000000002
    8    2    4    7        0.0000000003
    8    2    4    8        0.0000001553
    8    3    4    1       -0.0277744385
    8    3    4    2       -0.1285593095
    8    3    4    3       -0.0000000013
    8    3    4    4       -0.0000020867
    8    3    4    5        0.0018835531
    8    3    4    6       -0.0028885720
    8    3    4    7       -0.0942288015
    8    3    4    8        0.0000003225
    8    4    4    1       -0.0000005099
    8    4    4    2       -0.0000015583
    8    4    4    3       -0.0000006364
    8    4    4    4       -0.0000000024
    8    4    4    5       -0.0000000007
    8    4    4    6       -0.0000000664
    8    4    4    7       -0.0000004651
    8    4    4    8        0.1265939043
    8    5    4    2        0.0000000004
    8    5    4    3        0.0011404306
    8    5    4    4        0.0000003253
    8    5    4    7        0.0000000003
    8    5    4    8       -0.0000000246
    8    6    4    2        0.0000000004
    8    6    4    3       -0.0017014292
    8    6    4    4       -0.0000006068
    8    6    4    7        0.0000000002
    8    6    4    8        0.0000000299
    8    7    4    3       -0.0158705787
    8    7    4    4       -0.0000001237
    8    7    4    7       -0.0000000002
    8    7    4    8        0.0000002136
    8    8    4    1        0.0000003307
    8    8    4    2        0.0000003666
    8    8    4    3        0.0000001381
    8    8    4    4        0.8405059058
    8    8    4    5       -0.0000000441
    8    8    4    6        0.0000000505
    8    8    4    7        0.0000015346
    8    8    4    8       -0.0000000023
    8    1    5    1        0.0000000512
    8    1    5    2        0.0000000116
    8    1    5    3        0.0000000067
    8    1    5    5        0.0000001018
    8    1    5    6        0.0000000845
    8    1    5    7       -0.0000000077
    8    1    5    8       -0.0001641867
    8    2    5    1       -0.0000000050
    8    2    5    2        0.0000000016
    8    2    5    3        0.0000000073
    8    2    5    4        0.0000000002
    8    2    5    5       -0.0000011770
    8    2    5    6       -0.0000011905
    8    2    5    7        0.0000000117
    8    2    5    8       -0.0017296739
    8    3    5    1       -0.0000000060
    8    3    5    2        0.0000000339
    8    3    5    3       -0.0000000558
    8    3    5    4        0.0019659684
    8    3    5    5       -0.0000006899
    8    3    5    6       -0.0000006782
    8    3    5    7        0.0000000224
    8    3    5    8       -0.0000000004
    8    4    5    2        0.0000000004
    8    4    5    3        0.0021333084
    8    4    5    4       -0.0000000183
    8    4    5    5       -0.0000000010
    8    4    5    6       -0.0000000011
    8    4    5    7       -0.0000000002
    8    4    5    8       -0.0000000246
    8    5    5    1       -0.0000001561
    8    5    5    2       -0.0000002522
    8    5    5    3       -0.0000000404
    8    5    5    5        0.0000002032
    8    5    5    6        0.0000002474
    8    5    5    7        0.0000000569
    8    5    5    8        0.0100841788
    8    6    5    1       -0.0000001775
    8    6    5    2       -0.0000004826
    8    6    5    3       -0.0000000529
    8    6    5    5       -0.0000000581
    8    6    5    6       -0.0000006529
    8    6    5    7        0.0000001792
    8    6    5    8        0.0088027300
    8    7    5    1       -0.0000000034
    8    7    5    2       -0.0000000135
    8    7    5    3        0.0000000041
    8    7    5    5        0.0000000805
    8    7    5    6        0.0000001597
    8    7    5    7       -0.0000000087
    8    7    5    8       -0.0005187307
    8    8    5    1        0.0004093724
    8    8    5    2       -0.0103772089
    8    8    5    3       -0.0000000003
    8    8    5    4       -0.0000000441
    8    8    5    5        0.5201023107
    8    8    5    6        0.2651250248
    8    8    5    7       -0.0037113545
    8    8    5    8        0.0000002693
    8    1    6    1       -0.0000000133
    8    1    6    2        0.0000000252
    8    1    6    3       -0.0000000086
    8    1    6    5        0.0000000796
    8    1    6    6        0.0000001044
    8    1    6    7       -0.0000000075
    8    1    6    8        0.0002062524
    8    2    6    1        0.0000000123
    8    2    6    2       -0.0000001549
    8    2    6    3       -0.0000000205
    8    2    6    4        0.0000000001
    8    2    6    5       -0.0000016319
    8    2    6    6       -0.0000012094
    8    2    6    7        0.0000000008
    8    2    6    8        0.0024562377
    8    3    6    1        0.0000000062
    8    3    6    2       -0.0000000543
    8    3    6    3       -0.0000000786
    8    3    6    4       -0.0028541761
    8    3    6    5       -0.0000008949
    8    3    6    6       -0.0000007212
    8    3    6    7       -0.0000000175
    8    3    6    8       -0.0000000003
    8    4    6    2        0.0000000003
    8    4    6    3       -0.0028016770
    8    4    6    4       -0.0000001304
    8    4    6    5       -0.0000000015
    8    4    6    6       -0.0000000011
    8    4    6    7       -0.0000000002
    8    4    6    8        0.0000000299
    8    5    6    1       -0.0000001709
    8    5    6    2       -0.0000006189
    8    5    6    3       -0.0000001895
    8    5    6    4       -0.0000000003
    8    5    6    5        0.0000001041
    8    5    6    6        0.0000000382
    8    5    6    7        0.0000001023
    8    5    6    8        0.0088027300
    8    6    6    1       -0.0000001862
    8    6    6    2       -0.0000004620
    8    6    6    3       -0.0000000547
    8    6    6    5       -0.0000006431
    8    6    6    6        0.0000001028
    8    6    6    7        0.0000001478
    8    6    6    8        0.0089622397
    8    7    6    1       -0.0000000035
    8    7    6    2       -0.0000000042
    8    7    6    3       -0.0000000020
    8    7    6    5        0.0000001533
    8    7    6    6        0.0000000847
    8    7    6    7       -0.0000000151
    8    7    6    8        0.0006578550
    8    8    6    1       -0.0002680476
    8    8    6    2        0.0102476521
    8    8    6    4        0.0000000505
    8    8    6    5        0.2651250248
    8    8    6    6        0.5021626407
    8    8    6    7        0.0035047166
    8    8    6    8       -0.0000006232
    8    1    7    1       -0.0000000192
    8    1    7    2        0.0000000015
    8    1    7    3        0.0000000986
    8    1    7    4       -0.0000000003
    8    1    7    5       -0.0000000067
    8    1    7    6       -0.0000000076
    8    1    7    7        0.0000000615
    8    1    7    8        0.0015524391
    8    2    7    1        0.0000000052
    8    2    7    2       -0.0000000098
    8    2    7    3       -0.0000000845
    8    2    7    4        0.0000000002
    8    2    7    5        0.0000000287
    8    2    7    7       -0.0000017981
    8    2    7    8        0.0228901410
    8    3    7    1       -0.0000001924
    8    3    7    2        0.0000000513
    8    3    7    3        0.0000003367
    8    3    7    4       -0.0935741688
    8    3    7    5        0.0000000335
    8    3    7    6       -0.0000000184
    8    3    7    7       -0.0000013234
    8    3    7    8        0.0000000002
    8    4    7    1        0.0000000001
    8    4    7    2       -0.0000000002
    8    4    7    3        0.0390680348
    8    4    7    4       -0.0000004247
    8    4    7    5       -0.0000000002
    8    4    7    6       -0.0000000002
    8    4    7    7       -0.0000000019
    8    4    7    8        0.0000002136
    8    5    7    1       -0.0000000008
    8    5    7    2       -0.0000000226
    8    5    7    3       -0.0000000114
    8    5    7    4        0.0000000003
    8    5    7    5       -0.0000000460
    8    5    7    6        0.0000001073
    8    5    7    7        0.0000002998
    8    5    7    8       -0.0005187307
    8    6    7    1       -0.0000000007
    8    6    7    2        0.0000000097
    8    6    7    3        0.0000000087
    8    6    7    4        0.0000000002
    8    6    7    5        0.0000001823
    8    6    7    6        0.0000001482
    8    6    7    7       -0.0000005992
    8    6    7    8        0.0006578550
    8    7    7    1       -0.0000000499
    8    7    7    2       -0.0000001081
    8    7    7    3       -0.0000000303
    8    7    7    4       -0.0000000002
    8    7    7    5       -0.0000000096
    8    7    7    6       -0.0000000149
    8    7    7    7        0.0000000940
    8    7    7    8        0.0259670358
    8    8    7    1        0.0013440413
    8    8    7    2        0.0262723772
    8    8    7    3       -0.0000000012
    8    8    7    4        0.0000015346
    8    8    7    5       -0.0037113545
    8    8    7    6        0.0035047166
    8    8    7    7        0.8159604160
    8    8    7    8        0.0000000692
    8    1    8    1        0.0019392304
    8    1    8    2        0.0057986185
    8    1    8    3        0.0000000004
    8    1    8    4        0.0000002410
    8    1    8    5       -0.0001789062
    8    1    8    6        0.0002134572
    8    1    8    7        0.0015457014
    8    1    8    8       -0.0000000293
    8    2    8    1        0.0057986185
    8    2    8    2        0.0837236489
    8    2    8    3        0.0000000003
    8    2    8    4        0.0000001821
    8    2    8    5       -0.0015667088
    8    2    8    6        0.0023218981
    8    2    8    7        0.0229480924
    8    2    8    8       -0.0000019246
    8    3    8    1        0.0000000004
    8    3    8    2        0.0000000003
    8    3    8    3        0.1290434656
    8    3    8    4        0.0000003026
    8    3    8    5       -0.0000000004
    8    3    8    6       -0.0000000003
    8    3    8    7        0.0000000002
    8    3    8    8       -0.0000013939
    8    4    8    1        0.0000002410
    8    4    8    2        0.0000001821
    8    4    8    3        0.0000003026
    8    4    8    4        0.1253566664
    8    4    8    5       -0.0000000337
    8    4    8    6        0.0000000289
    8    4    8    7        0.0000001965
    8    4    8    8       -0.0000000023
    8    5    8    1       -0.0001789062
    8    5    8    2       -0.0015667088
    8    5    8    3       -0.0000000004
    8    5    8    4       -0.0000000337
    8    5    8    5        0.0108271316
    8    5    8    6        0.0100986247
    8    5    8    7       -0.0005195554
    8    5    8    8        0.0000002693
    8    6    8    1        0.0002134572
    8    6    8    2        0.0023218981
    8    6    8    3       -0.0000000003
    8    6    8    4        0.0000000289
    8    6    8    5        0.0100986247
    8    6    8    6        0.0090045035
    8    6    8    7        0.0006582535
    8    6    8    8       -0.0000006232
    8    7    8    1        0.0015457014
    8    7    8    2        0.0229480924
    8    7    8    3        0.0000000002
    8    7    8    4        0.0000001965
    8    7    8    5       -0.0005195554
    8    7    8    6        0.0006582535
    8    7    8    7        0.0258527311
    8    7    8    8        0.0000000692
    8    8    8    1       -0.0000000293
    8    8    8    2       -0.0000019246
    8    8    8    3       -0.0000013939
    8    8    8    4       -0.0000000023
    8    8    8    5        0.0000002693
    8    8    8    6       -0.0000006232
    8    8    8    7        0.0000000692
    8    8    8    8        0.8696589423
 end_two_electron_integrals

 Parallel integral file used       3 records with       0 large values


 Task  times  cpu:      161.9s     wall:      162.8s


                                NWChem Input Module
                                -------------------


 Summary of allocated global arrays
-----------------------------------
  No active global arrays


MA_summarize_allocated_blocks: starting scan ...
MA_summarize_allocated_blocks: scan completed: 0 heap blocks, 0 stack blocks
MA usage statistics:

	allocation statistics:
					      heap	     stack
					      ----	     -----
	current number of blocks	         0	         0
	maximum number of blocks	        18	        42
	current total bytes		         0	         0
	maximum total bytes		   9520928	1566946072
	maximum total K-bytes		      9521	   1566947
	maximum total M-bytes		        10	      1567


                                     CITATION
                                     --------
                Please cite the following reference when publishing
                           results obtained with NWChem:

          E. Apra, E. J. Bylaska, W. A. de Jong, N. Govind, K. Kowalski,
       T. P. Straatsma, M. Valiev, H. J. J. van Dam, Y. Alexeev, J. Anchell,
       V. Anisimov, F. W. Aquino, R. Atta-Fynn, J. Autschbach, N. P. Bauman,
     J. C. Becca, D. E. Bernholdt, K. Bhaskaran-Nair, S. Bogatko, P. Borowski,
         J. Boschen, J. Brabec, A. Bruner, E. Cauet, Y. Chen, G. N. Chuev,
      C. J. Cramer, J. Daily, M. J. O. Deegan, T. H. Dunning Jr., M. Dupuis,
   K. G. Dyall, G. I. Fann, S. A. Fischer, A. Fonari, H. Fruchtl, L. Gagliardi,
      J. Garza, N. Gawande, S. Ghosh, K. Glaesemann, A. W. Gotz, J. Hammond,
       V. Helms, E. D. Hermes, K. Hirao, S. Hirata, M. Jacquelin, L. Jensen,
   B. G. Johnson, H. Jonsson, R. A. Kendall, M. Klemm, R. Kobayashi, V. Konkov,
      S. Krishnamoorthy, M. Krishnan, Z. Lin, R. D. Lins, R. J. Littlefield,
      A. J. Logsdail, K. Lopata, W. Ma, A. V. Marenich, J. Martin del Campo,
   D. Mejia-Rodriguez, J. E. Moore, J. M. Mullin, T. Nakajima, D. R. Nascimento,
    J. A. Nichols, P. J. Nichols, J. Nieplocha, A. Otero-de-la-Roza, B. Palmer,
    A. Panyala, T. Pirojsirikul, B. Peng, R. Peverati, J. Pittner, L. Pollack,
   R. M. Richard, P. Sadayappan, G. C. Schatz, W. A. Shelton, D. W. Silverstein,
   D. M. A. Smith, T. A. Soares, D. Song, M. Swart, H. L. Taylor, G. S. Thomas,
            V. Tipparaju, D. G. Truhlar, K. Tsemekhman, T. Van Voorhis,
      A. Vazquez-Mayagoitia, P. Verma, O. Villa, A. Vishnu, K. D. Vogiatzis,
        D. Wang, J. H. Weare, M. J. Williamson, T. L. Windus, K. Wolinski,
        A. T. Wong, Q. Wu, C. Yang, Q. Yu, M. Zacharias, Z. Zhang, Y. Zhao,
                                and R. J. Harrison
                        "NWChem: Past, present, and future
                         J. Chem. Phys. 152, 184102 (2020)
                               doi:10.1063/5.0004997

                                      AUTHORS
                                      -------
  E. Apra, E. J. Bylaska, N. Govind, K. Kowalski, M. Valiev, D. Mejia-Rodriguez,
       A. Kunitsa, N. P. Bauman, A. Panyala, W. A. de Jong, T. P. Straatsma,
        H. J. J. van Dam, D. Wang, T. L. Windus, J. Hammond, J. Autschbach,
    K. Bhaskaran-Nair, J. Brabec, K. Lopata, S. A. Fischer, S. Krishnamoorthy,
     M. Jacquelin, W. Ma, M. Klemm, O. Villa, Y. Chen, V. Anisimov, F. Aquino,
    S. Hirata, M. T. Hackler, Eric Hermes, L. Jensen, J. E. Moore, J. C. Becca,
      V. Konjkov, T. Risthaus, M. Malagoli, A. Marenich, A. Otero-de-la-Roza,
        J. Mullin, P. Nichols, R. Peverati, J. Pittner, Y. Zhao, P.-D. Fan,
        A. Fonari, M. J. Williamson, R. J. Harrison, J. R. Rehr, M. Dupuis,
     D. Silverstein, D. M. A. Smith, J. Nieplocha, V. Tipparaju, M. Krishnan,
     B. E. Van Kuiken, A. Vazquez-Mayagoitia, M. Swart, Q. Wu, T. Van Voorhis,
     A. A. Auer, M. Nooijen, L. D. Crosby, E. Brown, G. Cisneros, G. I. Fann,
   H. Fruchtl, J. Garza, K. Hirao, R. A. Kendall, J. A. Nichols, K. Tsemekhman,
    K. Wolinski, J. Anchell, D. E. Bernholdt, P. Borowski, T. Clark, D. Clerc,
   H. Dachsel, M. J. O. Deegan, K. Dyall, D. Elwood, E. Glendening, M. Gutowski,
   A. C. Hess, J. Jaffe, B. G. Johnson, J. Ju, R. Kobayashi, R. Kutteh, Z. Lin,
   R. Littlefield, X. Long, B. Meng, T. Nakajima, S. Niu, L. Pollack, M. Rosing,
   K. Glaesemann, G. Sandrone, M. Stave, H. Taylor, G. Thomas, J. H. van Lenthe,
                               A. T. Wong, Z. Zhang.

 Total times  cpu:      168.4s     wall:      174.9s
