 argument  1 = input.nw
  NWChem w/ OpenMP: maximum threads =    1
 


============================== echo of input deck ==============================
 echo
 start H2O
 title "H2O"

 memory total 24 gb

 geometry units angstrom
 symmetry c1
   zmatrix
     O
     H1 O 0.97551
     H2 O 0.97551 H1 101.05
   end
 end

 basis spherical
   * library cc-pVTZ
 end

 tce
   2eorb
   2emet 13
   ccsd
   maxiter 300
 end

# set tce:print_integrals T
# set tce:qorb 8
# set tce:qela 5
# set tce:qelb 5

 set tce:qducc T
 set tce:nactv 3
 set tce:nonhf T
 set tce:ducc_model 6

 set tce:printtol 0.02

 task tce
================================================================================


                                         
                                         
 
 
             Northwest Computational Chemistry Package (NWChem) 7.2.3
             --------------------------------------------------------
 
 
                    Environmental Molecular Sciences Laboratory
                       Pacific Northwest National Laboratory
                                Richland, WA 99352
 
                              Copyright (c) 1994-2022
                       Pacific Northwest National Laboratory
                            Battelle Memorial Institute
 
             NWChem is an open-source computational chemistry package
                        distributed under the terms of the
                      Educational Community License (ECL) 2.0
             A copy of the license is included with this distribution
                              in the LICENSE.TXT file
 
                                  ACKNOWLEDGMENT
                                  --------------

            This software and its documentation were developed at the
            EMSL at Pacific Northwest National Laboratory, a multiprogram
            national laboratory, operated for the U.S. Department of Energy
            by Battelle under Contract Number DE-AC05-76RL01830. Support
            for this work was provided by the Department of Energy Office
            of Biological and Environmental Research, Office of Basic
            Energy Sciences, and the Office of Advanced Scientific Computing.


           Job information
           ---------------

    hostname        = koothan
    program         = /hpc/home/baum612/code/nwchem/bin/LINUX64/nwchem
    date            = Thu Nov 21 21:48:12 2024

    compiled        = Thu_Nov_21_17:16:59_2024
    source          = /hpc/home/baum612/code/nwchem
    nwchem branch   = 7.2.3
    nwchem revision = v7.2.0-beta1-1291-g6d839a76f0
    ga revision     = 5.8.0
    use scalapack   = T
    input           = input.nw
    prefix          = H2O.
    data base       = ./H2O.db
    status          = startup
    nproc           =        1
    time left       =     -1s



           Memory information
           ------------------

    heap     =    805306368 doubles =     6144.0 Mbytes
    stack    =    805306365 doubles =     6144.0 Mbytes
    global   =   1610612736 doubles =    12288.0 Mbytes (distinct from heap & stack)
    total    =   3221225469 doubles =    24576.0 Mbytes
    verify   = yes
    hardfail = no 


           Directory information
           ---------------------
 
  0 permanent = .
  0 scratch   = .
 
 
 
 
                                NWChem Input Module
                                -------------------
 
 
                                        H2O
                                        ---

 Scaling coordinates for geometry "geometry" by  1.889725989
 (inverse scale =  0.529177249)

 Turning off AUTOSYM since
 SYMMETRY directive was detected!
 
 
 
                             Geometry "geometry" -> ""
                             -------------------------
 
 Output coordinates in angstroms (scale by  1.889725989 to convert to a.u.)
 
  No.       Tag          Charge          X              Y              Z
 ---- ---------------- ---------- -------------- -------------- --------------
    1 O                    8.0000    -0.09574243     0.00000000    -0.07885383
    2 H1                   1.0000    -0.09574243     0.00000000     0.89665617
    3 H2                   1.0000     0.86168190     0.00000000    -0.26582550
 
      Atomic Mass 
      ----------- 
 
      O                 15.994910
      H1                 1.007825
      H2                 1.007825
 

 Effective nuclear repulsion energy (a.u.)       9.0307745209

            Nuclear Dipole moment (a.u.) 
            ----------------------------
        X                 Y               Z
 ---------------- ---------------- ----------------
     0.0000000000     0.0000000000     0.0000000000
 


                                Z-matrix (user)
                                -------- 

 Units are Angstrom for bonds and degrees for angles
 
      Type          Name      I     J     K     L     M      Value
      ----------- --------  ----- ----- ----- ----- ----- ----------
    1 Stretch                  2     1                       0.97551
    2 Stretch                  3     1                       0.97551
    3 Bend                     3     1     2               101.05000
 
 
            XYZ format geometry
            -------------------
     3
 geometry
 O                    -0.09574243     0.00000000    -0.07885383
 H1                   -0.09574243     0.00000000     0.89665617
 H2                    0.86168190     0.00000000    -0.26582550
 
 ==============================================================================
                                internuclear distances
 ------------------------------------------------------------------------------
       center one      |      center two      | atomic units |  angstroms
 ------------------------------------------------------------------------------
    2 H1               |   1 O                |     1.84345  |     0.97551
    3 H2               |   1 O                |     1.84345  |     0.97551
 ------------------------------------------------------------------------------
                         number of included internuclear distances:          2
 ==============================================================================



 ==============================================================================
                                 internuclear angles
 ------------------------------------------------------------------------------
        center 1       |       center 2       |       center 3       |  degrees
 ------------------------------------------------------------------------------
    2 H1               |   1 O                |   3 H2               |   101.05
 ------------------------------------------------------------------------------
                            number of included internuclear angles:          1
 ==============================================================================





 Summary of "ao basis" -> "" (spherical)
 ------------------------------------------------------------------------------
       Tag                 Description            Shells   Functions and Types
 ---------------- ------------------------------  ------  ---------------------
 *                          cc-pVTZ                   on all atoms 


                      Basis "ao basis" -> "ao basis" (spherical)
                      -----
  O (Oxygen)
  ----------
            Exponent  Coefficients 
       -------------- ---------------------------------------------------------
  1 S  1.53300000E+04  0.000508
  1 S  2.29900000E+03  0.003929
  1 S  5.22400000E+02  0.020243
  1 S  1.47300000E+02  0.079181
  1 S  4.75500000E+01  0.230687
  1 S  1.67600000E+01  0.433118
  1 S  6.20700000E+00  0.350260
  1 S  6.88200000E-01 -0.008154
 
  2 S  1.53300000E+04 -0.000115
  2 S  2.29900000E+03 -0.000895
  2 S  5.22400000E+02 -0.004636
  2 S  1.47300000E+02 -0.018724
  2 S  4.75500000E+01 -0.058463
  2 S  1.67600000E+01 -0.136463
  2 S  6.20700000E+00 -0.175740
  2 S  6.88200000E-01  0.603418
 
  3 S  1.75200000E+00  1.000000
 
  4 S  2.38400000E-01  1.000000
 
  5 P  3.44600000E+01  0.015928
  5 P  7.74900000E+00  0.099740
  5 P  2.28000000E+00  0.310492
 
  6 P  7.15600000E-01  1.000000
 
  7 P  2.14000000E-01  1.000000
 
  8 D  2.31400000E+00  1.000000
 
  9 D  6.45000000E-01  1.000000
 
 10 F  1.42800000E+00  1.000000
 
  H1 (Hydrogen)
  -------------
            Exponent  Coefficients 
       -------------- ---------------------------------------------------------
  1 S  3.38700000E+01  0.006068
  1 S  5.09500000E+00  0.045308
  1 S  1.15900000E+00  0.202822
 
  2 S  3.25800000E-01  1.000000
 
  3 S  1.02700000E-01  1.000000
 
  4 P  1.40700000E+00  1.000000
 
  5 P  3.88000000E-01  1.000000
 
  6 D  1.05700000E+00  1.000000
 
  H2 (Hydrogen)
  -------------
            Exponent  Coefficients 
       -------------- ---------------------------------------------------------
  1 S  3.38700000E+01  0.006068
  1 S  5.09500000E+00  0.045308
  1 S  1.15900000E+00  0.202822
 
  2 S  3.25800000E-01  1.000000
 
  3 S  1.02700000E-01  1.000000
 
  4 P  1.40700000E+00  1.000000
 
  5 P  3.88000000E-01  1.000000
 
  6 D  1.05700000E+00  1.000000
 


 Summary of "ao basis" -> "ao basis" (spherical)
 ------------------------------------------------------------------------------
       Tag                 Description            Shells   Functions and Types
 ---------------- ------------------------------  ------  ---------------------
 O                          cc-pVTZ                 10       30   4s3p2d1f
 H1                         cc-pVTZ                  6       14   3s2p1d
 H2                         cc-pVTZ                  6       14   3s2p1d


                                 NWChem SCF Module
                                 -----------------
 
 
                                        H2O
 
 

  ao basis        = "ao basis"
  functions       =    58
  atoms           =     3
  closed shells   =     5
  open shells     =     0
  charge          =   0.00
  wavefunction    = RHF 
  input vectors   = atomic
  output vectors  = ./H2O.movecs
  use symmetry    = F
  symmetry adapt  = F


 Summary of "ao basis" -> "ao basis" (spherical)
 ------------------------------------------------------------------------------
       Tag                 Description            Shells   Functions and Types
 ---------------- ------------------------------  ------  ---------------------
 O                          cc-pVTZ                 10       30   4s3p2d1f
 H1                         cc-pVTZ                  6       14   3s2p1d
 H2                         cc-pVTZ                  6       14   3s2p1d



 Forming initial guess at       0.3s

 
      Superposition of Atomic Density Guess
      -------------------------------------
 
 Sum of atomic energies:         -75.78028790
 
      Non-variational initial energy
      ------------------------------

 Total energy =     -75.913424
 1-e energy   =    -121.497968
 2-e energy   =      36.553769
 HOMO         =      -0.472320
 LUMO         =       0.062293
 

 Starting SCF solution at       0.4s



 ----------------------------------------------
         Quadratically convergent ROHF

 Convergence threshold     :          1.000E-04
 Maximum no. of iterations :           30
 Final Fock-matrix accuracy:          1.000E-07
 ----------------------------------------------


              iter       energy          gnorm     gmax       time
             ----- ------------------- --------- --------- --------
                 1      -76.0193811930  8.48D-01  2.94D-01      0.5
                 2      -76.0526627626  1.97D-01  6.25D-02      0.8
                 3      -76.0549107451  1.67D-02  6.69D-03      1.1
                 4      -76.0549364834  7.44D-05  3.25D-05      1.7


       Final RHF  results 
       ------------------ 

         Total SCF energy =    -76.054936483420
      One-electron energy =   -122.816639320543
      Two-electron energy =     37.730928316177
 Nuclear repulsion energy =      9.030774520946

        Time for solution =      1.3s


             Final eigenvalues
             -----------------

              1      
    1  -20.5597
    2   -1.3390
    3   -0.6934
    4   -0.5811
    5   -0.5042
    6    0.1397
    7    0.2030
    8    0.5310
    9    0.6033
   10    0.6696
   11    0.7812
   12    0.7863
   13    0.8072
   14    0.8648
   15    0.9391
 
                       ROHF Final Molecular Orbital Analysis
                       -------------------------------------
 
 Vector    2  Occ=2.000000D+00  E=-1.339003D+00
              MO Center=  3.7D-02, -1.9D-16,  3.1D-02, r^2= 5.0D-01
   Bfn.  Coefficient  Atom+Function         Bfn.  Coefficient  Atom+Function  
  ----- ------------  ---------------      ----- ------------  ---------------
     2      0.505727  1 O  s                  4      0.286822  1 O  s          
 
 Vector    3  Occ=2.000000D+00  E=-6.933791D-01
              MO Center=  7.6D-02,  2.0D-16,  6.3D-02, r^2= 7.8D-01
   Bfn.  Coefficient  Atom+Function         Bfn.  Coefficient  Atom+Function  
  ----- ------------  ---------------      ----- ------------  ---------------
    10      0.264918  1 O  pz                 7      0.217630  1 O  pz         
     8     -0.218187  1 O  px                32      0.217679  2 H  s          
    46     -0.217679  3 H  s                  5     -0.179241  1 O  px         
 
 Vector    4  Occ=2.000000D+00  E=-5.811087D-01
              MO Center= -1.2D-01, -1.4D-16, -9.6D-02, r^2= 7.1D-01
   Bfn.  Coefficient  Atom+Function         Bfn.  Coefficient  Atom+Function  
  ----- ------------  ---------------      ----- ------------  ---------------
     8     -0.292267  1 O  px                 4      0.280623  1 O  s          
    10     -0.240713  1 O  pz                 5     -0.238866  1 O  px         
    11     -0.209315  1 O  px                 7     -0.196731  1 O  pz         
     2      0.181801  1 O  s                 13     -0.172393  1 O  pz         
 
 Vector    5  Occ=2.000000D+00  E=-5.042123D-01
              MO Center= -6.9D-02,  3.7D-16, -5.7D-02, r^2= 6.3D-01
   Bfn.  Coefficient  Atom+Function         Bfn.  Coefficient  Atom+Function  
  ----- ------------  ---------------      ----- ------------  ---------------
     9      0.444966  1 O  py                12      0.375761  1 O  py         
     6      0.357672  1 O  py         
 
 Vector    6  Occ=0.000000D+00  E= 1.396571D-01
              MO Center=  5.1D-01, -9.8D-17,  4.2D-01, r^2= 3.7D+00
   Bfn.  Coefficient  Atom+Function         Bfn.  Coefficient  Atom+Function  
  ----- ------------  ---------------      ----- ------------  ---------------
     4      1.462562  1 O  s                 33     -0.907732  2 H  s          
    47     -0.907732  3 H  s                 11      0.353236  1 O  px         
    13      0.290927  1 O  pz                32     -0.246962  2 H  s          
    46     -0.246962  3 H  s                 39      0.166454  2 H  pz         
    51      0.163681  3 H  px                 8      0.150830  1 O  px         
 
 Vector    7  Occ=0.000000D+00  E= 2.029914D-01
              MO Center=  5.5D-01, -6.3D-16,  4.6D-01, r^2= 4.6D+00
   Bfn.  Coefficient  Atom+Function         Bfn.  Coefficient  Atom+Function  
  ----- ------------  ---------------      ----- ------------  ---------------
    33      1.749951  2 H  s                 47     -1.749951  3 H  s          
    13     -0.629261  1 O  pz                11      0.518261  1 O  px         
    39     -0.163714  2 H  pz                51      0.160246  3 H  px         
    10     -0.155810  1 O  pz         
 
 Vector    8  Occ=0.000000D+00  E= 5.309882D-01
              MO Center=  5.9D-02,  5.6D-17,  4.9D-02, r^2= 2.3D+00
   Bfn.  Coefficient  Atom+Function         Bfn.  Coefficient  Atom+Function  
  ----- ------------  ---------------      ----- ------------  ---------------
    32      1.465787  2 H  s                 46     -1.465787  3 H  s          
    13     -0.860074  1 O  pz                11      0.708361  1 O  px         
    33     -0.668610  2 H  s                 47      0.668610  3 H  s          
    10     -0.197879  1 O  pz                 8      0.162974  1 O  px         
 
 Vector    9  Occ=0.000000D+00  E= 6.033480D-01
              MO Center=  4.3D-01, -2.5D-16,  3.6D-01, r^2= 2.1D+00
   Bfn.  Coefficient  Atom+Function         Bfn.  Coefficient  Atom+Function  
  ----- ------------  ---------------      ----- ------------  ---------------
    32      1.337636  2 H  s                 46      1.337636  3 H  s          
    33     -0.631972  2 H  s                 47     -0.631972  3 H  s          
    11     -0.457796  1 O  px                 4     -0.453405  1 O  s          
    13     -0.377043  1 O  pz                 2     -0.201495  1 O  s          
    39      0.179574  2 H  pz                53     -0.178967  3 H  pz         
 
 Vector   10  Occ=0.000000D+00  E= 6.695561D-01
              MO Center= -3.1D-01,  6.5D-16, -2.6D-01, r^2= 2.3D+00
   Bfn.  Coefficient  Atom+Function         Bfn.  Coefficient  Atom+Function  
  ----- ------------  ---------------      ----- ------------  ---------------
     4      4.395450  1 O  s                 32     -2.247376  2 H  s          
    46     -2.247376  3 H  s                 11      2.062444  1 O  px         
    13      1.698637  1 O  pz                39      1.089280  2 H  pz         
    51      1.059933  3 H  px                33     -0.423364  2 H  s          
    47     -0.423364  3 H  s                 53     -0.255644  3 H  pz         
 
 Vector   11  Occ=0.000000D+00  E= 7.812066D-01
              MO Center=  1.8D-01, -2.9D-16,  1.4D-01, r^2= 2.0D+00
   Bfn.  Coefficient  Atom+Function         Bfn.  Coefficient  Atom+Function  
  ----- ------------  ---------------      ----- ------------  ---------------
    11      1.014998  1 O  px                32     -0.944201  2 H  s          
    46     -0.944201  3 H  s                 37     -0.840922  2 H  px         
    13      0.835956  1 O  pz                53     -0.836018  3 H  pz         
     4      0.790738  1 O  s                 33      0.212499  2 H  s          
    47      0.212499  3 H  s          
 
 Vector   12  Occ=0.000000D+00  E= 7.863386D-01
              MO Center= -5.0D-02, -7.5D-16, -4.1D-02, r^2= 1.7D+00
   Bfn.  Coefficient  Atom+Function         Bfn.  Coefficient  Atom+Function  
  ----- ------------  ---------------      ----- ------------  ---------------
    12      1.119309  1 O  py                 9     -0.774199  1 O  py         
     6     -0.259476  1 O  py         
 
 Vector   13  Occ=0.000000D+00  E= 8.071915D-01
              MO Center= -7.4D-02,  5.6D-16, -6.1D-02, r^2= 3.0D+00
   Bfn.  Coefficient  Atom+Function         Bfn.  Coefficient  Atom+Function  
  ----- ------------  ---------------      ----- ------------  ---------------
    13      2.239371  1 O  pz                11     -1.844355  1 O  px         
    32     -1.588821  2 H  s                 46      1.588821  3 H  s          
    33     -1.438053  2 H  s                 47      1.438053  3 H  s          
    39      1.171039  2 H  pz                51     -1.153374  3 H  px         
    21      0.396652  1 O  d  0              23     -0.229007  1 O  d  2       
 
 Vector   14  Occ=0.000000D+00  E= 8.647617D-01
              MO Center=  3.7D-01,  8.6D-16,  3.1D-01, r^2= 1.7D+00
   Bfn.  Coefficient  Atom+Function         Bfn.  Coefficient  Atom+Function  
  ----- ------------  ---------------      ----- ------------  ---------------
    38      0.843545  2 H  py                52     -0.843545  3 H  py         
 
 Vector   15  Occ=0.000000D+00  E= 9.391051D-01
              MO Center=  1.7D-01,  3.0D-16,  1.4D-01, r^2= 2.0D+00
   Bfn.  Coefficient  Atom+Function         Bfn.  Coefficient  Atom+Function  
  ----- ------------  ---------------      ----- ------------  ---------------
    12      1.159856  1 O  py                38     -0.982268  2 H  py         
    52     -0.982268  3 H  py         
 

 center of mass
 --------------
 x =  -0.07968485 y =   0.00000000 z =  -0.06562875

 moments of inertia (a.u.)
 ------------------
           3.425478951748           0.000000000000           0.796306342281
           0.000000000000           6.539942783288           0.000000000000
           0.796306342281           0.000000000000           3.114463831540
 
  Mulliken analysis of the total density
  --------------------------------------

    Atom       Charge   Shell Charges
 -----------   ------   -------------------------------------------------------
    1 O    8     8.49   1.95  1.00  0.23  0.61  1.25  2.14  1.29  0.00  0.02  0.00
    2 H    1     0.76   0.25  0.38  0.04  0.02  0.06  0.01
    3 H    1     0.76   0.25  0.38  0.04  0.02  0.06  0.01
 
       Multipole analysis of the density wrt the origin
       ------------------------------------------------
 
     L   x y z        total         open         nuclear
     -   - - -        -----         ----         -------
     0   0 0 0     -0.000000      0.000000     10.000000
 
     1   1 0 0      0.636017      0.000000      0.000000
     1   0 1 0     -0.000000      0.000000      0.000000
     1   0 0 1      0.523826      0.000000      0.000000
 
     2   2 0 0     -3.924983      0.000000      2.946111
     2   1 1 0     -0.000000      0.000000      0.000000
     2   1 0 1     -0.614260      0.000000     -0.908864
     2   0 2 0     -5.450749      0.000000      0.000000
     2   0 1 1      0.000000      0.000000      0.000000
     2   0 0 2     -3.685070      0.000000      3.301088
 
                   NWChem Extensible Many-Electron Theory Module
                   ---------------------------------------------
 
              ======================================================
                   This portion of the program was automatically
                  generated by a Tensor Contraction Engine (TCE).
                  The development of this portion of the program
                 and TCE was supported by US Department of Energy,
                Office of Science, Office of Basic Energy Science.
                      TCE is a product of Battelle and PNNL.
              Please cite: S.Hirata, J.Phys.Chem.A 107, 9887 (2003).
              ======================================================
 
                                        H2O
 
 
            General Information
            -------------------
      Number of processors :     1
         Wavefunction type : Restricted Hartree-Fock
          No. of electrons :    10
           Alpha electrons :     5
            Beta electrons :     5
           No. of orbitals :   116
            Alpha orbitals :    58
             Beta orbitals :    58
        Alpha frozen cores :     0
         Beta frozen cores :     0
     Alpha frozen virtuals :     0
      Beta frozen virtuals :     0
         Spin multiplicity : singlet 
    Number of AO functions :    58
       Number of AO shells :    22
        Use of symmetry is : off
      Symmetry adaption is : off
         Schwarz screening : 0.10D-09
 
          Correlation Information
          -----------------------
          Calculation type : Coupled-cluster singles & doubles                           
   Perturbative correction : none                                                        
            Max iterations :      300
        Residual threshold : 0.10D-06
     T(0) DIIS level shift : 0.00D+00
     L(0) DIIS level shift : 0.00D+00
     T(1) DIIS level shift : 0.00D+00
     L(1) DIIS level shift : 0.00D+00
     T(R) DIIS level shift : 0.00D+00
     T(I) DIIS level shift : 0.00D+00
   CC-T/L Amplitude update :  5-th order DIIS
                I/O scheme : Global Array Library
        L-threshold :  0.10D-06
        EOM-threshold :  0.10D-06
 no EOMCCSD initial starts read in
 TCE RESTART OPTIONS
 READ_INT:   F
 WRITE_INT:  F
 READ_TA:    F
 WRITE_TA:   F
 READ_XA:    F
 WRITE_XA:   F
 READ_IN3:   F
 WRITE_IN3:  F
 SLICE:      F
 D4D5:       F
 quantumc:   F
 qrotation:  F
 pwtce:      F
 qducc:      T
 nacto:                          0
 nrotv:                          0
 nrot:                           0
 
            Memory Information
            ------------------
          Available GA space size is    1610609372 doubles
          Available MA space size is    1610609756 doubles
 
 Maximum block size        32 doubles

 tile_dim =     27

 Block   Spin    Irrep     Size     Offset   Alpha
 -------------------------------------------------
   1    alpha     a      5 doubles       0       1
   2    beta      a      5 doubles       5       1
   3    alpha     a     26 doubles      10       3
   4    alpha     a     27 doubles      36       4
   5    beta      a     26 doubles      63       3
   6    beta      a     27 doubles      89       4

 Global array virtual files algorithm will be used

 Parallel file system coherency ......... OK
 
 Fock matrix recomputed
 1-e file size   =             3364
 1-e file name   = ./H2O.f1
 Cpu & wall time / sec            0.1            0.1
 4-electron integrals stored in orbital form
 
 v2    file size   =          3631290
 4-index algorithm nr.  13 is used
 imaxsize =       30
 imaxsize ichop =        0
 Cpu & wall time / sec            1.3            1.3
 T1-number-of-tasks                     2
 
 t1 file size   =              265
 t1 file name   = ./H2O.t1
 t1 file handle =       -998
 T2-number-of-boxes                     7
 
 t2 file size   =           122900
 t2 file name   = ./H2O.t2
 t2 file handle =       -996
CCSD iterations
 ---------------------------------------------------------
 Iter          Residuum       Correlation     Cpu    Wall 
 ---------------------------------------------------------
NEW TASK SCHEDULING
CCSD_T1_NTS --- OK
CCSD_T2_NTS --- OK
    1   0.1393928550308  -0.2766180861076     0.2     0.2
    2   0.0307098802214  -0.2775885551847     0.2     0.2
    3   0.0104586868821  -0.2813855376768     0.2     0.2
    4   0.0041572651250  -0.2818103443907     0.2     0.2
    5   0.0017313238788  -0.2820815054642     0.2     0.2
 MICROCYCLE DIIS UPDATE:                     5                     5
    6   0.0003467766430  -0.2822066198326     0.2     0.2
    7   0.0001356189543  -0.2822191562807     0.2     0.2
    8   0.0000517672868  -0.2822185197568     0.2     0.2
    9   0.0000284524812  -0.2822187208522     0.2     0.2
   10   0.0000138650637  -0.2822190002202     0.2     0.2
 MICROCYCLE DIIS UPDATE:                    10                     5
   11   0.0000028635378  -0.2822194817542     0.2     0.2
   12   0.0000013068345  -0.2822192972370     0.2     0.2
   13   0.0000006232979  -0.2822193221653     0.2     0.2
   14   0.0000003660688  -0.2822193118497     0.2     0.2
   15   0.0000001988081  -0.2822193109953     0.2     0.2
 MICROCYCLE DIIS UPDATE:                    15                     5
   16   0.0000000301243  -0.2822193067774     0.2     0.2
 -----------------------------------------------------------------
 Iterations converged
 CCSD correlation energy / hartree =        -0.282219306777402
 CCSD total energy / hartree       =       -76.337155790197173

 Singles contributions

 Doubles contributions
     7a   (alpha)     7a   (beta ) ---     3a   (alpha)     3a   (beta )       -0.0211896282
     8a   (alpha)     8a   (beta ) ---     3a   (alpha)     3a   (beta )       -0.0286065705
     8a   (alpha)     8a   (beta ) ---     4a   (alpha)     4a   (beta )       -0.0227660036
     9a   (alpha)     9a   (beta ) ---     3a   (alpha)     3a   (beta )       -0.0252308995
    10a   (alpha)    10a   (beta ) ---     4a   (alpha)     4a   (beta )       -0.0290536120
    10a   (alpha)    12a   (beta ) ---     4a   (alpha)     5a   (beta )        0.0257556238
    12a   (alpha)    10a   (beta ) ---     5a   (alpha)     4a   (beta )        0.0257556238
    12a   (alpha)    12a   (beta ) ---     5a   (alpha)     5a   (beta )       -0.0477679868
    12a   (alpha)    13a   (beta ) ---     5a   (alpha)     3a   (beta )       -0.0222718428
    13a   (alpha)    12a   (beta ) ---     3a   (alpha)     5a   (beta )       -0.0222718428
    13a   (alpha)    13a   (beta ) ---     3a   (alpha)     3a   (beta )       -0.0224663831
 Ground state specification:
 exp(T)|Ref>~(1+T)|Ref>
 ------- a(p)+/a(q) strings ----------

 singles norm

 doubles norm

 Reference string
   1.00000000000000      :(1a)+ (2a)+ (3a)+ (4a)+ (5a)+ (1b)+ (2b)+ (3b)+ (4b)+ 
 (5b)+ |0>

 Singles strings

 Doubles strings
 -------------------------------------
 enrep_tce =    9.03077452094584     
  EHF(total)         =       -76.05493648
  Shift (HFtot-HFA)  =         0.00000000
 ALL OCCUPIED ORBITALS ARE ACTIVE IN DUCC --> NO SHIFT
 Number of active orbitals                     8
 Number of active alpha electrons                     5
 Number of active beta electrons                     5
  nos                     10
  nvs                    106
 noas                      5
 nobs                      5
 nvas                     53
 nvbs                     53
 nactv                      3
 DUCC MODEL =                      6
 NONHF =  T
 F-T1 correlation    =   1.325315657864949E-007
 V-T1-T1 correlation =   3.515959319787641E-005
 V-T2 correlation    =  -0.282254598902176     
 Total correlation   =  -0.282219306777412     
 F-T1(Ext) correlation         =   9.057185160587307E-008
 V-T1(Ext)-T1(Ext) correlation =   3.156747232119551E-005
 V-T2(Ext) correlation         =  -0.274025767706991     
 Total Ext correlation         =  -0.273994109662819     
1-BODY TIME =  277.033 SECONDS.
  HHHH TIME =  275.527 SECONDS.
  PPPP TIME =    2.886 SECONDS.
  HHHP TIME =   25.680 SECONDS.
  PPPH TIME =    6.127 SECONDS.
  HPHP TIME =   21.100 SECONDS.
  HHPP TIME =   13.178 SECONDS.
 ONE-BODY UNITARY CHECK
 TWO-BODY UNITARY CHECK
                     1                     3                     2
                     3 -1.516866493522784E-012
                     1                     3                     3
                     2  2.537390436652132E-012
                     1                     4                     2
                     4 -1.256043880015767E-012
                     1                     4                     4
                     2  1.703900909255651E-012
                     1                     5                     2
                     5 -1.430987273121076E-012
                     1                     5                     5
                     2  1.168912189264404E-012
                     1                     6                     2
                     7  1.009060890400093E-012
                     1                     6                     2
                     9 -2.350713373955315E-012
                     1                     6                     3
                     8  1.500882751415133E-012
                     1                     6                     4
                     6 -1.017380624190878E-012
                     1                     6                     4
                     9  1.023011536593899E-012
                     1                     6                     5
                    10 -1.370254604227128E-012
                     1                     6                     7
                     2 -1.009067829293997E-012
                     1                     6                     7
                     4  2.412368915738483E-012
                     1                     6                     8
                     3 -1.500882751415133E-012
                     1                     6                     9
                     1  1.039834884863922E-012
                     1                     6                     9
                     4 -1.023011536593899E-012
                     1                     6                    10
                     5  1.370254604227128E-012
                     1                     7                     2
                     7 -1.431821675113021E-012
                     1                     7                     5
                    10 -1.950453687449283E-012
                     1                     7                     7
                     2  1.710558777956450E-012
                     1                     7                     9
                     2 -1.200979420079573E-012
                     1                     7                    10
                     5  2.551743538692364E-012
                     1                     8                     2
                     8 -2.965010181821270E-012
                     1                     8                     3
                     7 -1.259936599495859E-012
                     1                     8                     4
                     8  1.286844762693473E-012
                     1                     8                     7
                     3  1.447956338163081E-012
                     1                     8                     8
                     2  3.797504845304278E-012
                     1                     8                     8
                     4 -1.637838302481764E-012
                     1                     8                     9
                     3 -1.293288393044989E-012
                     1                     9                     2
                     9 -2.768748771919682E-012
                     1                     9                     3
                     8  2.447792402798799E-012
                     1                     9                     4
                     9  2.410594293622559E-012
                     1                     9                     7
                     2 -1.700320440001235E-012
                     1                     9                     7
                     4  1.512855812846325E-012
                     1                     9                     8
                     3 -2.577099991740717E-012
                     1                     9                     9
                     2  2.378736096986245E-012
                     1                     9                     9
                     4 -2.028318485391978E-012
                     1                    10                     2
                    10 -2.294647111211745E-012
                     1                    10                     5
                     7 -1.669660937286821E-012
                     1                    10                    10
                     2  2.838696291918019E-012
                     2                     2                     2
                     4 -1.077337850452458E-011
                     2                     2                     4
                     2  1.077336661461722E-011
                     2                     3                     1
                     3  1.516866493522784E-012
                     2                     3                     3
                     4 -3.332006589043535E-011
                     2                     3                     4
                     3  2.943671868760322E-011
                     2                     4                     1
                     4  1.256043880015767E-012
                     2                     4                     2
                     2  1.077337850452458E-011
                     2                     4                     3
                     3 -3.793762447764169E-012
                     2                     4                     4
                     2  1.451394560092467E-012
                     2                     4                     4
                     4 -2.879274387890969E-012
                     2                     5                     1
                     5  1.430987273121076E-012
                     2                     5                     4
                     5  3.120434813319584E-011
                     2                     5                     5
                     2  1.734323795687942E-011
                     2                     5                     5
                     4 -3.834272396113780E-011
                     2                     6                     2
                     7 -1.116514866672524E-012
                     2                     6                     4
                     9 -1.523944165304769E-012
                     2                     6                     5
                    10 -2.428349188399181E-012
                     2                     6                    10
                     5  1.827059337156101E-012
                     2                     7                     1
                     6 -1.009060890400093E-012
                     2                     7                     1
                     7  1.431821675113021E-012
                     2                     7                     2
                     6  1.116514866672524E-012
                     2                     7                     2
                     9 -9.082441396190966E-012
                     2                     7                     3
                     8 -2.105690621867495E-011
                     2                     7                     4
                     7  3.203840664989244E-011
                     2                     7                     4
                     9 -1.376157521271182E-011
                     2                     7                     5
                    10 -3.831172878943079E-011
                     2                     7                     6
                     1  1.009060890400093E-012
                     2                     7                     6
                     2 -1.710537961274738E-012
                     2                     7                     6
                     4  1.700278806637812E-012
                     2                     7                     7
                     4 -1.690921708208393E-012
                     2                     7                     8
                     3  2.105723928558234E-011
                     2                     7                     9
                     2 -2.126504354549308E-011
                     2                     7                     9
                     4  1.376156133492401E-011
                     2                     7                    10
                     5  3.831172878943079E-011
                     2                     8                     1
                     8  2.965010181821270E-012
                     2                     8                     3
                     7 -1.809877248071246E-011
                     2                     8                     3
                     9  2.817617320016730E-011
                     2                     8                     4
                     8  5.756296654613191E-011
                     2                     8                     6
                     3 -1.447942460375273E-012
                     2                     8                     8
                     2  1.755984246898379E-011
                     2                     8                     8
                     4 -6.149635141394771E-011
                     2                     8                     9
                     3 -2.812614030567318E-011
                     2                     9                     1
                     6  2.350713373955315E-012
                     2                     9                     1
                     9  2.768748771919682E-012
                     2                     9                     2
                     7  9.082441396190966E-012
                     2                     9                     3
                     8  4.032224727723577E-011
                     2                     9                     4
                     7 -9.961156899329637E-012
                     2                     9                     4
                     9  8.682884966582094E-011
                     2                     9                     5
                    10  2.346280461584804E-011
                     2                     9                     6
                     1 -2.412327282375060E-012
                     2                     9                     6
                     4 -1.512866221187181E-012
                     2                     9                     7
                     2  1.690935585996201E-012
                     2                     9                     8
                     3 -4.411600425247020E-011
                     2                     9                     9
                     2  1.141176042551706E-011
                     2                     9                     9
                     4 -8.970782450212766E-011
                     2                     9                    10
                     5 -2.406066665350259E-011
                     2                    10                     1
                    10  2.294647111211745E-012
                     2                    10                     4
                    10  4.152907878696155E-011
                     2                    10                     5
                     6 -1.108904634783414E-012
                     2                    10                     5
                     7 -3.114039581753048E-011
                     2                    10                     5
                     9  1.868801294269140E-011
                     2                    10                     9
                     5 -1.032460922312239E-011
                     2                    10                    10
                     2  4.848288437386827E-011
                     2                    10                    10
                     4 -5.703080369068303E-011
                     3                     1                     3
                     2 -1.760591672450573E-012
                     3                     1                     3
                     4  1.493359255699822E-012
                     3                     2                     1
                     3 -2.537390436652132E-012
                     3                     2                     3
                     1  1.760591672450573E-012
                     3                     2                     3
                     4  2.179415502234772E-012
                     3                     2                     4
                     3  1.703931700597350E-012
                     3                     3                     2
                     4  3.793762447764169E-012
                     3                     3                     4
                     2 -3.793761908310061E-012
                     3                     4                     2
                     3  3.332006589043535E-011
                     3                     4                     3
                     1 -1.493359255699822E-012
                     3                     4                     3
                     2 -2.179415502234772E-012
                     3                     4                     4
                     3  2.043676339269496E-011
                     3                     5                     5
                     3  5.245415213295246E-011
                     3                     6                     3
                     7 -1.195620859262281E-012
                     3                     6                     3
                     9  1.477372911506958E-012
                     3                     6                     9
                     3 -1.126379371718667E-012
                     3                     7                     1
                     8  1.259936599495859E-012
                     3                     7                     2
                     8  1.809877248071246E-011
                     3                     7                     3
                     6  1.195620859262281E-012
                     3                     7                     4
                     8 -2.542310112430002E-012
                     3                     7                     6
                     3 -3.797515253645134E-012
                     3                     7                     7
                     3 -1.755984246898379E-011
                     3                     7                     8
                     4  2.492280687382831E-012
                     3                     7                     9
                     3  4.246164184151802E-012
                     3                     8                     1
                     6 -1.500882751415133E-012
                     3                     8                     1
                     9 -2.447792402798799E-012
                     3                     8                     2
                     7  2.105690621867495E-011
                     3                     8                     2
                     9 -4.032224727723577E-011
                     3                     8                     4
                     6 -1.743194998071740E-012
                     3                     8                     4
                     7 -1.608714030043590E-011
                     3                     8                     5
                    10 -2.261602710662558E-011
                     3                     8                     6
                     1  1.500861934733422E-012
                     3                     8                     6
                     4  2.577099991740717E-012
                     3                     8                     7
                     2 -2.105707275212865E-011
                     3                     8                     7
                     4  4.411592098574335E-011
                     3                     8                     9
                     1  1.613888710172429E-012
                     3                     8                     9
                     2  1.229346832665179E-011
                     3                     8                    10
                     5  2.261604792330729E-011
                     3                     9                     2
                     8 -2.817617320016730E-011
                     3                     9                     3
                     6 -1.477372911506958E-012
                     3                     9                     4
                     8  3.751755850434080E-012
                     3                     9                     6
                     3  1.637844374013930E-012
                     3                     9                     7
                     3  6.149637743479985E-011
                     3                     9                     8
                     2 -2.492313647128874E-012
                     3                     9                     9
                     3  1.668476468097424E-011
                     3                    10                     5
                     8 -2.288066264233279E-011
                     3                    10                    10
                     3  7.533507151435970E-011
                     4                     2                     1
                     4 -1.703900909255651E-012
                     4                     2                     2
                     2 -1.077336661461722E-011
                     4                     2                     2
                     4 -1.451394560092467E-012
                     4                     2                     3
                     3  3.793761908310061E-012
                     4                     2                     4
                     4  2.879282313392968E-012
                     4                     3                     2
                     3 -2.943671868760322E-011
                     4                     3                     3
                     2 -1.703931700597350E-012
                     4                     3                     3
                     4 -2.043676339269496E-011
                     4                     4                     2
                     4  2.879274387890969E-012
                     4                     4                     4
                     2 -2.879282313392968E-012
                     4                     5                     2
                     5 -3.120434813319584E-011
                     4                     5                     5
                     2 -1.152129260051371E-011
                     4                     5                     5
                     4  3.666478232133841E-011
                     4                     6                     1
                     6  1.017380624190878E-012
                     4                     6                     3
                     8  1.743194998071740E-012
                     4                     6                     6
                     1 -1.039890396015153E-012
                     4                     6                     8
                     3 -1.613887409129822E-012
                     4                     6                     9
                     4 -1.025899851181400E-012
                     4                     6                    10
                     5 -1.096961063651314E-012
                     4                     7                     2
                     7 -3.203840664989244E-011
                     4                     7                     2
                     9  9.961156899329637E-012
                     4                     7                     3
                     8  1.608714030043590E-011
                     4                     7                     4
                     9 -5.564770866328672E-012
                     4                     7                     5
                    10  2.489394107518805E-012
                     4                     7                     6
                     2  1.200987226335215E-012
                     4                     7                     6
                     4 -2.378769056732288E-012
                     4                     7                     7
                     2  2.126502966770527E-011
                     4                     7                     7
                     4 -1.141176042551706E-011
                     4                     7                     8
                     3 -1.229338332520147E-011
                     4                     7                     9
                     4  8.444217547420863E-012
                     4                     7                    10
                     5 -1.891532069864255E-012
                     4                     8                     1
                     8 -1.286844762693473E-012
                     4                     8                     2
                     8 -5.756296654613191E-011
                     4                     8                     3
                     7  2.542310112430002E-012
                     4                     8                     3
                     9 -3.751755850434080E-012
                     4                     8                     6
                     3  1.293281887831954E-012
                     4                     8                     7
                     3  2.812617326541922E-011
                     4                     8                     8
                     1  1.126373300186501E-012
                     4                     8                     8
                     2 -4.246176327216133E-012
                     4                     8                     8
                     4 -1.668476468097424E-011
                     4                     9                     1
                     6 -1.023011536593899E-012
                     4                     9                     1
                     9 -2.410594293622559E-012
                     4                     9                     2
                     6  1.523944165304769E-012
                     4                     9                     2
                     7  1.376157521271182E-011
                     4                     9                     2
                     9 -8.682884966582094E-011
                     4                     9                     4
                     7  5.564770866328672E-012
                     4                     9                     5
                    10 -3.244503277155530E-011
                     4                     9                     6
                     1  1.023011536593899E-012
                     4                     9                     6
                     4  2.028342771520641E-012
                     4                     9                     7
                     2 -1.376156133492401E-011
                     4                     9                     7
                     4  8.970835185806436E-011
                     4                     9                     9
                     1  1.025865156711880E-012
                     4                     9                     9
                     2 -8.444162036269631E-012
                     4                     9                    10
                     5  3.244488011588942E-011
                     4                    10                     2
                    10 -4.152907878696155E-011
                     4                    10                     5
                     7  3.998149034067922E-012
                     4                    10                     5
                     9 -1.472083566156357E-011
                     4                    10                     7
                     5  1.032460575367544E-011
                     4                    10                    10
                     2 -1.551923173304104E-011
                     4                    10                    10
                     4  5.138522940484336E-011
                     5                     2                     1
                     5 -1.168912189264404E-012
                     5                     2                     2
                     5 -1.734323795687942E-011
                     5                     2                     4
                     5  1.152129260051371E-011
                     5                     2                     5
                     4 -4.382928048274337E-012
                     5                     3                     3
                     5 -5.245415213295246E-011
                     5                     4                     2
                     5  3.834272396113780E-011
                     5                     4                     4
                     5 -3.666478232133841E-011
                     5                     4                     5
                     2  4.382928048274337E-012
                     5                     6                     2
                    10  1.108904634783414E-012
                     5                     6                     5
                     9 -1.113998650270620E-012
                     5                     7                     1
                    10  1.669660937286821E-012
                     5                     7                     2
                    10  3.114039581753048E-011
                     5                     7                     4
                    10 -3.998149034067922E-012
                     5                     7                     6
                     5 -2.838698026641495E-012
                     5                     7                     7
                     5 -4.848288437386827E-011
                     5                     7                     9
                     5  1.551915540520810E-011
                     5                     7                    10
                     4 -4.365254685501085E-012
                     5                     8                     3
                    10  2.288066264233279E-011
                     5                     8                     8
                     5 -7.533507151435970E-011
                     5                     9                     2
                    10 -1.868801294269140E-011
                     5                     9                     4
                    10  1.472083566156357E-011
                     5                     9                     5
                     6  1.113998650270620E-012
                     5                     9                     7
                     5  5.703087307962207E-011
                     5                     9                     9
                     5 -5.138522940484336E-011
                     5                     9                    10
                     2  4.365261624394989E-012
                     5                    10                     1
                     6  1.370254604227128E-012
                     5                    10                     1
                     7  1.950453687449283E-012
                     5                    10                     2
                     6  2.428349188399181E-012
                     5                    10                     2
                     7  3.831172878943079E-011
                     5                    10                     2
                     9 -2.346280461584804E-011
                     5                    10                     3
                     8  2.261602710662558E-011
                     5                    10                     4
                     7 -2.489394107518805E-012
                     5                    10                     4
                     9  3.244503277155530E-011
                     5                    10                     6
                     1 -1.370254604227128E-012
                     5                    10                     6
                     2 -2.551694966435036E-012
                     5                    10                     7
                     1 -1.827107909413428E-012
                     5                    10                     7
                     2 -3.831172878943079E-011
                     5                    10                     7
                     4  2.406067359239650E-011
                     5                    10                     8
                     3 -2.261600282049692E-011
                     5                    10                     9
                     1  1.097002697014737E-012
                     5                    10                     9
                     2  1.891532069864255E-012
                     5                    10                     9
                     4 -3.244499113819188E-011
                     6                     1                     2
                     7 -1.009060890400093E-012
                     6                     1                     2
                     9  2.412327282375060E-012
                     6                     1                     3
                     8 -1.500861934733422E-012
                     6                     1                     4
                     6  1.039890396015153E-012
                     6                     1                     4
                     9 -1.023011536593899E-012
                     6                     1                     5
                    10  1.370254604227128E-012
                     6                     1                     7
                     2  1.009067829293997E-012
                     6                     1                     7
                     4 -2.350755007318739E-012
                     6                     1                     8
                     3  1.500861934733422E-012
                     6                     1                     9
                     1 -1.017325113039647E-012
                     6                     1                     9
                     4  1.023011536593899E-012
                     6                     1                    10
                     5 -1.370254604227128E-012
                     6                     2                     2
                     7  1.710537961274738E-012
                     6                     2                     4
                     7 -1.200987226335215E-012
                     6                     2                     5
                    10  2.551694966435036E-012
                     6                     2                     7
                     2 -1.431800858431309E-012
                     6                     2                    10
                     5 -1.950405115191955E-012
                     6                     3                     2
                     8  1.447942460375273E-012
                     6                     3                     3
                     7  3.797515253645134E-012
                     6                     3                     3
                     9 -1.637844374013930E-012
                     6                     3                     4
                     8 -1.293281887831954E-012
                     6                     3                     7
                     3 -2.965020590162126E-012
                     6                     3                     8
                     2 -1.259926191155003E-012
                     6                     3                     9
                     3  1.286850834225639E-012
                     6                     4                     2
                     7 -1.700278806637812E-012
                     6                     4                     2
                     9  1.512866221187181E-012
                     6                     4                     3
                     8 -2.577099991740717E-012
                     6                     4                     4
                     7  2.378769056732288E-012
                     6                     4                     4
                     9 -2.028342771520641E-012
                     6                     4                     7
                     4 -2.768788670559630E-012
                     6                     4                     8
                     3  2.447792836479667E-012
                     6                     4                     9
                     4  2.410611640857319E-012
                     6                     5                     5
                     7  2.838698026641495E-012
                     6                     5                     7
                     5 -2.294650580658697E-012
                     6                     5                    10
                     2 -1.669653998392917E-012
                     6                     8                     7
                     8 -1.516866493522784E-012
                     6                     8                     8
                     7  2.537390436652132E-012
                     6                     9                     7
                     9 -1.256043880015767E-012
                     6                     9                     9
                     7  1.703900909255651E-012
                     6                    10                     7
                    10 -1.430987273121076E-012
                     6                    10                    10
                     7  1.168912189264404E-012
                     7                     1                     5
                    10  1.827107909413428E-012
                     7                     1                     7
                     2 -1.116535683354236E-012
                     7                     1                     9
                     4 -1.523940695857817E-012
                     7                     1                    10
                     5 -2.428397760656509E-012
                     7                     2                     1
                     6  1.009067829293997E-012
                     7                     2                     1
                     7 -1.710558777956450E-012
                     7                     2                     1
                     9  1.700320440001235E-012
                     7                     2                     2
                     9 -1.690935585996201E-012
                     7                     2                     3
                     8  2.105707275212865E-011
                     7                     2                     4
                     7 -2.126502966770527E-011
                     7                     2                     4
                     9  1.376156133492401E-011
                     7                     2                     5
                    10  3.831172878943079E-011
                     7                     2                     6
                     1 -1.009067829293997E-012
                     7                     2                     6
                     2  1.431800858431309E-012
                     7                     2                     7
                     1  1.116535683354236E-012
                     7                     2                     7
                     4 -9.082455273978773E-012
                     7                     2                     8
                     3 -2.105740581903603E-011
                     7                     2                     9
                     2  3.203842399712720E-011
                     7                     2                     9
                     4 -1.376154745713620E-011
                     7                     2                    10
                     5 -3.831172878943079E-011
                     7                     3                     1
                     8 -1.447956338163081E-012
                     7                     3                     3
                     7  1.755984246898379E-011
                     7                     3                     3
                     9 -6.149637743479985E-011
                     7                     3                     4
                     8 -2.812617326541922E-011
                     7                     3                     6
                     3  2.965020590162126E-012
                     7                     3                     8
                     2 -1.809860594725876E-011
                     7                     3                     8
                     4  2.817620615991334E-011
                     7                     3                     9
                     3  5.756301338366576E-011
                     7                     4                     1
                     6 -2.412368915738483E-012
                     7                     4                     1
                     9 -1.512855812846325E-012
                     7                     4                     2
                     7  1.690921708208393E-012
                     7                     4                     3
                     8 -4.411592098574335E-011
                     7                     4                     4
                     7  1.141176042551706E-011
                     7                     4                     4
                     9 -8.970835185806436E-011
                     7                     4                     5
                    10 -2.406067359239650E-011
                     7                     4                     6
                     1  2.350755007318739E-012
                     7                     4                     6
                     4  2.768788670559630E-012
                     7                     4                     7
                     2  9.082455273978773E-012
                     7                     4                     8
                     3  4.032216401050892E-011
                     7                     4                     9
                     2 -9.961129143754022E-012
                     7                     4                     9
                     4  8.682897456591121E-011
                     7                     4                    10
                     5  2.346281849363585E-011
                     7                     5                     4
                    10 -1.032460575367544E-011
                     7                     5                     5
                     7  4.848288437386827E-011
                     7                     5                     5
                     9 -5.703087307962207E-011
                     7                     5                     6
                     5  2.294650580658697E-012
                     7                     5                     9
                     5  4.152915511479449E-011
                     7                     5                    10
                     1 -1.108894226442558E-012
                     7                     5                    10
                     2 -3.114025703965240E-011
                     7                     5                    10
                     4  1.868800253435055E-011
                     7                     7                     7
                     9 -1.077337935153188E-011
                     7                     7                     9
                     7  1.077336672642639E-011
                     7                     8                     6
                     8  1.516866493522784E-012
                     7                     8                     8
                     9 -3.332007456405273E-011
                     7                     8                     9
                     8  2.943671304975193E-011
                     7                     9                     6
                     9  1.256043880015767E-012
                     7                     9                     7
                     7  1.077337935153188E-011
                     7                     9                     8
                     8 -3.793763555671270E-012
                     7                     9                     9
                     7  1.451394560092467E-012
                     7                     9                     9
                     9 -2.879266962717849E-012
                     7                    10                     6
                    10  1.430987273121076E-012
                     7                    10                     9
                    10  3.120434379638715E-011
                     7                    10                    10
                     7  1.734323795687942E-011
                     7                    10                    10
                     9 -3.834271702224390E-011
                     8                     1                     4
                     8 -1.126373300186501E-012
                     8                     1                     8
                     2 -1.195610450921425E-012
                     8                     1                     8
                     4  1.477366839974792E-012
                     8                     2                     1
                     8 -3.797504845304278E-012
                     8                     2                     2
                     8 -1.755984246898379E-011
                     8                     2                     3
                     9  2.492313647128874E-012
                     8                     2                     4
                     8  4.246176327216133E-012
                     8                     2                     6
                     3  1.259926191155003E-012
                     8                     2                     7
                     3  1.809860594725876E-011
                     8                     2                     8
                     1  1.195610450921425E-012
                     8                     2                     9
                     3 -2.542346541622997E-012
                     8                     3                     1
                     6  1.500882751415133E-012
                     8                     3                     1
                     9  2.577099991740717E-012
                     8                     3                     2
                     7 -2.105723928558234E-011
                     8                     3                     2
                     9  4.411600425247020E-011
                     8                     3                     4
                     6  1.613887409129822E-012
                     8                     3                     4
                     7  1.229338332520147E-011
                     8                     3                     5
                    10  2.261600282049692E-011
                     8                     3                     6
                     1 -1.500861934733422E-012
                     8                     3                     6
                     4 -2.447792836479667E-012
                     8                     3                     7
                     2  2.105740581903603E-011
                     8                     3                     7
                     4 -4.032216401050892E-011
                     8                     3                     9
                     1 -1.743195431752609E-012
                     8                     3                     9
                     2 -1.608722530188622E-011
                     8                     3                    10
                     5 -2.261602363717863E-011
                     8                     4                     1
                     8  1.637838302481764E-012
                     8                     4                     2
                     8  6.149635141394771E-011
                     8                     4                     3
                     7 -2.492280687382831E-012
                     8                     4                     4
                     8  1.668476468097424E-011
                     8                     4                     7
                     3 -2.817620615991334E-011
                     8                     4                     8
                     1 -1.477366839974792E-012
                     8                     4                     9
                     3  3.751915444993870E-012
                     8                     5                     5
                     8  7.533507151435970E-011
                     8                     5                    10
                     3 -2.288069733680231E-011
                     8                     6                     8
                     7 -1.760591672450573E-012
                     8                     6                     8
                     9  1.493360990423298E-012
                     8                     7                     6
                     8 -2.537390436652132E-012
                     8                     7                     8
                     6  1.760591672450573E-012
                     8                     7                     8
                     9  2.179416803277379E-012
                     8                     7                     9
                     8  1.703943409980813E-012
                     8                     8                     7
                     9  3.793763555671270E-012
                     8                     8                     9
                     7 -3.793761320483671E-012
                     8                     9                     7
                     8  3.332007456405273E-011
                     8                     9                     8
                     6 -1.493360990423298E-012
                     8                     9                     8
                     7 -2.179416803277379E-012
                     8                     9                     9
                     8  2.043676339269496E-011
                     8                    10                    10
                     8  5.245415213295246E-011
                     9                     1                     1
                     6 -1.039834884863922E-012
                     9                     1                     3
                     8 -1.613888710172429E-012
                     9                     1                     4
                     9 -1.025865156711880E-012
                     9                     1                     5
                    10 -1.097002697014737E-012
                     9                     1                     6
                     1  1.017325113039647E-012
                     9                     1                     8
                     3  1.743195431752609E-012
                     9                     2                     1
                     7  1.200979420079573E-012
                     9                     2                     1
                     9 -2.378736096986245E-012
                     9                     2                     2
                     7  2.126504354549308E-011
                     9                     2                     2
                     9 -1.141176042551706E-011
                     9                     2                     3
                     8 -1.229346832665179E-011
                     9                     2                     4
                     9  8.444162036269631E-012
                     9                     2                     5
                    10 -1.891532069864255E-012
                     9                     2                     7
                     2 -3.203842399712720E-011
                     9                     2                     7
                     4  9.961129143754022E-012
                     9                     2                     8
                     3  1.608722530188622E-011
                     9                     2                     9
                     4 -5.565173322175099E-012
                     9                     2                    10
                     5  2.489394107518805E-012
                     9                     3                     1
                     8  1.293288393044989E-012
                     9                     3                     2
                     8  2.812614030567318E-011
                     9                     3                     3
                     6  1.126379371718667E-012
                     9                     3                     3
                     7 -4.246164184151802E-012
                     9                     3                     3
                     9 -1.668476468097424E-011
                     9                     3                     6
                     3 -1.286850834225639E-012
                     9                     3                     7
                     3 -5.756301338366576E-011
                     9                     3                     8
                     2  2.542346541622997E-012
                     9                     3                     8
                     4 -3.751915444993870E-012
                     9                     4                     1
                     6  1.023011536593899E-012
                     9                     4                     1
                     9  2.028318485391978E-012
                     9                     4                     2
                     7 -1.376156133492401E-011
                     9                     4                     2
                     9  8.970782450212766E-011
                     9                     4                     4
                     6  1.025899851181400E-012
                     9                     4                     4
                     7 -8.444217547420863E-012
                     9                     4                     5
                    10  3.244499113819188E-011
[...]
    6    4    8    3        0.0153735971
    6    4    8    7       -0.0002778415
    6    4    8    8       -0.0051888656
    6    6    8    3        0.0144392370
    6    6    8    7        0.0262587873
    6    6    8    8        0.2857755777
    6    7    8    1        0.0013550180
    6    7    8    2       -0.0064657166
    6    7    8    4        0.0253048246
    6    7    8    6        0.0000633424
    6    8    8    1        0.0003034055
    6    8    8    2       -0.0114110083
    6    8    8    4        0.0053433844
    6    8    8    6        0.0172900872
    7    1    1    3       -0.0104690595
    7    1    1    7        0.0045129730
    7    1    1    8        0.0037842243
    7    2    1    1       -0.0000000002
    7    2    1    3       -0.0082974864
    7    2    1    7        0.0037022688
    7    2    1    8        0.0030886918
    7    3    1    1       -0.1662140614
    7    3    1    2        0.0006014412
    7    3    1    4        0.0002981311
    7    3    1    6        0.0005056946
    7    4    1    1        0.0000000001
    7    4    1    3       -0.0029705876
    7    4    1    7        0.0014568883
    7    4    1    8        0.0014542208
    7    6    1    3       -0.0038752057
    7    6    1    7        0.0016970733
    7    6    1    8        0.0013550180
    7    7    1    1        0.3365926123
    7    7    1    2       -0.0014348863
    7    7    1    4       -0.0014312645
    7    7    1    6       -0.0001215416
    7    8    1    1        0.1109459058
    7    8    1    2       -0.0014677078
    7    8    1    4        0.0001990947
    7    8    1    6       -0.0004763356
    7    1    2    3       -0.0111328071
    7    1    2    7        0.0037022688
    7    1    2    8        0.0026215544
    7    2    2    2       -0.0000000001
    7    2    2    3       -0.0325240525
    7    2    2    7        0.0127412734
    7    2    2    8        0.0099647551
    7    3    2    1        0.0014721276
    7    3    2    2       -0.0950285516
    7    3    2    4       -0.0145954752
    7    3    2    6       -0.0204946110
    7    4    2    3       -0.0158305058
    7    4    2    7        0.0025711036
    7    4    2    8        0.0024484520
    7    6    2    3       -0.0411061782
    7    6    2    7       -0.0007571005
    7    6    2    8       -0.0064657166
    7    7    2    1       -0.0014348863
    7    7    2    2        0.3001440313
    7    7    2    4       -0.0102310760
    7    7    2    6        0.0078641747
    7    8    2    1       -0.0014387285
    7    8    2    2        0.0755420858
    7    8    2    4        0.0005549562
    7    8    2    6        0.0066768563
    7    1    3    1       -0.0095435134
    7    1    3    2       -0.0109026897
    7    1    3    4       -0.0017489227
    7    1    3    6       -0.0017908730
    7    2    3    1       -0.0082110660
    7    2    3    2       -0.0328881601
    7    2    3    4       -0.0059007309
    7    2    3    6       -0.0077154689
    7    3    3    3       -0.0837628783
    7    3    3    7        0.0316399997
    7    3    3    8        0.0249605545
    7    4    3    1       -0.0030958467
    7    4    3    2       -0.0169094694
    7    4    3    4       -0.0059679339
    7    4    3    6        0.0058818284
    7    5    3    5       -0.0089247812
    7    6    3    1       -0.0038542206
    7    6    3    2       -0.0411602678
    7    6    3    4        0.0139156180
    7    6    3    6        0.0177050465
    7    7    3    3        0.3036269861
    7    7    3    7       -0.0061119256
    7    7    3    8        0.0092322795
    7    8    3    3        0.0745772622
    7    8    3    7       -0.0107234321
    7    8    3    8        0.0044127427
    7    1    4    3       -0.0017987563
    7    1    4    7        0.0014568883
    7    1    4    8        0.0030616264
    7    2    4    3       -0.0057638908
    7    2    4    7        0.0025711036
    7    2    4    8        0.0079684404
    7    3    4    1        0.0003098674
    7    3    4    2       -0.0156097985
    7    3    4    4       -0.0844738516
    7    3    4    6        0.0141801510
    7    4    4    3       -0.0068660645
    7    4    4    7        0.0085888434
    7    4    4    8        0.0151382254
    7    6    4    3        0.0137230582
    7    6    4    7        0.0125210996
    7    6    4    8        0.0253048246
    7    7    4    1       -0.0014312645
    7    7    4    2       -0.0102310760
    7    7    4    4        0.2853887613
    7    7    4    6        0.0038744155
    7    8    4    1        0.0000902815
    7    8    4    2        0.0002110127
    7    8    4    4        0.0726841496
    7    8    4    6       -0.0002778415
    7    2    5    5       -0.0000000001
    7    3    5    5       -0.0898468869
    7    5    5    3       -0.0092025269
    7    5    5    7        0.0045116994
    7    5    5    8        0.0038738969
    7    7    5    5        0.2868202560
    7    8    5    5        0.0675866569
    7    1    6    3       -0.0021546905
    7    1    6    7        0.0016970733
    7    1    6    8        0.0004342314
    7    2    6    3       -0.0110239017
    7    2    6    7       -0.0007571005
    7    2    6    8       -0.0012390791
    7    3    6    1        0.0000711720
    7    3    6    2       -0.0233404528
    7    3    6    4        0.0144362649
    7    3    6    6       -0.0078013248
    7    4    6    3        0.0065805279
    7    4    6    7        0.0125210996
    7    4    6    8        0.0023909885
    7    6    6    3        0.0181077438
    7    6    6    7        0.0647024066
    7    6    6    8        0.0000633424
    7    7    6    1       -0.0001215416
    7    7    6    2        0.0078641747
    7    7    6    4        0.0038744155
    7    7    6    6        0.2555788736
    7    8    6    1       -0.0004620720
    7    8    6    2        0.0065782569
    7    8    6    4        0.0004206572
    7    8    6    6        0.0262587873
    7    1    7    1        0.0048004033
    7    1    7    2        0.0040738638
    7    1    7    4        0.0015515110
    7    1    7    6        0.0016886595
    7    2    7    1        0.0040738638
    7    2    7    2        0.0153571945
    7    2    7    4        0.0030075676
    7    2    7    6       -0.0008917674
    7    3    7    3        0.0340096963
    7    3    7    7       -0.0061119256
    7    3    7    8       -0.0105357629
    7    4    7    1        0.0015515110
    7    4    7    2        0.0030075676
    7    4    7    4        0.0103572386
    7    4    7    6        0.0125834686
    7    5    7    5        0.0062402228
    7    6    7    1        0.0016886595
    7    6    7    2       -0.0008917674
    7    6    7    4        0.0125834686
    7    6    7    6        0.0647029559
    7    7    7    3       -0.0061119256
    7    7    7    7        0.2607777080
    7    7    7    8        0.0210470225
    7    8    7    3       -0.0105357629
    7    8    7    7        0.0210470225
    7    8    7    8        0.0201989658
    7    1    8    1        0.0039944733
    7    1    8    2        0.0029153275
    7    1    8    4        0.0031833234
    7    1    8    6        0.0004157967
    7    2    8    1        0.0033694547
    7    2    8    2        0.0115019038
    7    2    8    4        0.0083479788
    7    2    8    6       -0.0011767710
    7    3    8    3        0.0254755897
    7    3    8    7       -0.0107234321
    7    3    8    8       -0.0230857720
    7    4    8    1        0.0015053150
    7    4    8    2        0.0031476087
    7    4    8    4        0.0156561930
    7    4    8    6        0.0019814907
    7    5    8    5        0.0045546001
    7    6    8    1        0.0013490004
    7    6    8    2       -0.0065861485
    7    6    8    4        0.0256621202
    7    6    8    6        0.0000722202
    7    7    8    3        0.0092322795
    7    7    8    7        0.0210470225
    7    7    8    8        0.2689141668
    7    8    8    3        0.0056024920
    7    8    8    7        0.0202546993
    7    8    8    8        0.0475244486
    8    1    1    3       -0.0090117648
    8    1    1    7        0.0037842243
    8    1    1    8        0.0032221474
    8    2    1    3       -0.0060394427
    8    2    1    7        0.0026215544
    8    2    1    8        0.0023443623
    8    3    1    1       -0.1017902049
    8    3    1    2        0.0013744899
    8    3    1    4       -0.0038707749
    8    3    1    6        0.0016952893
    8    4    1    3       -0.0063360189
    8    4    1    7        0.0030616264
    8    4    1    8        0.0027802252
    8    6    1    3       -0.0010369414
    8    6    1    7        0.0004342314
    8    6    1    8        0.0003034055
    8    7    1    1        0.1109459058
    8    7    1    2       -0.0014387285
    8    7    1    4        0.0000902815
    8    7    1    6       -0.0004620720
    8    8    1    1        0.4590677410
    8    8    1    2       -0.0012298755
    8    8    1    4       -0.0003316557
    8    8    1    6       -0.0002719701
    8    1    2    3       -0.0092611970
    8    1    2    7        0.0030886918
    8    1    2    8        0.0023443623
    8    2    2    3       -0.0061932337
    8    2    2    7        0.0099647551
    8    2    2    8        0.0242044487
    8    3    2    1        0.0021933748
    8    3    2    2       -0.0226058287
    8    3    2    4       -0.0496042458
    8    3    2    6       -0.0088096688
    8    4    2    3       -0.0535873631
    8    4    2    7        0.0079684404
    8    4    2    8       -0.0034337130
    8    6    2    3       -0.0071447184
    8    6    2    7       -0.0012390791
    8    6    2    8       -0.0114110083
    8    7    2    1       -0.0014677078
    8    7    2    2        0.0755420858
    8    7    2    4        0.0002110127
    8    7    2    6        0.0065782569
    8    8    2    1       -0.0012298755
    8    8    2    2        0.4298210647
    8    8    2    4       -0.0106900395
    8    8    2    6        0.0138934712
    8    1    3    1       -0.0080084377
    8    1    3    2       -0.0089679005
    8    1    3    4       -0.0020434420
    8    1    3    6       -0.0013460185
    8    2    3    1       -0.0056837890
    8    2    3    2       -0.0052800243
    8    2    3    4       -0.0247949777
    8    2    3    6       -0.0066500234
    8    3    3    3       -0.0108844708
    8    3    3    7        0.0249605545
    8    3    3    8        0.0558141660
    8    4    3    1       -0.0068565220
    8    4    3    2       -0.0568564232
    8    4    3    4        0.0028905161
    8    4    3    6        0.0109629243
    8    5    3    5       -0.0092348709
    8    6    3    1       -0.0009170309
    8    6    3    2       -0.0067373316
    8    6    3    4        0.0110724035
    8    6    3    6        0.0009619673
    8    7    3    3        0.0745772622
    8    7    3    7       -0.0105357629
    8    7    3    8        0.0056024920
    8    8    3    3        0.4341459267
    8    8    3    7       -0.0230857720
    8    8    3    8        0.0201130134
    8    1    4    3       -0.0020941210
    8    1    4    7        0.0014542208
    8    1    4    8        0.0027802252
    8    2    4    3       -0.0244243131
    8    2    4    7        0.0024484520
    8    2    4    8       -0.0034337130
    8    3    4    1       -0.0043679643
    8    3    4    2       -0.0526079037
    8    3    4    4       -0.0389519798
    8    3    4    6        0.0150912088
    8    4    4    3        0.0013590189
    8    4    4    7        0.0151382254
    8    4    4    8        0.0424451071
    8    6    4    3        0.0110155895
    8    6    4    7        0.0023909885
    8    6    4    8        0.0053433844
    8    7    4    1        0.0001990947
    8    7    4    2        0.0005549562
    8    7    4    4        0.0726841496
    8    7    4    6        0.0004206572
    8    8    4    1       -0.0003316557
    8    8    4    2       -0.0106900395
    8    8    4    4        0.4175431032
    8    8    4    6       -0.0051888656
    8    3    5    5       -0.0421681020
    8    5    5    3       -0.0092432132
    8    5    5    7        0.0038738969
    8    5    5    8        0.0074980483
    8    7    5    5        0.0675866569
    8    8    5    5        0.4005822245
    8    1    6    3       -0.0017328163
    8    1    6    7        0.0013550180
    8    1    6    8        0.0003034055
    8    2    6    3       -0.0097737155
    8    2    6    7       -0.0064657166
    8    2    6    8       -0.0114110083
    8    3    6    1        0.0014134690
    8    3    6    2       -0.0108349772
    8    3    6    4        0.0153735971
    8    3    6    6        0.0144392370
    8    4    6    3        0.0120377825
    8    4    6    7        0.0253048246
    8    4    6    8        0.0053433844
    8    6    6    3        0.0004887270
    8    6    6    7        0.0000633424
    8    6    6    8        0.0172900872
    8    7    6    1       -0.0004763356
    8    7    6    2        0.0066768563
    8    7    6    4       -0.0002778415
    8    7    6    6        0.0262587873
    8    8    6    1       -0.0002719701
    8    8    6    2        0.0138934712
    8    8    6    4       -0.0051888656
    8    8    6    6        0.2857755777
    8    1    7    1        0.0039944733
    8    1    7    2        0.0033694547
    8    1    7    4        0.0015053150
    8    1    7    6        0.0013490004
    8    2    7    1        0.0029153275
    8    2    7    2        0.0115019038
    8    2    7    4        0.0031476087
    8    2    7    6       -0.0065861485
    8    3    7    3        0.0254755897
    8    3    7    7        0.0092322795
    8    3    7    8        0.0056024920
    8    4    7    1        0.0031833234
    8    4    7    2        0.0083479788
    8    4    7    4        0.0156561930
    8    4    7    6        0.0256621202
    8    5    7    5        0.0045546001
    8    6    7    1        0.0004157967
    8    6    7    2       -0.0011767710
    8    6    7    4        0.0019814907
    8    6    7    6        0.0000722202
    8    7    7    3       -0.0107234321
    8    7    7    7        0.0210470225
    8    7    7    8        0.0202546993
    8    8    7    3       -0.0230857720
    8    8    7    7        0.2689141668
    8    8    7    8        0.0475244486
    8    1    8    1        0.0032965814
    8    1    8    2        0.0026346557
    8    1    8    4        0.0027386665
    8    1    8    6        0.0003068542
    8    2    8    1        0.0026346557
    8    2    8    2        0.0264404202
    8    2    8    4       -0.0042288388
    8    2    8    6       -0.0105190163
    8    3    8    3        0.0566029852
    8    3    8    7        0.0044127427
    8    3    8    8        0.0201130134
    8    4    8    1        0.0027386665
    8    4    8    2       -0.0042288388
    8    4    8    4        0.0419078142
    8    4    8    6        0.0045399753
    8    5    8    5        0.0070212660
    8    6    8    1        0.0003068542
    8    6    8    2       -0.0105190163
    8    6    8    4        0.0045399753
    8    6    8    6        0.0172719306
    8    7    8    3        0.0044127427
    8    7    8    7        0.0201989658
    8    7    8    8        0.0475244486
    8    8    8    3        0.0201130134
    8    8    8    7        0.0475244486
    8    8    8    8        0.3735936068
 end_two_electron_integrals

 Task  times  cpu:      656.3s     wall:      656.3s
 
 
                                NWChem Input Module
                                -------------------
 
 
 Summary of allocated global arrays
-----------------------------------
  No active global arrays


MA_summarize_allocated_blocks: starting scan ...
MA_summarize_allocated_blocks: scan completed: 0 heap blocks, 0 stack blocks
MA usage statistics:

	allocation statistics:
					      heap	     stack
					      ----	     -----
	current number of blocks	         0	         0
	maximum number of blocks	        16	        42
	current total bytes		         0	         0
	maximum total bytes		     80104	4725685704
	maximum total K-bytes		        81	   4725686
	maximum total M-bytes		         1	      4726
 
 
                                     CITATION
                                     --------
                Please cite the following reference when publishing
                           results obtained with NWChem:
 
          E. Apra, E. J. Bylaska, W. A. de Jong, N. Govind, K. Kowalski,
       T. P. Straatsma, M. Valiev, H. J. J. van Dam, Y. Alexeev, J. Anchell,
       V. Anisimov, F. W. Aquino, R. Atta-Fynn, J. Autschbach, N. P. Bauman,
     J. C. Becca, D. E. Bernholdt, K. Bhaskaran-Nair, S. Bogatko, P. Borowski,
         J. Boschen, J. Brabec, A. Bruner, E. Cauet, Y. Chen, G. N. Chuev,
      C. J. Cramer, J. Daily, M. J. O. Deegan, T. H. Dunning Jr., M. Dupuis,
   K. G. Dyall, G. I. Fann, S. A. Fischer, A. Fonari, H. Fruchtl, L. Gagliardi,
      J. Garza, N. Gawande, S. Ghosh, K. Glaesemann, A. W. Gotz, J. Hammond,
       V. Helms, E. D. Hermes, K. Hirao, S. Hirata, M. Jacquelin, L. Jensen,
   B. G. Johnson, H. Jonsson, R. A. Kendall, M. Klemm, R. Kobayashi, V. Konkov,
      S. Krishnamoorthy, M. Krishnan, Z. Lin, R. D. Lins, R. J. Littlefield,
      A. J. Logsdail, K. Lopata, W. Ma, A. V. Marenich, J. Martin del Campo,
   D. Mejia-Rodriguez, J. E. Moore, J. M. Mullin, T. Nakajima, D. R. Nascimento,
    J. A. Nichols, P. J. Nichols, J. Nieplocha, A. Otero-de-la-Roza, B. Palmer,
    A. Panyala, T. Pirojsirikul, B. Peng, R. Peverati, J. Pittner, L. Pollack,
   R. M. Richard, P. Sadayappan, G. C. Schatz, W. A. Shelton, D. W. Silverstein,
   D. M. A. Smith, T. A. Soares, D. Song, M. Swart, H. L. Taylor, G. S. Thomas,
            V. Tipparaju, D. G. Truhlar, K. Tsemekhman, T. Van Voorhis,
      A. Vazquez-Mayagoitia, P. Verma, O. Villa, A. Vishnu, K. D. Vogiatzis,
        D. Wang, J. H. Weare, M. J. Williamson, T. L. Windus, K. Wolinski,
        A. T. Wong, Q. Wu, C. Yang, Q. Yu, M. Zacharias, Z. Zhang, Y. Zhao,
                                and R. J. Harrison
                        "NWChem: Past, present, and future
                         J. Chem. Phys. 152, 184102 (2020)
                               doi:10.1063/5.0004997
 
                                      AUTHORS
                                      -------
  E. Apra, E. J. Bylaska, N. Govind, K. Kowalski, M. Valiev, D. Mejia-Rodriguez,
       A. Kunitsa, N. P. Bauman, A. Panyala, W. A. de Jong, T. P. Straatsma,
   H. J. J. van Dam, D. Wang, T. L. Windus, J. Hammond, J. Autschbach, A. Woods,
    K. Bhaskaran-Nair, J. Brabec, K. Lopata, S. A. Fischer, S. Krishnamoorthy,
     M. Jacquelin, W. Ma, M. Klemm, O. Villa, Y. Chen, V. Anisimov, F. Aquino,
     S. Hirata, M. T. Hackler, E. Hermes, L. Jensen, J. E. Moore, J. C. Becca,
      V. Konjkov, T. Risthaus, M. Malagoli, A. Marenich, A. Otero-de-la-Roza,
        J. Mullin, P. Nichols, R. Peverati, J. Pittner, Y. Zhao, P.-D. Fan,
        A. Fonari, M. J. Williamson, R. J. Harrison, J. R. Rehr, M. Dupuis,
     D. Silverstein, D. M. A. Smith, J. Nieplocha, V. Tipparaju, M. Krishnan,
     B. E. Van Kuiken, A. Vazquez-Mayagoitia, M. Swart, Q. Wu, T. Van Voorhis,
     A. A. Auer, M. Nooijen, L. D. Crosby, E. Brown, G. Cisneros, G. I. Fann,
   H. Fruchtl, J. Garza, K. Hirao, R. A. Kendall, J. A. Nichols, K. Tsemekhman,
    K. Wolinski, J. Anchell, D. E. Bernholdt, P. Borowski, T. Clark, D. Clerc,
   H. Dachsel, M. J. O. Deegan, K. Dyall, D. Elwood, E. Glendening, M. Gutowski,
   A. C. Hess, J. Jaffe, B. G. Johnson, J. Ju, R. Kobayashi, R. Kutteh, Z. Lin,
   R. Littlefield, X. Long, B. Meng, T. Nakajima, S. Niu, L. Pollack, M. Rosing,
   K. Glaesemann, G. Sandrone, M. Stave, H. Taylor, G. Thomas, J. H. van Lenthe,
                               A. T. Wong, Z. Zhang.

 Total times  cpu:      656.6s     wall:      656.6s
