 argument  1 = input.nw
  NWChem w/ OpenMP: maximum threads =    1
 


============================== echo of input deck ==============================
 echo
 start H2O
 title "H2O"

 memory total 24 gb

 geometry units angstrom
 symmetry c1
   zmatrix
     O
     H1 O 0.97551
     H2 O 0.97551 H1 101.85
   end
 end

 basis spherical
   * library cc-pVTZ
 end

 tce
   2eorb
   2emet 13
   ccsd
   maxiter 300
 end

# set tce:print_integrals T
# set tce:qorb 8
# set tce:qela 5
# set tce:qelb 5

 set tce:qducc T
 set tce:nactv 3
 set tce:nonhf T
 set tce:ducc_model 6

 set tce:printtol 0.02

 task tce
================================================================================


                                         
                                         
 
 
             Northwest Computational Chemistry Package (NWChem) 7.2.3
             --------------------------------------------------------
 
 
                    Environmental Molecular Sciences Laboratory
                       Pacific Northwest National Laboratory
                                Richland, WA 99352
 
                              Copyright (c) 1994-2022
                       Pacific Northwest National Laboratory
                            Battelle Memorial Institute
 
             NWChem is an open-source computational chemistry package
                        distributed under the terms of the
                      Educational Community License (ECL) 2.0
             A copy of the license is included with this distribution
                              in the LICENSE.TXT file
 
                                  ACKNOWLEDGMENT
                                  --------------

            This software and its documentation were developed at the
            EMSL at Pacific Northwest National Laboratory, a multiprogram
            national laboratory, operated for the U.S. Department of Energy
            by Battelle under Contract Number DE-AC05-76RL01830. Support
            for this work was provided by the Department of Energy Office
            of Biological and Environmental Research, Office of Basic
            Energy Sciences, and the Office of Advanced Scientific Computing.


           Job information
           ---------------

    hostname        = koothan
    program         = /hpc/home/baum612/code/nwchem/bin/LINUX64/nwchem
    date            = Fri Nov 22 00:43:24 2024

    compiled        = Thu_Nov_21_17:16:59_2024
    source          = /hpc/home/baum612/code/nwchem
    nwchem branch   = 7.2.3
    nwchem revision = v7.2.0-beta1-1291-g6d839a76f0
    ga revision     = 5.8.0
    use scalapack   = T
    input           = input.nw
    prefix          = H2O.
    data base       = ./H2O.db
    status          = startup
    nproc           =        1
    time left       =     -1s



           Memory information
           ------------------

    heap     =    805306368 doubles =     6144.0 Mbytes
    stack    =    805306365 doubles =     6144.0 Mbytes
    global   =   1610612736 doubles =    12288.0 Mbytes (distinct from heap & stack)
    total    =   3221225469 doubles =    24576.0 Mbytes
    verify   = yes
    hardfail = no 


           Directory information
           ---------------------
 
  0 permanent = .
  0 scratch   = .
 
 
 
 
                                NWChem Input Module
                                -------------------
 
 
                                        H2O
                                        ---

 Scaling coordinates for geometry "geometry" by  1.889725989
 (inverse scale =  0.529177249)

 Turning off AUTOSYM since
 SYMMETRY directive was detected!
 
 
 
                             Geometry "geometry" -> ""
                             -------------------------
 
 Output coordinates in angstroms (scale by  1.889725989 to convert to a.u.)
 
  No.       Tag          Charge          X              Y              Z
 ---- ---------------- ---------- -------------- -------------- --------------
    1 O                    8.0000    -0.09547205     0.00000000    -0.07751888
    2 H1                   1.0000    -0.09547205     0.00000000     0.89799112
    3 H2                   1.0000     0.85924843     0.00000000    -0.27784005
 
      Atomic Mass 
      ----------- 
 
      O                 15.994910
      H1                 1.007825
      H2                 1.007825
 

 Effective nuclear repulsion energy (a.u.)       9.0287741736

            Nuclear Dipole moment (a.u.) 
            ----------------------------
        X                 Y               Z
 ---------------- ---------------- ----------------
    -0.0000000000     0.0000000000     0.0000000000
 


                                Z-matrix (user)
                                -------- 

 Units are Angstrom for bonds and degrees for angles
 
      Type          Name      I     J     K     L     M      Value
      ----------- --------  ----- ----- ----- ----- ----- ----------
    1 Stretch                  2     1                       0.97551
    2 Stretch                  3     1                       0.97551
    3 Bend                     3     1     2               101.85000
 
 
            XYZ format geometry
            -------------------
     3
 geometry
 O                    -0.09547205     0.00000000    -0.07751888
 H1                   -0.09547205     0.00000000     0.89799112
 H2                    0.85924843     0.00000000    -0.27784005
 
 ==============================================================================
                                internuclear distances
 ------------------------------------------------------------------------------
       center one      |      center two      | atomic units |  angstroms
 ------------------------------------------------------------------------------
    2 H1               |   1 O                |     1.84345  |     0.97551
    3 H2               |   1 O                |     1.84345  |     0.97551
 ------------------------------------------------------------------------------
                         number of included internuclear distances:          2
 ==============================================================================



 ==============================================================================
                                 internuclear angles
 ------------------------------------------------------------------------------
        center 1       |       center 2       |       center 3       |  degrees
 ------------------------------------------------------------------------------
    2 H1               |   1 O                |   3 H2               |   101.85
 ------------------------------------------------------------------------------
                            number of included internuclear angles:          1
 ==============================================================================





 Summary of "ao basis" -> "" (spherical)
 ------------------------------------------------------------------------------
       Tag                 Description            Shells   Functions and Types
 ---------------- ------------------------------  ------  ---------------------
 *                          cc-pVTZ                   on all atoms 


                      Basis "ao basis" -> "ao basis" (spherical)
                      -----
  O (Oxygen)
  ----------
            Exponent  Coefficients 
       -------------- ---------------------------------------------------------
  1 S  1.53300000E+04  0.000508
  1 S  2.29900000E+03  0.003929
  1 S  5.22400000E+02  0.020243
  1 S  1.47300000E+02  0.079181
  1 S  4.75500000E+01  0.230687
  1 S  1.67600000E+01  0.433118
  1 S  6.20700000E+00  0.350260
  1 S  6.88200000E-01 -0.008154
 
  2 S  1.53300000E+04 -0.000115
  2 S  2.29900000E+03 -0.000895
  2 S  5.22400000E+02 -0.004636
  2 S  1.47300000E+02 -0.018724
  2 S  4.75500000E+01 -0.058463
  2 S  1.67600000E+01 -0.136463
  2 S  6.20700000E+00 -0.175740
  2 S  6.88200000E-01  0.603418
 
  3 S  1.75200000E+00  1.000000
 
  4 S  2.38400000E-01  1.000000
 
  5 P  3.44600000E+01  0.015928
  5 P  7.74900000E+00  0.099740
  5 P  2.28000000E+00  0.310492
 
  6 P  7.15600000E-01  1.000000
 
  7 P  2.14000000E-01  1.000000
 
  8 D  2.31400000E+00  1.000000
 
  9 D  6.45000000E-01  1.000000
 
 10 F  1.42800000E+00  1.000000
 
  H1 (Hydrogen)
  -------------
            Exponent  Coefficients 
       -------------- ---------------------------------------------------------
  1 S  3.38700000E+01  0.006068
  1 S  5.09500000E+00  0.045308
  1 S  1.15900000E+00  0.202822
 
  2 S  3.25800000E-01  1.000000
 
  3 S  1.02700000E-01  1.000000
 
  4 P  1.40700000E+00  1.000000
 
  5 P  3.88000000E-01  1.000000
 
  6 D  1.05700000E+00  1.000000
 
  H2 (Hydrogen)
  -------------
            Exponent  Coefficients 
       -------------- ---------------------------------------------------------
  1 S  3.38700000E+01  0.006068
  1 S  5.09500000E+00  0.045308
  1 S  1.15900000E+00  0.202822
 
  2 S  3.25800000E-01  1.000000
 
  3 S  1.02700000E-01  1.000000
 
  4 P  1.40700000E+00  1.000000
 
  5 P  3.88000000E-01  1.000000
 
  6 D  1.05700000E+00  1.000000
 


 Summary of "ao basis" -> "ao basis" (spherical)
 ------------------------------------------------------------------------------
       Tag                 Description            Shells   Functions and Types
 ---------------- ------------------------------  ------  ---------------------
 O                          cc-pVTZ                 10       30   4s3p2d1f
 H1                         cc-pVTZ                  6       14   3s2p1d
 H2                         cc-pVTZ                  6       14   3s2p1d


                                 NWChem SCF Module
                                 -----------------
 
 
                                        H2O
 
 

  ao basis        = "ao basis"
  functions       =    58
  atoms           =     3
  closed shells   =     5
  open shells     =     0
  charge          =   0.00
  wavefunction    = RHF 
  input vectors   = atomic
  output vectors  = ./H2O.movecs
  use symmetry    = F
  symmetry adapt  = F


 Summary of "ao basis" -> "ao basis" (spherical)
 ------------------------------------------------------------------------------
       Tag                 Description            Shells   Functions and Types
 ---------------- ------------------------------  ------  ---------------------
 O                          cc-pVTZ                 10       30   4s3p2d1f
 H1                         cc-pVTZ                  6       14   3s2p1d
 H2                         cc-pVTZ                  6       14   3s2p1d



 Forming initial guess at       0.4s

 
      Superposition of Atomic Density Guess
      -------------------------------------
 
 Sum of atomic energies:         -75.78028790
 
      Non-variational initial energy
      ------------------------------

 Total energy =     -75.912551
 1-e energy   =    -121.494270
 2-e energy   =      36.552945
 HOMO         =      -0.472294
 LUMO         =       0.062292
 

 Starting SCF solution at       0.5s



 ----------------------------------------------
         Quadratically convergent ROHF

 Convergence threshold     :          1.000E-04
 Maximum no. of iterations :           30
 Final Fock-matrix accuracy:          1.000E-07
 ----------------------------------------------


              iter       energy          gnorm     gmax       time
             ----- ------------------- --------- --------- --------
                 1      -76.0196350649  8.48D-01  2.94D-01      0.7
                 2      -76.0528088553  1.97D-01  6.24D-02      0.9
                 3      -76.0550535777  1.66D-02  6.64D-03      1.3
                 4      -76.0550789965  7.31D-05  3.13D-05      1.9


       Final RHF  results 
       ------------------ 

         Total SCF energy =    -76.055078996498
      One-electron energy =   -122.815563914827
      Two-electron energy =     37.731710744765
 Nuclear repulsion energy =      9.028774173564

        Time for solution =      1.4s


             Final eigenvalues
             -----------------

              1      
    1  -20.5593
    2   -1.3384
    3   -0.6949
    4   -0.5795
    5   -0.5039
    6    0.1398
    7    0.2028
    8    0.5322
    9    0.6007
   10    0.6700
   11    0.7847
   12    0.7865
   13    0.8067
   14    0.8630
   15    0.9424
 
                       ROHF Final Molecular Orbital Analysis
                       -------------------------------------
 
 Vector    2  Occ=2.000000D+00  E=-1.338399D+00
              MO Center=  3.7D-02, -2.0D-16,  3.0D-02, r^2= 5.0D-01
   Bfn.  Coefficient  Atom+Function         Bfn.  Coefficient  Atom+Function  
  ----- ------------  ---------------      ----- ------------  ---------------
     2      0.505939  1 O  s                  4      0.287278  1 O  s          
 
 Vector    3  Occ=2.000000D+00  E=-6.949137D-01
              MO Center=  7.6D-02,  2.3D-16,  6.2D-02, r^2= 7.8D-01
   Bfn.  Coefficient  Atom+Function         Bfn.  Coefficient  Atom+Function  
  ----- ------------  ---------------      ----- ------------  ---------------
    10      0.266089  1 O  pz                 7      0.218665  1 O  pz         
    32      0.217668  2 H  s                 46     -0.217668  3 H  s          
     8     -0.216052  1 O  px                 5     -0.177546  1 O  px         
 
 Vector    4  Occ=2.000000D+00  E=-5.795191D-01
              MO Center= -1.2D-01,  2.0D-16, -9.5D-02, r^2= 7.1D-01
   Bfn.  Coefficient  Atom+Function         Bfn.  Coefficient  Atom+Function  
  ----- ------------  ---------------      ----- ------------  ---------------
     8     -0.294584  1 O  px                 4      0.278880  1 O  s          
     5     -0.240669  1 O  px                10     -0.239189  1 O  pz         
    11     -0.211857  1 O  px                 7     -0.195412  1 O  pz         
     2      0.180550  1 O  s                 13     -0.172018  1 O  pz         
 
 Vector    5  Occ=2.000000D+00  E=-5.039437D-01
              MO Center= -6.9D-02,  1.2D-16, -5.6D-02, r^2= 6.3D-01
   Bfn.  Coefficient  Atom+Function         Bfn.  Coefficient  Atom+Function  
  ----- ------------  ---------------      ----- ------------  ---------------
     9      0.444907  1 O  py                12      0.375985  1 O  py         
     6      0.357627  1 O  py         
 
 Vector    6  Occ=0.000000D+00  E= 1.398221D-01
              MO Center=  5.1D-01, -1.0D-16,  4.1D-01, r^2= 3.7D+00
   Bfn.  Coefficient  Atom+Function         Bfn.  Coefficient  Atom+Function  
  ----- ------------  ---------------      ----- ------------  ---------------
     4      1.468050  1 O  s                 33     -0.908538  2 H  s          
    47     -0.908538  3 H  s                 11      0.354610  1 O  px         
    13      0.287927  1 O  pz                32     -0.249811  2 H  s          
    46     -0.249811  3 H  s                 39      0.167322  2 H  pz         
    51      0.163994  3 H  px                 8      0.151132  1 O  px         
 
 Vector    7  Occ=0.000000D+00  E= 2.028391D-01
              MO Center=  5.5D-01,  6.5D-17,  4.5D-01, r^2= 4.6D+00
   Bfn.  Coefficient  Atom+Function         Bfn.  Coefficient  Atom+Function  
  ----- ------------  ---------------      ----- ------------  ---------------
    33      1.744370  2 H  s                 47     -1.744370  3 H  s          
    13     -0.635563  1 O  pz                11      0.516048  1 O  px         
    39     -0.163886  2 H  pz                51      0.160192  3 H  px         
    10     -0.156829  1 O  pz         
 
 Vector    8  Occ=0.000000D+00  E= 5.322430D-01
              MO Center=  5.7D-02, -1.4D-17,  4.6D-02, r^2= 2.3D+00
   Bfn.  Coefficient  Atom+Function         Bfn.  Coefficient  Atom+Function  
  ----- ------------  ---------------      ----- ------------  ---------------
    32      1.470174  2 H  s                 46     -1.470174  3 H  s          
    13     -0.871827  1 O  pz                11      0.707883  1 O  px         
    33     -0.662616  2 H  s                 47      0.662616  3 H  s          
    10     -0.200113  1 O  pz                 8      0.162483  1 O  px         
 
 Vector    9  Occ=0.000000D+00  E= 6.006784D-01
              MO Center=  4.3D-01, -1.4D-16,  3.5D-01, r^2= 2.1D+00
   Bfn.  Coefficient  Atom+Function         Bfn.  Coefficient  Atom+Function  
  ----- ------------  ---------------      ----- ------------  ---------------
    32      1.329896  2 H  s                 46      1.329896  3 H  s          
    33     -0.627690  2 H  s                 47     -0.627690  3 H  s          
     4     -0.457585  1 O  s                 11     -0.450872  1 O  px         
    13     -0.366087  1 O  pz                 2     -0.200255  1 O  s          
    53     -0.187234  3 H  pz                39      0.175729  2 H  pz         
 
 Vector   10  Occ=0.000000D+00  E= 6.700158D-01
              MO Center= -3.1D-01, -3.1D-16, -2.5D-01, r^2= 2.3D+00
   Bfn.  Coefficient  Atom+Function         Bfn.  Coefficient  Atom+Function  
  ----- ------------  ---------------      ----- ------------  ---------------
     4      4.404400  1 O  s                 32     -2.244599  2 H  s          
    46     -2.244599  3 H  s                 11      2.065885  1 O  px         
    13      1.677403  1 O  pz                39      1.094425  2 H  pz         
    51      1.060161  3 H  px                33     -0.426733  2 H  s          
    47     -0.426733  3 H  s                 53     -0.276883  3 H  pz         
 
 Vector   11  Occ=0.000000D+00  E= 7.847309D-01
              MO Center=  1.7D-01,  3.8D-15,  1.4D-01, r^2= 2.0D+00
   Bfn.  Coefficient  Atom+Function         Bfn.  Coefficient  Atom+Function  
  ----- ------------  ---------------      ----- ------------  ---------------
    11      1.032098  1 O  px                32     -0.961743  2 H  s          
    46     -0.961743  3 H  s                 37     -0.846760  2 H  px         
    13      0.838015  1 O  pz                53     -0.840005  3 H  pz         
     4      0.791928  1 O  s                 33      0.220203  2 H  s          
    47      0.220203  3 H  s          
 
 Vector   12  Occ=0.000000D+00  E= 7.865168D-01
              MO Center= -5.1D-02, -1.7D-15, -4.1D-02, r^2= 1.7D+00
   Bfn.  Coefficient  Atom+Function         Bfn.  Coefficient  Atom+Function  
  ----- ------------  ---------------      ----- ------------  ---------------
    12      1.121856  1 O  py                 9     -0.774325  1 O  py         
     6     -0.259450  1 O  py         
 
 Vector   13  Occ=0.000000D+00  E= 8.067118D-01
              MO Center= -7.4D-02, -9.7D-16, -6.0D-02, r^2= 3.0D+00
   Bfn.  Coefficient  Atom+Function         Bfn.  Coefficient  Atom+Function  
  ----- ------------  ---------------      ----- ------------  ---------------
    13      2.259607  1 O  pz                11     -1.834696  1 O  px         
    32     -1.587290  2 H  s                 46      1.587290  3 H  s          
    33     -1.435471  2 H  s                 47      1.435471  3 H  s          
    39      1.168254  2 H  pz                51     -1.147838  3 H  px         
    21      0.393413  1 O  d  0              23     -0.227137  1 O  d  2       
 
 Vector   14  Occ=0.000000D+00  E= 8.630079D-01
              MO Center=  3.7D-01,  1.3D-15,  3.0D-01, r^2= 1.7D+00
   Bfn.  Coefficient  Atom+Function         Bfn.  Coefficient  Atom+Function  
  ----- ------------  ---------------      ----- ------------  ---------------
    38      0.842047  2 H  py                52     -0.842047  3 H  py         
 
 Vector   15  Occ=0.000000D+00  E= 9.423752D-01
              MO Center=  1.7D-01,  9.9D-16,  1.4D-01, r^2= 2.0D+00
   Bfn.  Coefficient  Atom+Function         Bfn.  Coefficient  Atom+Function  
  ----- ------------  ---------------      ----- ------------  ---------------
    12      1.159694  1 O  py                38     -0.984880  2 H  py         
    52     -0.984880  3 H  py         
 

 center of mass
 --------------
 x =  -0.07945981 y =   0.00000000 z =  -0.06451769

 moments of inertia (a.u.)
 ------------------
           3.448290467661           0.000000000000           0.837360279048
           0.000000000000           6.545188050589           0.000000000000
           0.837360279048           0.000000000000           3.096897582929
 
  Mulliken analysis of the total density
  --------------------------------------

    Atom       Charge   Shell Charges
 -----------   ------   -------------------------------------------------------
    1 O    8     8.49   1.95  1.00  0.23  0.61  1.25  2.14  1.29  0.00  0.02  0.00
    2 H    1     0.76   0.25  0.38  0.04  0.02  0.06  0.01
    3 H    1     0.76   0.25  0.38  0.04  0.02  0.06  0.01
 
       Multipole analysis of the density wrt the origin
       ------------------------------------------------
 
     L   x y z        total         open         nuclear
     -   - - -        -----         ----         -------
     0   0 0 0     -0.000000      0.000000     10.000000
 
     1   1 0 0      0.635845      0.000000     -0.000000
     1   0 1 0     -0.000000      0.000000      0.000000
     1   0 0 1      0.516277      0.000000      0.000000
 
     2   2 0 0     -3.933310      0.000000      2.929494
     2   1 1 0     -0.000000      0.000000      0.000000
     2   1 0 1     -0.634593      0.000000     -0.947259
     2   0 2 0     -5.451357      0.000000      0.000000
     2   0 1 1      0.000000      0.000000      0.000000
     2   0 0 2     -3.667008      0.000000      3.327005
 
                   NWChem Extensible Many-Electron Theory Module
                   ---------------------------------------------
 
              ======================================================
                   This portion of the program was automatically
                  generated by a Tensor Contraction Engine (TCE).
                  The development of this portion of the program
                 and TCE was supported by US Department of Energy,
                Office of Science, Office of Basic Energy Science.
                      TCE is a product of Battelle and PNNL.
              Please cite: S.Hirata, J.Phys.Chem.A 107, 9887 (2003).
              ======================================================
 
                                        H2O
 
 
            General Information
            -------------------
      Number of processors :     1
         Wavefunction type : Restricted Hartree-Fock
          No. of electrons :    10
           Alpha electrons :     5
            Beta electrons :     5
           No. of orbitals :   116
            Alpha orbitals :    58
             Beta orbitals :    58
        Alpha frozen cores :     0
         Beta frozen cores :     0
     Alpha frozen virtuals :     0
      Beta frozen virtuals :     0
         Spin multiplicity : singlet 
    Number of AO functions :    58
       Number of AO shells :    22
        Use of symmetry is : off
      Symmetry adaption is : off
         Schwarz screening : 0.10D-09
 
          Correlation Information
          -----------------------
          Calculation type : Coupled-cluster singles & doubles                           
   Perturbative correction : none                                                        
            Max iterations :      300
        Residual threshold : 0.10D-06
     T(0) DIIS level shift : 0.00D+00
     L(0) DIIS level shift : 0.00D+00
     T(1) DIIS level shift : 0.00D+00
     L(1) DIIS level shift : 0.00D+00
     T(R) DIIS level shift : 0.00D+00
     T(I) DIIS level shift : 0.00D+00
   CC-T/L Amplitude update :  5-th order DIIS
                I/O scheme : Global Array Library
        L-threshold :  0.10D-06
        EOM-threshold :  0.10D-06
 no EOMCCSD initial starts read in
 TCE RESTART OPTIONS
 READ_INT:   F
 WRITE_INT:  F
 READ_TA:    F
 WRITE_TA:   F
 READ_XA:    F
 WRITE_XA:   F
 READ_IN3:   F
 WRITE_IN3:  F
 SLICE:      F
 D4D5:       F
 quantumc:   F
 qrotation:  F
 pwtce:      F
 qducc:      T
 nacto:                          0
 nrotv:                          0
 nrot:                           0
 
            Memory Information
            ------------------
          Available GA space size is    1610609372 doubles
          Available MA space size is    1610609756 doubles
 
 Maximum block size        32 doubles

 tile_dim =     27

 Block   Spin    Irrep     Size     Offset   Alpha
 -------------------------------------------------
   1    alpha     a      5 doubles       0       1
   2    beta      a      5 doubles       5       1
   3    alpha     a     26 doubles      10       3
   4    alpha     a     27 doubles      36       4
   5    beta      a     26 doubles      63       3
   6    beta      a     27 doubles      89       4

 Global array virtual files algorithm will be used

 Parallel file system coherency ......... OK
 
 Fock matrix recomputed
 1-e file size   =             3364
 1-e file name   = ./H2O.f1
 Cpu & wall time / sec            0.1            0.1
 4-electron integrals stored in orbital form
 
 v2    file size   =          3631290
 4-index algorithm nr.  13 is used
 imaxsize =       30
 imaxsize ichop =        0
 Cpu & wall time / sec            1.4            1.4
 T1-number-of-tasks                     2
 
 t1 file size   =              265
 t1 file name   = ./H2O.t1
 t1 file handle =       -998
 T2-number-of-boxes                     7
 
 t2 file size   =           122900
 t2 file name   = ./H2O.t2
 t2 file handle =       -996
CCSD iterations
 ---------------------------------------------------------
 Iter          Residuum       Correlation     Cpu    Wall 
 ---------------------------------------------------------
NEW TASK SCHEDULING
CCSD_T1_NTS --- OK
CCSD_T2_NTS --- OK
    1   0.1393328670138  -0.2765316707136     0.2     0.2
    2   0.0306964568187  -0.2775228720600     0.2     0.2
    3   0.0104527397170  -0.2813143008041     0.2     0.2
    4   0.0041539346804  -0.2817399527232     0.2     0.2
    5   0.0017298821421  -0.2820106205767     0.2     0.2
 MICROCYCLE DIIS UPDATE:                     5                     5
    6   0.0003462484997  -0.2821356063746     0.2     0.2
    7   0.0001360933665  -0.2821481491000     0.2     0.2
    8   0.0000521979084  -0.2821475112053     0.2     0.2
    9   0.0000288138746  -0.2821477128969     0.2     0.2
   10   0.0000141204919  -0.2821479912968     0.2     0.2
 MICROCYCLE DIIS UPDATE:                    10                     5
   11   0.0000028924259  -0.2821484783032     0.2     0.2
   12   0.0000013140528  -0.2821482904020     0.2     0.2
   13   0.0000006252437  -0.2821483150804     0.2     0.2
   14   0.0000003669012  -0.2821483045411     0.2     0.2
   15   0.0000001991683  -0.2821483036016     0.2     0.2
 MICROCYCLE DIIS UPDATE:                    15                     5
   16   0.0000000306883  -0.2821482992949     0.2     0.2
 -----------------------------------------------------------------
 Iterations converged
 CCSD correlation energy / hartree =        -0.282148299294924
 CCSD total energy / hartree       =       -76.337227295793028

 Singles contributions

 Doubles contributions
     7a   (alpha)     7a   (beta ) ---     3a   (alpha)     3a   (beta )       -0.0210669096
     8a   (alpha)     8a   (beta ) ---     3a   (alpha)     3a   (beta )       -0.0284752524
     8a   (alpha)     8a   (beta ) ---     4a   (alpha)     4a   (beta )       -0.0227093097
     9a   (alpha)     9a   (beta ) ---     3a   (alpha)     3a   (beta )       -0.0254920405
    10a   (alpha)    10a   (beta ) ---     4a   (alpha)     4a   (beta )       -0.0292314949
    10a   (alpha)    12a   (beta ) ---     4a   (alpha)     5a   (beta )        0.0258348097
    12a   (alpha)    10a   (beta ) ---     5a   (alpha)     4a   (beta )        0.0258348097
    12a   (alpha)    12a   (beta ) ---     5a   (alpha)     5a   (beta )       -0.0477749741
    12a   (alpha)    13a   (beta ) ---     5a   (alpha)     3a   (beta )       -0.0222582929
    13a   (alpha)    12a   (beta ) ---     3a   (alpha)     5a   (beta )       -0.0222582929
    13a   (alpha)    13a   (beta ) ---     3a   (alpha)     3a   (beta )       -0.0224591663
 Ground state specification:
 exp(T)|Ref>~(1+T)|Ref>
 ------- a(p)+/a(q) strings ----------

 singles norm

 doubles norm

 Reference string
   1.00000000000000      :(1a)+ (2a)+ (3a)+ (4a)+ (5a)+ (1b)+ (2b)+ (3b)+ (4b)+ 
 (5b)+ |0>

 Singles strings

 Doubles strings
 -------------------------------------
 enrep_tce =    9.02877417356384     
  EHF(total)         =       -76.05507900
  Shift (HFtot-HFA)  =         0.00000000
 ALL OCCUPIED ORBITALS ARE ACTIVE IN DUCC --> NO SHIFT
 Number of active orbitals                     8
 Number of active alpha electrons                     5
 Number of active beta electrons                     5
  nos                     10
  nvs                    106
 noas                      5
 nobs                      5
 nvas                     53
 nvbs                     53
 nactv                      3
 DUCC MODEL =                      6
 NONHF =  T
 F-T1 correlation    =   1.317355603973091E-007
 V-T1-T1 correlation =   3.498014487303318E-005
 V-T2 correlation    =  -0.282183411175321     
 Total correlation   =  -0.282148299294887     
 F-T1(Ext) correlation         =   9.506816197425198E-008
 V-T1(Ext)-T1(Ext) correlation =   3.153790300164586E-005
 V-T2(Ext) correlation         =  -0.274000350117837     
 Total Ext correlation         =  -0.273968717146673     
1-BODY TIME =  278.656 SECONDS.
  HHHH TIME =  279.598 SECONDS.
  PPPP TIME =    2.653 SECONDS.
  HHHP TIME =   23.439 SECONDS.
  PPPH TIME =    6.670 SECONDS.
  HPHP TIME =   19.990 SECONDS.
  HHPP TIME =   11.921 SECONDS.
 ONE-BODY UNITARY CHECK
 TWO-BODY UNITARY CHECK
                     1                     3                     2
                     3 -1.492053008922412E-012
                     1                     3                     3
                     2  2.494868894808988E-012
                     1                     4                     2
                     4 -1.252185855005195E-012
                     1                     4                     4
                     2  1.689086370770809E-012
                     1                     5                     2
                     5 -1.391838033715231E-012
                     1                     5                     5
                     2  1.132212379406639E-012
                     1                     6                     2
                     9 -2.214544519985040E-012
                     1                     6                     3
                     8  1.470951832560630E-012
                     1                     6                     4
                     9  1.010060091122256E-012
                     1                     6                     5
                    10 -1.471309185596681E-012
                     1                     6                     7
                     4  2.274132271384843E-012
                     1                     6                     8
                     3 -1.470951832560630E-012
                     1                     6                     9
                     1  1.017103068434722E-012
                     1                     6                     9
                     4 -1.010060091122256E-012
                     1                     6                    10
                     5  1.471309185596681E-012
                     1                     7                     2
                     7 -1.437102173373894E-012
                     1                     7                     5
                    10 -2.006450561253814E-012
                     1                     7                     7
                     2  1.707941080231201E-012
                     1                     7                     9
                     2 -1.160957614765312E-012
                     1                     7                    10
                     5  2.595760412171799E-012
                     1                     8                     2
                     8 -2.914727487146607E-012
                     1                     8                     3
                     7 -1.248348646676334E-012
                     1                     8                     4
                     8  1.207161974547954E-012
                     1                     8                     7
                     3  1.422618967072964E-012
                     1                     8                     8
                     2  3.743302542935645E-012
                     1                     8                     8
                     4 -1.552703278451251E-012
                     1                     8                     9
                     3 -1.240521140671857E-012
                     1                     9                     2
                     9 -2.719022923480807E-012
                     1                     9                     3
                     8  2.356563728878047E-012
                     1                     9                     4
                     9  2.249228581163720E-012
                     1                     9                     7
                     2 -1.649219823207648E-012
                     1                     9                     7
                     4  1.466885640732940E-012
                     1                     9                     8
                     3 -2.487450783544842E-012
                     1                     9                     9
                     2  2.373110388753652E-012
                     1                     9                     9
                     4 -1.859012943583593E-012
                     1                    10                     2
                    10 -2.253992131828753E-012
                     1                    10                     5
                     7 -1.707918528826013E-012
                     1                    10                    10
                     2  2.839914067798155E-012
                     2                     2                     2
                     4 -1.030146176381019E-011
                     2                     2                     4
                     2  1.030145279558417E-011
                     2                     3                     1
                     3  1.492053008922412E-012
                     2                     3                     3
                     4 -3.167794455569140E-011
                     2                     3                     4
                     3  2.774554110768213E-011
                     2                     4                     1
                     4  1.252185855005195E-012
                     2                     4                     2
                     2  1.030146176381019E-011
                     2                     4                     3
                     3 -3.712806308368514E-012
                     2                     4                     4
                     2  1.431410545649214E-012
                     2                     4                     4
                     4 -2.872333916292452E-012
                     2                     5                     1
                     5  1.391838033715231E-012
                     2                     5                     4
                     5  2.930341993362395E-011
                     2                     5                     5
                     2  1.713718056350899E-011
                     2                     5                     5
                     4 -3.642311018764444E-011
                     2                     6                     2
                     7 -1.094615717511793E-012
                     2                     6                     4
                     9 -1.500268659304638E-012
                     2                     6                     5
                    10 -2.453277164748968E-012
                     2                     6                    10
                     5  1.863967313830983E-012
                     2                     7                     1
                     7  1.437102173373894E-012
                     2                     7                     2
                     6  1.094615717511793E-012
                     2                     7                     2
                     9 -8.346658433855403E-012
                     2                     7                     3
                     8 -2.006517174635292E-011
                     2                     7                     4
                     7  2.980446098255207E-011
                     2                     7                     4
                     9 -1.315884901043063E-011
                     2                     7                     5
                    10 -3.913379342801449E-011
                     2                     7                     6
                     2 -1.707946284401629E-012
                     2                     7                     6
                     4  1.649231966271980E-012
                     2                     7                     7
                     4 -1.954814782267889E-012
                     2                     7                     8
                     3  2.006517174635292E-011
                     2                     7                     9
                     2 -1.950297388864097E-011
                     2                     7                     9
                     4  1.315884901043063E-011
                     2                     7                    10
                     5  3.913379342801449E-011
                     2                     8                     1
                     8  2.914727487146607E-012
                     2                     8                     3
                     7 -1.706917940325070E-011
                     2                     8                     3
                     9  2.622015625453056E-011
                     2                     8                     4
                     8  5.363216641629531E-011
                     2                     8                     6
                     3 -1.422608558732108E-012
                     2                     8                     8
                     2  1.641276003994108E-011
                     2                     8                     8
                     4 -5.789815328560710E-011
                     2                     8                     9
                     3 -2.588660188984626E-011
                     2                     9                     1
                     6  2.214544519985040E-012
                     2                     9                     1
                     9  2.719022923480807E-012
                     2                     9                     2
                     7  8.346658433855403E-012
                     2                     9                     3
                     8  3.765425818369472E-011
                     2                     9                     4
                     7 -9.427014724394667E-012
                     2                     9                     4
                     9  8.093886672000394E-011
                     2                     9                     5
                    10  2.145313787726977E-011
                     2                     9                     6
                     1 -2.274107985256180E-012
                     2                     9                     6
                     4 -1.466875232392084E-012
                     2                     9                     7
                     2  1.954804373927033E-012
                     2                     9                     8
                     3 -4.136706602264617E-011
                     2                     9                     9
                     2  1.085820322543896E-011
                     2                     9                     9
                     4 -8.381129124046538E-011
                     2                     9                    10
                     5 -2.201837323578815E-011
                     2                    10                     1
                    10  2.253992131828753E-012
                     2                    10                     4
                    10  3.858616204333032E-011
                     2                    10                     5
                     6 -1.132736265896384E-012
                     2                    10                     5
                     7 -3.185873787003857E-011
                     2                    10                     5
                     9  1.746991093454220E-011
                     2                    10                     9
                     5 -9.282685731193396E-012
                     2                    10                    10
                     2  4.899636252275741E-011
                     2                    10                    10
                     4 -5.389306362291180E-011
                     3                     1                     3
                     2 -1.723815534759865E-012
                     3                     1                     3
                     4  1.440316615974879E-012
                     3                     2                     1
                     3 -2.494868894808988E-012
                     3                     2                     3
                     1  1.723815534759865E-012
                     3                     2                     3
                     4  2.179885178615892E-012
                     3                     2                     4
                     3  1.752515667308163E-012
                     3                     3                     2
                     4  3.712806308368514E-012
                     3                     3                     4
                     2 -3.712808892083701E-012
                     3                     4                     2
                     3  3.167794455569140E-011
                     3                     4                     3
                     1 -1.440316615974879E-012
                     3                     4                     3
                     2 -2.179885178615892E-012
                     3                     4                     4
                     3  2.000333232388130E-011
                     3                     5                     5
                     3  5.239297884429561E-011
                     3                     6                     3
                     7 -1.164985642676530E-012
                     3                     6                     3
                     9  1.425081407047113E-012
                     3                     6                     9
                     3 -1.079539235782079E-012
                     3                     7                     1
                     8  1.248348646676334E-012
                     3                     7                     2
                     8  1.706917940325070E-011
                     3                     7                     3
                     6  1.164985642676530E-012
                     3                     7                     4
                     8 -2.712772714796863E-012
                     3                     7                     6
                     3 -3.743301675573907E-012
                     3                     7                     7
                     3 -1.641276003994108E-011
                     3                     7                     8
                     4  2.379218350112566E-012
                     3                     7                     9
                     3  4.465343025894519E-012
                     3                     8                     1
                     6 -1.470951832560630E-012
                     3                     8                     1
                     9 -2.356563728878047E-012
                     3                     8                     2
                     7  2.006517174635292E-011
                     3                     8                     2
                     9 -3.765425818369472E-011
                     3                     8                     4
                     6 -1.715843179345145E-012
                     3                     8                     4
                     7 -1.614867267685227E-011
                     3                     8                     4
                     9  1.311811770321469E-012
                     3                     8                     5
                    10 -2.368691007226253E-011
                     3                     8                     6
                     1  1.470924076985014E-012
                     3                     8                     6
                     4  2.487458156119615E-012
                     3                     8                     7
                     2 -2.006517174635292E-011
                     3                     8                     7
                     4  4.136702959345318E-011
                     3                     8                     9
                     1  1.584947884741839E-012
                     3                     8                     9
                     2  1.243590300181729E-011
                     3                     8                     9
                     4 -1.312006059350779E-012
                     3                     8                    10
                     5  2.368686496945216E-011
                     3                     9                     2
                     8 -2.622015625453056E-011
                     3                     9                     3
                     6 -1.425081407047113E-012
                     3                     9                     4
                     8  3.756793487408316E-012
                     3                     9                     6
                     3  1.552711084706893E-012
                     3                     9                     7
                     3  5.789814981616015E-011
                     3                     9                     8
                     2 -2.379209676495186E-012
                     3                     9                     9
                     3  1.624766987617932E-011
                     3                    10                     5
                     8 -2.300862278481475E-011
                     3                    10                    10
                     3  7.540168489583721E-011
                     4                     2                     1
                     4 -1.689086370770809E-012
                     4                     2                     2
                     2 -1.030145279558417E-011
                     4                     2                     2
                     4 -1.431410545649214E-012
                     4                     2                     3
                     3  3.712808892083701E-012
                     4                     2                     4
                     4  2.872339966754673E-012
                     4                     3                     2
                     3 -2.774554110768213E-011
                     4                     3                     3
                     2 -1.752515667308163E-012
                     4                     3                     3
                     4 -2.000333232388130E-011
                     4                     4                     2
                     4  2.872333916292452E-012
                     4                     4                     4
                     2 -2.872339966754673E-012
                     4                     5                     2
                     5 -2.930341993362395E-011
                     4                     5                     5
                     2 -1.142433456863268E-011
                     4                     5                     5
                     4  3.736366771533994E-011
                     4                     6                     3
                     8  1.715843179345145E-012
                     4                     6                     6
                     1 -1.017103068434722E-012
                     4                     6                     8
                     3 -1.584956124678349E-012
                     4                     6                     9
                     4 -1.027983254076048E-012
                     4                     6                    10
                     5 -1.060571769295748E-012
                     4                     7                     2
                     7 -2.980446098255207E-011
                     4                     7                     2
                     9  9.427014724394667E-012
                     4                     7                     3
                     8  1.614867267685227E-011
                     4                     7                     4
                     9 -5.372285949434286E-012
                     4                     7                     5
                    10  2.648662539295188E-012
                     4                     7                     6
                     2  1.160969757829644E-012
                     4                     7                     6
                     4 -2.373119062371032E-012
                     4                     7                     7
                     2  1.950298776642878E-011
                     4                     7                     7
                     4 -1.085820322543896E-011
                     4                     7                     8
                     3 -1.243586483790082E-011
                     4                     7                     9
                     4  8.244432914139566E-012
                     4                     7                    10
                     5 -2.083427180776809E-012
                     4                     8                     1
                     8 -1.207161974547954E-012
                     4                     8                     2
                     8 -5.363216641629531E-011
                     4                     8                     3
                     7  2.712772714796863E-012
                     4                     8                     3
                     9 -3.756793487408316E-012
                     4                     8                     6
                     3  1.240518104905775E-012
                     4                     8                     7
                     3  2.588659321622888E-011
                     4                     8                     8
                     1  1.079531429526437E-012
                     4                     8                     8
                     2 -4.465306596701524E-012
                     4                     8                     8
                     4 -1.624766987617932E-011
                     4                     9                     1
                     6 -1.010060091122256E-012
                     4                     9                     1
                     9 -2.249228581163720E-012
                     4                     9                     2
                     6  1.500268659304638E-012
                     4                     9                     2
                     7  1.315884901043063E-011
                     4                     9                     2
                     9 -8.093886672000394E-011
                     4                     9                     3
                     8 -1.311811770321469E-012
                     4                     9                     4
                     7  5.372285949434286E-012
                     4                     9                     5
                    10 -3.338523207885302E-011
                     4                     9                     6
                     1  1.010060091122256E-012
                     4                     9                     6
                     4  1.859021617200973E-012
                     4                     9                     7
                     2 -1.315884901043063E-011
                     4                     9                     7
                     4  8.381108307364826E-011
                     4                     9                     8
                     3  1.311784014745854E-012
                     4                     9                     9
                     1  1.027981519352572E-012
                     4                     9                     9
                     2 -8.244696592107914E-012
                     4                     9                    10
                     5  3.338544718456404E-011
                     4                    10                     2
                    10 -3.858616204333032E-011
                     4                    10                     5
                     7  3.959440414424975E-012
                     4                    10                     5
                     9 -1.535534199792465E-011
                     4                    10                     7
                     5  9.282692670087300E-012
                     4                    10                    10
                     2 -1.538371513509773E-011
                     4                    10                    10
                     4  5.271949543583787E-011
                     5                     2                     1
                     5 -1.132212379406639E-012
                     5                     2                     2
                     5 -1.713718056350899E-011
                     5                     2                     4
                     5  1.142433456863268E-011
                     5                     2                     5
                     4 -4.304628702100910E-012
                     5                     3                     3
                     5 -5.239297884429561E-011
                     5                     4                     2
                     5  3.642311018764444E-011
                     5                     4                     4
                     5 -3.736366771533994E-011
                     5                     4                     5
                     2  4.304628702100910E-012
                     5                     6                     2
                    10  1.132736265896384E-012
                     5                     6                     5
                     9 -1.073506734894369E-012
                     5                     7                     1
                    10  1.707918528826013E-012
                     5                     7                     2
                    10  3.185873787003857E-011
                     5                     7                     4
                    10 -3.959440414424975E-012
                     5                     7                     6
                     5 -2.839915802521631E-012
                     5                     7                     7
                     5 -4.899636252275741E-011
                     5                     7                     9
                     5  1.538370125730992E-011
                     5                     7                    10
                     4 -4.227791727817731E-012
                     5                     8                     3
                    10  2.300862278481475E-011
                     5                     8                     8
                     5 -7.540168489583721E-011
                     5                     9                     2
                    10 -1.746991093454220E-011
                     5                     9                     4
                    10  1.535534199792465E-011
                     5                     9                     5
                     6  1.073506734894369E-012
                     5                     9                     7
                     5  5.389308443959351E-011
                     5                     9                     9
                     5 -5.271949543583787E-011
                     5                     9                    10
                     2  4.227788258370779E-012
                     5                    10                     1
                     6  1.471309185596681E-012
                     5                    10                     1
                     7  2.006450561253814E-012
                     5                    10                     2
                     6  2.453277164748968E-012
                     5                    10                     2
                     7  3.913379342801449E-011
                     5                    10                     2
                     9 -2.145313787726977E-011
                     5                    10                     3
                     8  2.368691007226253E-011
                     5                    10                     4
                     7 -2.648662539295188E-012
                     5                    10                     4
                     9  3.338523207885302E-011
                     5                    10                     6
                     1 -1.471309185596681E-012
                     5                    10                     6
                     2 -2.595788167747415E-012
                     5                    10                     7
                     1 -1.863939558255368E-012
                     5                    10                     7
                     2 -3.913379342801449E-011
                     5                    10                     7
                     4  2.201836976634119E-011
                     5                    10                     8
                     3 -2.368693435839120E-011
                     5                    10                     9
                     1  1.060559626231417E-012
                     5                    10                     9
                     2  2.083430650223761E-012
                     5                    10                     9
                     4 -3.338516268991398E-011
                     6                     1                     2
                     9  2.274107985256180E-012
                     6                     1                     3
                     8 -1.470924076985014E-012
                     6                     1                     4
                     6  1.017103068434722E-012
                     6                     1                     4
                     9 -1.010060091122256E-012
                     6                     1                     5
                    10  1.471309185596681E-012
                     6                     1                     7
                     4 -2.214568806113704E-012
                     6                     1                     8
                     3  1.470924076985014E-012
                     6                     1                     9
                     4  1.010060091122256E-012
                     6                     1                    10
                     5 -1.471309185596681E-012
                     6                     2                     2
                     7  1.707946284401629E-012
                     6                     2                     4
                     7 -1.160969757829644E-012
                     6                     2                     5
                    10  2.595788167747415E-012
                     6                     2                     7
                     2 -1.437105642820846E-012
                     6                     2                    10
                     5 -2.006478316829430E-012
                     6                     3                     2
                     8  1.422608558732108E-012
                     6                     3                     3
                     7  3.743301675573907E-012
                     6                     3                     3
                     9 -1.552711084706893E-012
                     6                     3                     4
                     8 -1.240518104905775E-012
                     6                     3                     7
                     3 -2.914729221870083E-012
                     6                     3                     8
                     2 -1.248338238335478E-012
                     6                     3                     9
                     3  1.207170648165334E-012
                     6                     4                     2
                     7 -1.649231966271980E-012
                     6                     4                     2
                     9  1.466875232392084E-012
                     6                     4                     3
                     8 -2.487458156119615E-012
                     6                     4                     4
                     7  2.373119062371032E-012
                     6                     4                     4
                     9 -1.859021617200973E-012
                     6                     4                     7
                     4 -2.719031597098187E-012
                     6                     4                     8
                     3  2.356571535133689E-012
                     6                     4                     9
                     4  2.249268479803668E-012
                     6                     5                     5
                     7  2.839915802521631E-012
                     6                     5                     7
                     5 -2.253993866552229E-012
                     6                     5                    10
                     2 -1.707925467719917E-012
                     6                     8                     7
                     8 -1.492056478369364E-012
                     6                     8                     8
                     7  2.494868894808988E-012
                     6                     9                     7
                     9 -1.252185855005195E-012
                     6                     9                     9
                     7  1.689086370770809E-012
                     6                    10                     7
                    10 -1.391838033715231E-012
                     6                    10                    10
                     7  1.132212379406639E-012
                     7                     1                     5
                    10  1.863939558255368E-012
                     7                     1                     7
                     2 -1.094612248064841E-012
                     7                     1                     9
                     4 -1.500237434282070E-012
                     7                     1                    10
                     5 -2.453249409173353E-012
                     7                     2                     1
                     7 -1.707941080231201E-012
                     7                     2                     1
                     9  1.649219823207648E-012
                     7                     2                     2
                     9 -1.954804373927033E-012
                     7                     2                     3
                     8  2.006517174635292E-011
                     7                     2                     4
                     7 -1.950298776642878E-011
                     7                     2                     4
                     9  1.315884901043063E-011
                     7                     2                     5
                    10  3.913379342801449E-011
                     7                     2                     6
                     2  1.437105642820846E-012
                     7                     2                     7
                     1  1.094612248064841E-012
                     7                     2                     7
                     4 -8.346654964408451E-012
                     7                     2                     8
                     3 -2.006517174635292E-011
                     7                     2                     9
                     2  2.980444710476426E-011
                     7                     2                     9
                     4 -1.315884901043063E-011
                     7                     2                    10
                     5 -3.913379342801449E-011
                     7                     3                     1
                     8 -1.422618967072964E-012
                     7                     3                     3
                     7  1.641276003994108E-011
                     7                     3                     3
                     9 -5.789814981616015E-011
                     7                     3                     4
                     8 -2.588659321622888E-011
                     7                     3                     6
                     3  2.914729221870083E-012
                     7                     3                     8
                     2 -1.706909613652385E-011
                     7                     3                     8
                     4  2.622014584618970E-011
                     7                     3                     9
                     3  5.363211263986756E-011
                     7                     4                     1
                     6 -2.274132271384843E-012
                     7                     4                     1
                     9 -1.466885640732940E-012
                     7                     4                     2
                     7  1.954814782267889E-012
                     7                     4                     3
                     8 -4.136702959345318E-011
                     7                     4                     4
                     7  1.085820322543896E-011
                     7                     4                     4
                     9 -8.381108307364826E-011
                     7                     4                     5
                    10 -2.201836976634119E-011
                     7                     4                     6
                     1  2.214568806113704E-012
                     7                     4                     6
                     4  2.719031597098187E-012
                     7                     4                     7
                     2  8.346654964408451E-012
                     7                     4                     8
                     3  3.765422175450173E-011
                     7                     4                     9
                     2 -9.427222891211784E-012
                     7                     4                     9
                     4  8.093889447557956E-011
                     7                     4                    10
                     5  2.145314134671672E-011
                     7                     5                     4
                    10 -9.282692670087300E-012
                     7                     5                     5
                     7  4.899636252275741E-011
                     7                     5                     5
                     9 -5.389308443959351E-011
                     7                     5                     6
                     5  2.253993866552229E-012
                     7                     5                     9
                     5  3.858618286001203E-011
                     7                     5                    10
                     1 -1.132743204790287E-012
                     7                     5                    10
                     2 -3.185890440349226E-011
                     7                     5                    10
                     4  1.746992481233001E-011
                     7                     7                     7
                     9 -1.030146069323168E-011
                     7                     7                     9
                     7  1.030146207916287E-011
                     7                     8                     6
                     8  1.492056478369364E-012
                     7                     8                     8
                     9 -3.167793891784010E-011
                     7                     8                     9
                     8  2.774553763823517E-011
                     7                     9                     6
                     9  1.252185855005195E-012
                     7                     9                     7
                     7  1.030146069323168E-011
                     7                     9                     8
                     8 -3.712808492042200E-012
                     7                     9                     9
                     7  1.431410545649214E-012
                     7                     9                     9
                     9 -2.872333841684276E-012
                     7                    10                     6
                    10  1.391838033715231E-012
                     7                    10                     9
                    10  2.930340865792136E-011
                     7                    10                    10
                     7  1.713729158581145E-011
                     7                    10                    10
                     9 -3.642310238138879E-011
                     8                     1                     4
                     8 -1.079531429526437E-012
                     8                     1                     8
                     2 -1.164987377400006E-012
                     8                     1                     8
                     4  1.425072733429733E-012
                     8                     2                     1
                     8 -3.743302542935645E-012
                     8                     2                     2
                     8 -1.641276003994108E-011
                     8                     2                     3
                     9  2.379209676495186E-012
                     8                     2                     4
                     8  4.465306596701524E-012
                     8                     2                     6
                     3  1.248338238335478E-012
                     8                     2                     7
                     3  1.706909613652385E-011
                     8                     2                     8
                     1  1.164987377400006E-012
                     8                     2                     9
                     3 -2.712764041179483E-012
                     8                     3                     1
                     6  1.470951832560630E-012
                     8                     3                     1
                     9  2.487450783544842E-012
                     8                     3                     2
                     7 -2.006517174635292E-011
                     8                     3                     2
                     9  4.136706602264617E-011
                     8                     3                     4
                     6  1.584956124678349E-012
                     8                     3                     4
                     7  1.243586483790082E-011
                     8                     3                     4
                     9 -1.311784014745854E-012
                     8                     3                     5
                    10  2.368693435839120E-011
                     8                     3                     6
                     1 -1.470924076985014E-012
                     8                     3                     6
                     4 -2.356571535133689E-012
                     8                     3                     7
                     2  2.006517174635292E-011
                     8                     3                     7
                     4 -3.765422175450173E-011
                     8                     3                     9
                     1 -1.715834939408634E-012
                     8                     3                     9
                     2 -1.614871084076874E-011
                     8                     3                     9
                     4  1.311929731517836E-012
                     8                     3                    10
                     5 -2.368689272502777E-011
                     8                     4                     1
                     8  1.552703278451251E-012
                     8                     4                     2
                     8  5.789815328560710E-011
                     8                     4                     3
                     7 -2.379218350112566E-012
                     8                     4                     4
                     8  1.624766987617932E-011
                     8                     4                     7
                     3 -2.622014584618970E-011
                     8                     4                     8
                     1 -1.425072733429733E-012
                     8                     4                     9
                     3  3.756779609620509E-012
                     8                     5                     5
                     8  7.540168489583721E-011
                     8                     5                    10
                     3 -2.300865054039036E-011
                     8                     6                     8
                     7 -1.723819004206817E-012
                     8                     6                     8
                     9  1.440316615974879E-012
                     8                     7                     6
                     8 -2.494868894808988E-012
                     8                     7                     8
                     6  1.723819004206817E-012
                     8                     7                     8
                     9  2.179886045977630E-012
                     8                     7                     9
                     8  1.752515233627294E-012
                     8                     8                     7
                     9  3.712808492042200E-012
                     8                     8                     9
                     7 -3.712807125169251E-012
                     8                     9                     7
                     8  3.167793891784010E-011
                     8                     9                     8
                     6 -1.440316615974879E-012
                     8                     9                     8
                     7 -2.179886045977630E-012
                     8                     9                     9
                     8  2.000333232388130E-011
                     8                    10                    10
                     8  5.239297884429561E-011
                     9                     1                     1
                     6 -1.017103068434722E-012
                     9                     1                     3
                     8 -1.584947884741839E-012
                     9                     1                     4
                     9 -1.027981519352572E-012
                     9                     1                     5
                    10 -1.060559626231417E-012
                     9                     1                     8
                     3  1.715834939408634E-012
                     9                     2                     1
                     7  1.160957614765312E-012
                     9                     2                     1
                     9 -2.373110388753652E-012
                     9                     2                     2
                     7  1.950297388864097E-011
                     9                     2                     2
                     9 -1.085820322543896E-011
                     9                     2                     3
                     8 -1.243590300181729E-011
                     9                     2                     4
                     9  8.244696592107914E-012
                     9                     2                     5
                    10 -2.083430650223761E-012
                     9                     2                     7
                     2 -2.980444710476426E-011
                     9                     2                     7
                     4  9.427222891211784E-012
                     9                     2                     8
                     3  1.614871084076874E-011
                     9                     2                     9
                     4 -5.372369216161132E-012
                     9                     2                    10
                     5  2.648666008742140E-012
                     9                     3                     1
                     8  1.240521140671857E-012
                     9                     3                     2
                     8  2.588660188984626E-011
                     9                     3                     3
                     6  1.079539235782079E-012
                     9                     3                     3
                     7 -4.465343025894519E-012
                     9                     3                     3
                     9 -1.624766987617932E-011
                     9                     3                     6
                     3 -1.207170648165334E-012
                     9                     3                     7
                     3 -5.363211263986756E-011
                     9                     3                     8
                     2  2.712764041179483E-012
                     9                     3                     8
                     4 -3.756779609620509E-012
                     9                     4                     1
                     6  1.010060091122256E-012
                     9                     4                     1
                     9  1.859012943583593E-012
                     9                     4                     2
                     7 -1.315884901043063E-011
                     9                     4                     2
                     9  8.381129124046538E-011
                     9                     4                     3
                     8  1.312006059350779E-012
                     9                     4                     4
                     6  1.027983254076048E-012
                     9                     4                     4
                     7 -8.244432914139566E-012
                     9                     4                     5
                    10  3.338516268991398E-011
                     9                     4                     6
                     1 -1.010060091122256E-012
                     9                     4                     6
                     4 -2.249268479803668E-012
                     9                     4                     7
                     1  1.500237434282070E-012
                     9                     4                     7
                     2  1.315884901043063E-011
                     9                     4                     7
                     4 -8.093889447557956E-011
[...]
    6    6    8    7        0.0261538774
    6    6    8    8        0.2857139086
    6    7    8    1        0.0013622249
    6    7    8    2       -0.0064089380
    6    7    8    4        0.0253454210
    6    7    8    6        0.0001017975
    6    8    8    1        0.0003104684
    6    8    8    2       -0.0114217820
    6    8    8    4        0.0053504496
    6    8    8    6        0.0173649879
    7    1    1    1        0.0000000001
    7    1    1    3       -0.0104420634
    7    1    1    7        0.0044986125
    7    1    1    8        0.0037859139
    7    2    1    1       -0.0000000002
    7    2    1    3       -0.0082863139
    7    2    1    7        0.0036951268
    7    2    1    8        0.0030941970
    7    3    1    1       -0.1659499108
    7    3    1    2        0.0005982652
    7    3    1    4        0.0003018146
    7    3    1    6        0.0005041577
    7    4    1    1        0.0000000001
    7    4    1    3       -0.0029385183
    7    4    1    7        0.0014403017
    7    4    1    8        0.0014447144
    7    6    1    3       -0.0038815642
    7    6    1    7        0.0016989512
    7    6    1    8        0.0013622249
    7    7    1    1        0.3362418027
    7    7    1    2       -0.0014320739
    7    7    1    4       -0.0014240440
    7    7    1    6       -0.0001239603
    7    8    1    1        0.1107282937
    7    8    1    2       -0.0014672342
    7    8    1    4        0.0002002633
    7    8    1    6       -0.0004763337
    7    1    2    3       -0.0111216279
    7    1    2    7        0.0036951268
    7    1    2    8        0.0026277658
    7    2    2    2       -0.0000000001
    7    2    2    3       -0.0325592531
    7    2    2    7        0.0127250136
    7    2    2    8        0.0099580461
    7    3    2    1        0.0014669906
    7    3    2    2       -0.0950030637
    7    3    2    4       -0.0144172591
    7    3    2    6       -0.0204848939
    7    4    2    3       -0.0156826161
    7    4    2    7        0.0025324386
    7    4    2    8        0.0024615369
    7    6    2    3       -0.0412277359
    7    6    2    7       -0.0007405532
    7    6    2    8       -0.0064089380
    7    7    2    1       -0.0014320739
    7    7    2    2        0.2998601276
    7    7    2    4       -0.0101866223
    7    7    2    6        0.0078432762
    7    8    2    1       -0.0014384425
    7    8    2    2        0.0753096426
    7    8    2    4        0.0005479940
    7    8    2    6        0.0066802546
    7    1    3    1       -0.0095211288
    7    1    3    2       -0.0108922877
    7    1    3    4       -0.0017189188
    7    1    3    6       -0.0017884138
    7    2    3    1       -0.0082013449
    7    2    3    2       -0.0329284595
    7    2    3    4       -0.0057829973
    7    2    3    6       -0.0077053868
    7    3    3    3       -0.0836904289
    7    3    3    7        0.0315246644
    7    3    3    8        0.0248748519
    7    4    3    1       -0.0030627629
    7    4    3    2       -0.0167525144
    7    4    3    4       -0.0059512911
    7    4    3    6        0.0058827061
    7    5    3    5       -0.0089078501
    7    6    3    1       -0.0038615764
    7    6    3    2       -0.0412840571
    7    6    3    4        0.0139502069
    7    6    3    6        0.0177957827
    7    7    3    3        0.3033677446
    7    7    3    7       -0.0061140128
    7    7    3    8        0.0091475912
    7    8    3    3        0.0743452819
    7    8    3    7       -0.0106827074
    7    8    3    8        0.0043708626
    7    1    4    3       -0.0017666586
    7    1    4    7        0.0014403017
    7    1    4    8        0.0030521640
    7    2    4    3       -0.0056446653
    7    2    4    7        0.0025324386
    7    2    4    8        0.0079773675
    7    3    4    1        0.0003149555
    7    3    4    2       -0.0154160369
    7    3    4    4       -0.0844184375
    7    3    4    6        0.0140985310
    7    4    4    3       -0.0068429380
    7    4    4    7        0.0085250125
    7    4    4    8        0.0150389611
    7    6    4    3        0.0137594664
    7    6    4    7        0.0124921444
    7    6    4    8        0.0253454210
    7    7    4    1       -0.0014240440
    7    7    4    2       -0.0101866223
    7    7    4    4        0.2851578482
    7    7    4    6        0.0038450319
    7    8    4    1        0.0000917411
    7    8    4    2        0.0002067361
    7    8    4    4        0.0724214678
    7    8    4    6       -0.0002424862
    7    2    5    5       -0.0000000001
    7    3    5    5       -0.0897254067
    7    5    5    3       -0.0091808194
    7    5    5    7        0.0044980063
    7    5    5    8        0.0038663385
    7    7    5    5        0.2865973946
    7    8    5    5        0.0673756025
    7    1    6    3       -0.0021517633
    7    1    6    7        0.0016989512
    7    1    6    8        0.0004411461
    7    2    6    3       -0.0110102342
    7    2    6    7       -0.0007405532
    7    2    6    8       -0.0012025698
    7    3    6    1        0.0000697359
    7    3    6    2       -0.0233292428
    7    3    6    4        0.0143556139
    7    3    6    6       -0.0078585964
    7    4    6    3        0.0065811932
    7    4    6    7        0.0124921444
    7    4    6    8        0.0024035022
    7    6    6    3        0.0182023360
    7    6    6    7        0.0648734103
    7    6    6    8        0.0001017975
    7    7    6    1       -0.0001239603
    7    7    6    2        0.0078432762
    7    7    6    4        0.0038450319
    7    7    6    6        0.2553521032
    7    7    6    7       -0.0000000001
    7    8    6    1       -0.0004621587
    7    8    6    2        0.0065820474
    7    8    6    4        0.0004531272
    7    8    6    6        0.0261538774
    7    1    7    1        0.0047858541
    7    1    7    2        0.0040658493
    7    1    7    4        0.0015339670
    7    1    7    6        0.0016907632
    7    2    7    1        0.0040658493
    7    2    7    2        0.0153426569
    7    2    7    4        0.0029626889
    7    2    7    6       -0.0008741140
    7    3    7    3        0.0338895615
    7    3    7    7       -0.0061140128
    7    3    7    8       -0.0104970334
    7    4    7    1        0.0015339670
    7    4    7    2        0.0029626889
    7    4    7    4        0.0102914067
    7    4    7    6        0.0125568752
    7    5    7    5        0.0062265804
    7    6    7    1        0.0016907632
    7    6    7    2       -0.0008741140
    7    6    7    4        0.0125568752
    7    6    7    6        0.0648739528
    7    6    7    7       -0.0000000001
    7    7    7    3       -0.0061140128
    7    7    7    6       -0.0000000001
    7    7    7    7        0.2604964079
    7    7    7    8        0.0209951719
    7    8    7    3       -0.0104970334
    7    8    7    7        0.0209951719
    7    8    7    8        0.0201136244
    7    1    8    1        0.0039970899
    7    1    8    2        0.0029219844
    7    1    8    4        0.0031740269
    7    1    8    6        0.0004228833
    7    2    8    1        0.0033751146
    7    2    8    2        0.0114991399
    7    2    8    4        0.0083619538
    7    2    8    6       -0.0011427423
    7    3    8    3        0.0253875782
    7    3    8    7       -0.0106827074
    7    3    8    8       -0.0231513521
    7    4    8    1        0.0014962282
    7    4    8    2        0.0031659714
    7    4    8    4        0.0155553018
    7    4    8    6        0.0020002047
    7    5    8    5        0.0045482203
    7    6    8    1        0.0013563128
    7    6    8    2       -0.0065316763
    7    6    8    4        0.0257086627
    7    6    8    6        0.0001108159
    7    7    8    3        0.0091475912
    7    7    8    7        0.0209951719
    7    7    8    8        0.2687125368
    7    8    8    3        0.0055565525
    7    8    8    7        0.0201688714
    7    8    8    8        0.0473335503
    8    1    1    3       -0.0090209817
    8    1    1    7        0.0037859139
    8    1    1    8        0.0032350960
    8    2    1    3       -0.0060555080
    8    2    1    7        0.0026277658
    8    2    1    8        0.0023578292
    8    3    1    1       -0.1021144679
    8    3    1    2        0.0013717974
    8    3    1    4       -0.0038665152
    8    3    1    6        0.0016888094
    8    4    1    3       -0.0063205931
    8    4    1    7        0.0030521640
    8    4    1    8        0.0027823310
    8    6    1    3       -0.0010526438
    8    6    1    7        0.0004411461
    8    6    1    8        0.0003104684
    8    7    1    1        0.1107282937
    8    7    1    2       -0.0014384425
    8    7    1    4        0.0000917411
    8    7    1    6       -0.0004621587
    8    8    1    1        0.4592666756
    8    8    1    2       -0.0012394279
    8    8    1    4       -0.0003030622
    8    8    1    6       -0.0002816023
    8    1    2    3       -0.0092861247
    8    1    2    7        0.0030941970
    8    1    2    8        0.0023578292
    8    2    2    3       -0.0063668289
    8    2    2    7        0.0099580461
    8    2    2    8        0.0241646565
    8    3    2    1        0.0021897479
    8    3    2    2       -0.0230481482
    8    3    2    4       -0.0494295333
    8    3    2    6       -0.0088984786
    8    4    2    3       -0.0535437368
    8    4    2    7        0.0079773675
    8    4    2    8       -0.0032897531
    8    6    2    3       -0.0072642822
    8    6    2    7       -0.0012025698
    8    6    2    8       -0.0114217820
    8    7    2    1       -0.0014672342
    8    7    2    2        0.0753096426
    8    7    2    4        0.0002067361
    8    7    2    6        0.0065820474
    8    8    2    1       -0.0012394279
    8    8    2    2        0.4297256426
    8    8    2    4       -0.0103596174
    8    8    2    6        0.0138659975
    8    1    3    1       -0.0080191991
    8    1    3    2       -0.0089930414
    8    1    3    4       -0.0020251432
    8    1    3    6       -0.0013500767
    8    2    3    1       -0.0057024256
    8    2    3    2       -0.0054631021
    8    2    3    4       -0.0246929954
    8    2    3    6       -0.0066853188
    8    3    3    3       -0.0110542313
    8    3    3    7        0.0248748519
    8    3    3    8        0.0557049051
    8    4    3    1       -0.0068418314
    8    4    3    2       -0.0568026984
    8    4    3    4        0.0028908019
    8    4    3    6        0.0110197210
    8    5    3    5       -0.0092542850
    8    6    3    1       -0.0009336787
    8    6    3    2       -0.0068584977
    8    6    3    4        0.0110959356
    8    6    3    6        0.0009790412
    8    7    3    3        0.0743452819
    8    7    3    7       -0.0104970334
    8    7    3    8        0.0055565525
    8    8    3    3        0.4341247361
    8    8    3    7       -0.0231513521
    8    8    3    8        0.0198114604
    8    1    4    3       -0.0020716096
    8    1    4    7        0.0014447144
    8    1    4    8        0.0027823310
    8    2    4    3       -0.0243191005
    8    2    4    7        0.0024615369
    8    2    4    8       -0.0032897531
    8    3    4    1       -0.0043630985
    8    3    4    2       -0.0524113465
    8    3    4    4       -0.0392362975
    8    3    4    6        0.0150341704
    8    4    4    3        0.0013672770
    8    4    4    7        0.0150389611
    8    4    4    8        0.0423466500
    8    6    4    3        0.0110455268
    8    6    4    7        0.0024035022
    8    6    4    8        0.0053504496
    8    7    4    1        0.0002002633
    8    7    4    2        0.0005479940
    8    7    4    4        0.0724214678
    8    7    4    6        0.0004531272
    8    8    4    1       -0.0003030622
    8    8    4    2       -0.0103596174
    8    8    4    4        0.4175603550
    8    8    4    6       -0.0052156605
    8    3    5    5       -0.0423754879
    8    5    5    3       -0.0092588506
    8    5    5    7        0.0038663385
    8    5    5    8        0.0075098406
    8    7    5    5        0.0673756025
    8    8    5    5        0.4006453314
    8    1    6    3       -0.0017379116
    8    1    6    7        0.0013622249
    8    1    6    8        0.0003104684
    8    2    6    3       -0.0098218601
    8    2    6    7       -0.0064089380
    8    2    6    8       -0.0114217820
    8    3    6    1        0.0014061328
    8    3    6    2       -0.0109383809
    8    3    6    4        0.0153154819
    8    3    6    6        0.0142457451
    8    4    6    3        0.0121007150
    8    4    6    7        0.0253454210
    8    4    6    8        0.0053504496
    8    6    6    3        0.0005097383
    8    6    6    7        0.0001017975
    8    6    6    8        0.0173649879
    8    7    6    1       -0.0004763337
    8    7    6    2        0.0066802546
    8    7    6    4       -0.0002424862
    8    7    6    6        0.0261538774
    8    8    6    1       -0.0002816023
    8    8    6    2        0.0138659975
    8    8    6    4       -0.0052156605
    8    8    6    6        0.2857139086
    8    1    7    1        0.0039970899
    8    1    7    2        0.0033751146
    8    1    7    4        0.0014962282
    8    1    7    6        0.0013563128
    8    2    7    1        0.0029219844
    8    2    7    2        0.0114991399
    8    2    7    4        0.0031659714
    8    2    7    6       -0.0065316763
    8    3    7    3        0.0253875782
    8    3    7    7        0.0091475912
    8    3    7    8        0.0055565525
    8    4    7    1        0.0031740269
    8    4    7    2        0.0083619538
    8    4    7    4        0.0155553018
    8    4    7    6        0.0257086627
    8    5    7    5        0.0045482203
    8    6    7    1        0.0004228833
    8    6    7    2       -0.0011427423
    8    6    7    4        0.0020002047
    8    6    7    6        0.0001108159
    8    7    7    3       -0.0106827074
    8    7    7    7        0.0209951719
    8    7    7    8        0.0201688714
    8    8    7    3       -0.0231513521
    8    8    7    7        0.2687125368
    8    8    7    8        0.0473335503
    8    1    8    1        0.0033110524
    8    1    8    2        0.0026490440
    8    1    8    4        0.0027423519
    8    1    8    6        0.0003139760
    8    2    8    1        0.0026490440
    8    2    8    2        0.0264063923
    8    2    8    4       -0.0040711028
    8    2    8    6       -0.0105346208
    8    3    8    3        0.0565017428
    8    3    8    7        0.0043708626
    8    3    8    8        0.0198114604
    8    4    8    1        0.0027423519
    8    4    8    2       -0.0040711028
    8    4    8    4        0.0418046240
    8    4    8    6        0.0045553237
    8    5    8    5        0.0070312737
    8    6    8    1        0.0003139760
    8    6    8    2       -0.0105346208
    8    6    8    4        0.0045553237
    8    6    8    6        0.0173468644
    8    7    8    3        0.0043708626
    8    7    8    7        0.0201136244
    8    7    8    8        0.0473335503
    8    8    8    3        0.0198114604
    8    8    8    7        0.0473335503
    8    8    8    8        0.3735268017
 end_two_electron_integrals

 Task  times  cpu:      659.2s     wall:      659.2s
 
 
                                NWChem Input Module
                                -------------------
 
 
 Summary of allocated global arrays
-----------------------------------
  No active global arrays


MA_summarize_allocated_blocks: starting scan ...
MA_summarize_allocated_blocks: scan completed: 0 heap blocks, 0 stack blocks
MA usage statistics:

	allocation statistics:
					      heap	     stack
					      ----	     -----
	current number of blocks	         0	         0
	maximum number of blocks	        16	        42
	current total bytes		         0	         0
	maximum total bytes		     80104	4725685704
	maximum total K-bytes		        81	   4725686
	maximum total M-bytes		         1	      4726
 
 
                                     CITATION
                                     --------
                Please cite the following reference when publishing
                           results obtained with NWChem:
 
          E. Apra, E. J. Bylaska, W. A. de Jong, N. Govind, K. Kowalski,
       T. P. Straatsma, M. Valiev, H. J. J. van Dam, Y. Alexeev, J. Anchell,
       V. Anisimov, F. W. Aquino, R. Atta-Fynn, J. Autschbach, N. P. Bauman,
     J. C. Becca, D. E. Bernholdt, K. Bhaskaran-Nair, S. Bogatko, P. Borowski,
         J. Boschen, J. Brabec, A. Bruner, E. Cauet, Y. Chen, G. N. Chuev,
      C. J. Cramer, J. Daily, M. J. O. Deegan, T. H. Dunning Jr., M. Dupuis,
   K. G. Dyall, G. I. Fann, S. A. Fischer, A. Fonari, H. Fruchtl, L. Gagliardi,
      J. Garza, N. Gawande, S. Ghosh, K. Glaesemann, A. W. Gotz, J. Hammond,
       V. Helms, E. D. Hermes, K. Hirao, S. Hirata, M. Jacquelin, L. Jensen,
   B. G. Johnson, H. Jonsson, R. A. Kendall, M. Klemm, R. Kobayashi, V. Konkov,
      S. Krishnamoorthy, M. Krishnan, Z. Lin, R. D. Lins, R. J. Littlefield,
      A. J. Logsdail, K. Lopata, W. Ma, A. V. Marenich, J. Martin del Campo,
   D. Mejia-Rodriguez, J. E. Moore, J. M. Mullin, T. Nakajima, D. R. Nascimento,
    J. A. Nichols, P. J. Nichols, J. Nieplocha, A. Otero-de-la-Roza, B. Palmer,
    A. Panyala, T. Pirojsirikul, B. Peng, R. Peverati, J. Pittner, L. Pollack,
   R. M. Richard, P. Sadayappan, G. C. Schatz, W. A. Shelton, D. W. Silverstein,
   D. M. A. Smith, T. A. Soares, D. Song, M. Swart, H. L. Taylor, G. S. Thomas,
            V. Tipparaju, D. G. Truhlar, K. Tsemekhman, T. Van Voorhis,
      A. Vazquez-Mayagoitia, P. Verma, O. Villa, A. Vishnu, K. D. Vogiatzis,
        D. Wang, J. H. Weare, M. J. Williamson, T. L. Windus, K. Wolinski,
        A. T. Wong, Q. Wu, C. Yang, Q. Yu, M. Zacharias, Z. Zhang, Y. Zhao,
                                and R. J. Harrison
                        "NWChem: Past, present, and future
                         J. Chem. Phys. 152, 184102 (2020)
                               doi:10.1063/5.0004997
 
                                      AUTHORS
                                      -------
  E. Apra, E. J. Bylaska, N. Govind, K. Kowalski, M. Valiev, D. Mejia-Rodriguez,
       A. Kunitsa, N. P. Bauman, A. Panyala, W. A. de Jong, T. P. Straatsma,
   H. J. J. van Dam, D. Wang, T. L. Windus, J. Hammond, J. Autschbach, A. Woods,
    K. Bhaskaran-Nair, J. Brabec, K. Lopata, S. A. Fischer, S. Krishnamoorthy,
     M. Jacquelin, W. Ma, M. Klemm, O. Villa, Y. Chen, V. Anisimov, F. Aquino,
     S. Hirata, M. T. Hackler, E. Hermes, L. Jensen, J. E. Moore, J. C. Becca,
      V. Konjkov, T. Risthaus, M. Malagoli, A. Marenich, A. Otero-de-la-Roza,
        J. Mullin, P. Nichols, R. Peverati, J. Pittner, Y. Zhao, P.-D. Fan,
        A. Fonari, M. J. Williamson, R. J. Harrison, J. R. Rehr, M. Dupuis,
     D. Silverstein, D. M. A. Smith, J. Nieplocha, V. Tipparaju, M. Krishnan,
     B. E. Van Kuiken, A. Vazquez-Mayagoitia, M. Swart, Q. Wu, T. Van Voorhis,
     A. A. Auer, M. Nooijen, L. D. Crosby, E. Brown, G. Cisneros, G. I. Fann,
   H. Fruchtl, J. Garza, K. Hirao, R. A. Kendall, J. A. Nichols, K. Tsemekhman,
    K. Wolinski, J. Anchell, D. E. Bernholdt, P. Borowski, T. Clark, D. Clerc,
   H. Dachsel, M. J. O. Deegan, K. Dyall, D. Elwood, E. Glendening, M. Gutowski,
   A. C. Hess, J. Jaffe, B. G. Johnson, J. Ju, R. Kobayashi, R. Kutteh, Z. Lin,
   R. Littlefield, X. Long, B. Meng, T. Nakajima, S. Niu, L. Pollack, M. Rosing,
   K. Glaesemann, G. Sandrone, M. Stave, H. Taylor, G. Thomas, J. H. van Lenthe,
                               A. T. Wong, Z. Zhang.

 Total times  cpu:      659.6s     wall:      659.6s
