 argument  1 = input.nw
  NWChem w/ OpenMP: maximum threads =    1
 


============================== echo of input deck ==============================
 echo
 start H2O
 title "H2O"

 memory total 24 gb

 geometry units angstrom
 symmetry c1
   zmatrix
     O
     H1 O 0.97551
     H2 O 0.97551 H1 102.00
   end
 end

 basis spherical
   * library cc-pVTZ
 end

 tce
   2eorb
   2emet 13
   ccsd
   maxiter 300
 end

# set tce:print_integrals T
# set tce:qorb 8
# set tce:qela 5
# set tce:qelb 5

 set tce:qducc T
 set tce:nactv 3
 set tce:nonhf T
 set tce:ducc_model 6

 set tce:printtol 0.02

 task tce
================================================================================


                                         
                                         
 
 
             Northwest Computational Chemistry Package (NWChem) 7.2.3
             --------------------------------------------------------
 
 
                    Environmental Molecular Sciences Laboratory
                       Pacific Northwest National Laboratory
                                Richland, WA 99352
 
                              Copyright (c) 1994-2022
                       Pacific Northwest National Laboratory
                            Battelle Memorial Institute
 
             NWChem is an open-source computational chemistry package
                        distributed under the terms of the
                      Educational Community License (ECL) 2.0
             A copy of the license is included with this distribution
                              in the LICENSE.TXT file
 
                                  ACKNOWLEDGMENT
                                  --------------

            This software and its documentation were developed at the
            EMSL at Pacific Northwest National Laboratory, a multiprogram
            national laboratory, operated for the U.S. Department of Energy
            by Battelle under Contract Number DE-AC05-76RL01830. Support
            for this work was provided by the Department of Energy Office
            of Biological and Environmental Research, Office of Basic
            Energy Sciences, and the Office of Advanced Scientific Computing.


           Job information
           ---------------

    hostname        = koothan
    program         = /hpc/home/baum612/code/nwchem/bin/LINUX64/nwchem
    date            = Fri Nov 22 01:18:45 2024

    compiled        = Thu_Nov_21_17:16:59_2024
    source          = /hpc/home/baum612/code/nwchem
    nwchem branch   = 7.2.3
    nwchem revision = v7.2.0-beta1-1291-g6d839a76f0
    ga revision     = 5.8.0
    use scalapack   = T
    input           = input.nw
    prefix          = H2O.
    data base       = ./H2O.db
    status          = startup
    nproc           =        1
    time left       =     -1s



           Memory information
           ------------------

    heap     =    805306368 doubles =     6144.0 Mbytes
    stack    =    805306365 doubles =     6144.0 Mbytes
    global   =   1610612736 doubles =    12288.0 Mbytes (distinct from heap & stack)
    total    =   3221225469 doubles =    24576.0 Mbytes
    verify   = yes
    hardfail = no 


           Directory information
           ---------------------
 
  0 permanent = .
  0 scratch   = .
 
 
 
 
                                NWChem Input Module
                                -------------------
 
 
                                        H2O
                                        ---

 Scaling coordinates for geometry "geometry" by  1.889725989
 (inverse scale =  0.529177249)

 Turning off AUTOSYM since
 SYMMETRY directive was detected!
 
 
 
                             Geometry "geometry" -> ""
                             -------------------------
 
 Output coordinates in angstroms (scale by  1.889725989 to convert to a.u.)
 
  No.       Tag          Charge          X              Y              Z
 ---- ---------------- ---------- -------------- -------------- --------------
    1 O                    8.0000    -0.09541928     0.00000000    -0.07726901
    2 H1                   1.0000    -0.09541928     0.00000000     0.89824099
    3 H2                   1.0000     0.85877349     0.00000000    -0.28008894
 
      Atomic Mass 
      ----------- 
 
      O                 15.994910
      H1                 1.007825
      H2                 1.007825
 

 Effective nuclear repulsion energy (a.u.)       9.0284035300

            Nuclear Dipole moment (a.u.) 
            ----------------------------
        X                 Y               Z
 ---------------- ---------------- ----------------
     0.0000000000     0.0000000000     0.0000000000
 


                                Z-matrix (user)
                                -------- 

 Units are Angstrom for bonds and degrees for angles
 
      Type          Name      I     J     K     L     M      Value
      ----------- --------  ----- ----- ----- ----- ----- ----------
    1 Stretch                  2     1                       0.97551
    2 Stretch                  3     1                       0.97551
    3 Bend                     3     1     2               102.00000
 
 
            XYZ format geometry
            -------------------
     3
 geometry
 O                    -0.09541928     0.00000000    -0.07726901
 H1                   -0.09541928     0.00000000     0.89824099
 H2                    0.85877349     0.00000000    -0.28008894
 
 ==============================================================================
                                internuclear distances
 ------------------------------------------------------------------------------
       center one      |      center two      | atomic units |  angstroms
 ------------------------------------------------------------------------------
    2 H1               |   1 O                |     1.84345  |     0.97551
    3 H2               |   1 O                |     1.84345  |     0.97551
 ------------------------------------------------------------------------------
                         number of included internuclear distances:          2
 ==============================================================================



 ==============================================================================
                                 internuclear angles
 ------------------------------------------------------------------------------
        center 1       |       center 2       |       center 3       |  degrees
 ------------------------------------------------------------------------------
    2 H1               |   1 O                |   3 H2               |   102.00
 ------------------------------------------------------------------------------
                            number of included internuclear angles:          1
 ==============================================================================





 Summary of "ao basis" -> "" (spherical)
 ------------------------------------------------------------------------------
       Tag                 Description            Shells   Functions and Types
 ---------------- ------------------------------  ------  ---------------------
 *                          cc-pVTZ                   on all atoms 


                      Basis "ao basis" -> "ao basis" (spherical)
                      -----
  O (Oxygen)
  ----------
            Exponent  Coefficients 
       -------------- ---------------------------------------------------------
  1 S  1.53300000E+04  0.000508
  1 S  2.29900000E+03  0.003929
  1 S  5.22400000E+02  0.020243
  1 S  1.47300000E+02  0.079181
  1 S  4.75500000E+01  0.230687
  1 S  1.67600000E+01  0.433118
  1 S  6.20700000E+00  0.350260
  1 S  6.88200000E-01 -0.008154
 
  2 S  1.53300000E+04 -0.000115
  2 S  2.29900000E+03 -0.000895
  2 S  5.22400000E+02 -0.004636
  2 S  1.47300000E+02 -0.018724
  2 S  4.75500000E+01 -0.058463
  2 S  1.67600000E+01 -0.136463
  2 S  6.20700000E+00 -0.175740
  2 S  6.88200000E-01  0.603418
 
  3 S  1.75200000E+00  1.000000
 
  4 S  2.38400000E-01  1.000000
 
  5 P  3.44600000E+01  0.015928
  5 P  7.74900000E+00  0.099740
  5 P  2.28000000E+00  0.310492
 
  6 P  7.15600000E-01  1.000000
 
  7 P  2.14000000E-01  1.000000
 
  8 D  2.31400000E+00  1.000000
 
  9 D  6.45000000E-01  1.000000
 
 10 F  1.42800000E+00  1.000000
 
  H1 (Hydrogen)
  -------------
            Exponent  Coefficients 
       -------------- ---------------------------------------------------------
  1 S  3.38700000E+01  0.006068
  1 S  5.09500000E+00  0.045308
  1 S  1.15900000E+00  0.202822
 
  2 S  3.25800000E-01  1.000000
 
  3 S  1.02700000E-01  1.000000
 
  4 P  1.40700000E+00  1.000000
 
  5 P  3.88000000E-01  1.000000
 
  6 D  1.05700000E+00  1.000000
 
  H2 (Hydrogen)
  -------------
            Exponent  Coefficients 
       -------------- ---------------------------------------------------------
  1 S  3.38700000E+01  0.006068
  1 S  5.09500000E+00  0.045308
  1 S  1.15900000E+00  0.202822
 
  2 S  3.25800000E-01  1.000000
 
  3 S  1.02700000E-01  1.000000
 
  4 P  1.40700000E+00  1.000000
 
  5 P  3.88000000E-01  1.000000
 
  6 D  1.05700000E+00  1.000000
 


 Summary of "ao basis" -> "ao basis" (spherical)
 ------------------------------------------------------------------------------
       Tag                 Description            Shells   Functions and Types
 ---------------- ------------------------------  ------  ---------------------
 O                          cc-pVTZ                 10       30   4s3p2d1f
 H1                         cc-pVTZ                  6       14   3s2p1d
 H2                         cc-pVTZ                  6       14   3s2p1d


                                 NWChem SCF Module
                                 -----------------
 
 
                                        H2O
 
 

  ao basis        = "ao basis"
  functions       =    58
  atoms           =     3
  closed shells   =     5
  open shells     =     0
  charge          =   0.00
  wavefunction    = RHF 
  input vectors   = atomic
  output vectors  = ./H2O.movecs
  use symmetry    = F
  symmetry adapt  = F


 Summary of "ao basis" -> "ao basis" (spherical)
 ------------------------------------------------------------------------------
       Tag                 Description            Shells   Functions and Types
 ---------------- ------------------------------  ------  ---------------------
 O                          cc-pVTZ                 10       30   4s3p2d1f
 H1                         cc-pVTZ                  6       14   3s2p1d
 H2                         cc-pVTZ                  6       14   3s2p1d



 Forming initial guess at       0.4s

 
      Superposition of Atomic Density Guess
      -------------------------------------
 
 Sum of atomic energies:         -75.78028790
 
      Non-variational initial energy
      ------------------------------

 Total energy =     -75.912390
 1-e energy   =    -121.493584
 2-e energy   =      36.552791
 HOMO         =      -0.472289
 LUMO         =       0.062290
 

 Starting SCF solution at       0.5s



 ----------------------------------------------
         Quadratically convergent ROHF

 Convergence threshold     :          1.000E-04
 Maximum no. of iterations :           30
 Final Fock-matrix accuracy:          1.000E-07
 ----------------------------------------------


              iter       energy          gnorm     gmax       time
             ----- ------------------- --------- --------- --------
                 1      -76.0196783613  8.48D-01  2.94D-01      0.7
                 2      -76.0528323185  1.97D-01  6.24D-02      1.1
                 3      -76.0550764228  1.66D-02  6.64D-03      1.8
                 4      -76.0551017831  7.28D-05  3.10D-05      2.8


       Final RHF  results 
       ------------------ 

         Total SCF energy =    -76.055101783145
      One-electron energy =   -122.815366833524
      Two-electron energy =     37.731861520330
 Nuclear repulsion energy =      9.028403530048

        Time for solution =      2.3s


             Final eigenvalues
             -----------------

              1      
    1  -20.5592
    2   -1.3383
    3   -0.6952
    4   -0.5792
    5   -0.5039
    6    0.1399
    7    0.2028
    8    0.5325
    9    0.6002
   10    0.6701
   11    0.7854
   12    0.7866
   13    0.8066
   14    0.8627
   15    0.9430
 
                       ROHF Final Molecular Orbital Analysis
                       -------------------------------------
 
 Vector    2  Occ=2.000000D+00  E=-1.338286D+00
              MO Center=  3.7D-02, -2.5D-17,  3.0D-02, r^2= 5.0D-01
   Bfn.  Coefficient  Atom+Function         Bfn.  Coefficient  Atom+Function  
  ----- ------------  ---------------      ----- ------------  ---------------
     2      0.505978  1 O  s                  4      0.287364  1 O  s          
 
 Vector    3  Occ=2.000000D+00  E=-6.951996D-01
              MO Center=  7.6D-02, -3.4D-18,  6.2D-02, r^2= 7.8D-01
   Bfn.  Coefficient  Atom+Function         Bfn.  Coefficient  Atom+Function  
  ----- ------------  ---------------      ----- ------------  ---------------
    10      0.266308  1 O  pz                 7      0.218859  1 O  pz         
    32      0.217666  2 H  s                 46     -0.217666  3 H  s          
     8     -0.215652  1 O  px                 5     -0.177228  1 O  px         
 
 Vector    4  Occ=2.000000D+00  E=-5.792214D-01
              MO Center= -1.2D-01,  4.5D-16, -9.5D-02, r^2= 7.1D-01
   Bfn.  Coefficient  Atom+Function         Bfn.  Coefficient  Atom+Function  
  ----- ------------  ---------------      ----- ------------  ---------------
     8     -0.295018  1 O  px                 4      0.278549  1 O  s          
     5     -0.241006  1 O  px                10     -0.238901  1 O  pz         
    11     -0.212335  1 O  px                 7     -0.195162  1 O  pz         
     2      0.180315  1 O  s                 13     -0.171946  1 O  pz         
 
 Vector    5  Occ=2.000000D+00  E=-5.038931D-01
              MO Center= -6.9D-02, -1.5D-16, -5.6D-02, r^2= 6.3D-01
   Bfn.  Coefficient  Atom+Function         Bfn.  Coefficient  Atom+Function  
  ----- ------------  ---------------      ----- ------------  ---------------
     9      0.444895  1 O  py                12      0.376027  1 O  py         
     6      0.357618  1 O  py         
 
 Vector    6  Occ=0.000000D+00  E= 1.398520D-01
              MO Center=  5.1D-01, -8.8D-17,  4.1D-01, r^2= 3.7D+00
   Bfn.  Coefficient  Atom+Function         Bfn.  Coefficient  Atom+Function  
  ----- ------------  ---------------      ----- ------------  ---------------
     4      1.469097  1 O  s                 33     -0.908689  2 H  s          
    47     -0.908689  3 H  s                 11      0.354867  1 O  px         
    13      0.287365  1 O  pz                32     -0.250356  2 H  s          
    46     -0.250356  3 H  s                 39      0.167491  2 H  pz         
    51      0.164052  3 H  px                 8      0.151189  1 O  px         
 
 Vector    7  Occ=0.000000D+00  E= 2.028105D-01
              MO Center=  5.5D-01, -6.7D-16,  4.5D-01, r^2= 4.6D+00
   Bfn.  Coefficient  Atom+Function         Bfn.  Coefficient  Atom+Function  
  ----- ------------  ---------------      ----- ------------  ---------------
    33      1.743339  2 H  s                 47     -1.743339  3 H  s          
    13     -0.636749  1 O  pz                11      0.515629  1 O  px         
    39     -0.163919  2 H  pz                51      0.160183  3 H  px         
    10     -0.157019  1 O  pz         
 
 Vector    8  Occ=0.000000D+00  E= 5.324819D-01
              MO Center=  5.7D-02,  1.7D-17,  4.6D-02, r^2= 2.3D+00
   Bfn.  Coefficient  Atom+Function         Bfn.  Coefficient  Atom+Function  
  ----- ------------  ---------------      ----- ------------  ---------------
    32      1.471003  2 H  s                 46     -1.471003  3 H  s          
    13     -0.874038  1 O  pz                11      0.707782  1 O  px         
    33     -0.661500  2 H  s                 47      0.661500  3 H  s          
    10     -0.200531  1 O  pz                 8      0.162387  1 O  px         
 
 Vector    9  Occ=0.000000D+00  E= 6.001702D-01
              MO Center=  4.3D-01,  1.4D-16,  3.5D-01, r^2= 2.1D+00
   Bfn.  Coefficient  Atom+Function         Bfn.  Coefficient  Atom+Function  
  ----- ------------  ---------------      ----- ------------  ---------------
    32      1.328364  2 H  s                 46      1.328364  3 H  s          
    33     -0.626935  2 H  s                 47     -0.626935  3 H  s          
     4     -0.458140  1 O  s                 11     -0.449513  1 O  px         
    13     -0.364008  1 O  pz                 2     -0.200013  1 O  s          
    53     -0.188705  3 H  pz                39      0.175081  2 H  pz         
 
 Vector   10  Occ=0.000000D+00  E= 6.701062D-01
              MO Center= -3.0D-01, -5.2D-16, -2.5D-01, r^2= 2.3D+00
   Bfn.  Coefficient  Atom+Function         Bfn.  Coefficient  Atom+Function  
  ----- ------------  ---------------      ----- ------------  ---------------
     4      4.406043  1 O  s                 32     -2.244104  2 H  s          
    46     -2.244104  3 H  s                 11      2.066490  1 O  px         
    13      1.673411  1 O  pz                39      1.095375  2 H  pz         
    51      1.060153  3 H  px                33     -0.427334  2 H  s          
    47     -0.427334  3 H  s                 53     -0.280835  3 H  pz         
 
 Vector   11  Occ=0.000000D+00  E= 7.854102D-01
              MO Center=  1.7D-01, -2.1D-14,  1.4D-01, r^2= 2.0D+00
   Bfn.  Coefficient  Atom+Function         Bfn.  Coefficient  Atom+Function  
  ----- ------------  ---------------      ----- ------------  ---------------
    11      1.035232  1 O  px                32     -0.964781  2 H  s          
    46     -0.964781  3 H  s                 37     -0.847862  2 H  px         
    13      0.838314  1 O  pz                53     -0.840739  3 H  pz         
     4      0.791987  1 O  s                 33      0.221560  2 H  s          
    47      0.221560  3 H  s          
 
 Vector   12  Occ=0.000000D+00  E= 7.865501D-01
              MO Center= -5.1D-02,  2.1D-14, -4.1D-02, r^2= 1.7D+00
   Bfn.  Coefficient  Atom+Function         Bfn.  Coefficient  Atom+Function  
  ----- ------------  ---------------      ----- ------------  ---------------
    12      1.122318  1 O  py                 9     -0.774348  1 O  py         
     6     -0.259446  1 O  py         
 
 Vector   13  Occ=0.000000D+00  E= 8.066215D-01
              MO Center= -7.3D-02,  1.3D-15, -5.9D-02, r^2= 3.0D+00
   Bfn.  Coefficient  Atom+Function         Bfn.  Coefficient  Atom+Function  
  ----- ------------  ---------------      ----- ------------  ---------------
    13      2.263388  1 O  pz                11     -1.832855  1 O  px         
    32     -1.587017  2 H  s                 46      1.587017  3 H  s          
    33     -1.434995  2 H  s                 47      1.434995  3 H  s          
    39      1.167736  2 H  pz                51     -1.146778  3 H  px         
    21      0.392790  1 O  d  0              23     -0.226778  1 O  d  2       
 
 Vector   14  Occ=0.000000D+00  E= 8.626808D-01
              MO Center=  3.7D-01, -1.2D-15,  3.0D-01, r^2= 1.7D+00
   Bfn.  Coefficient  Atom+Function         Bfn.  Coefficient  Atom+Function  
  ----- ------------  ---------------      ----- ------------  ---------------
    38      0.841773  2 H  py                52     -0.841773  3 H  py         
 
 Vector   15  Occ=0.000000D+00  E= 9.429902D-01
              MO Center=  1.7D-01, -1.1D-16,  1.4D-01, r^2= 2.0D+00
   Bfn.  Coefficient  Atom+Function         Bfn.  Coefficient  Atom+Function  
  ----- ------------  ---------------      ----- ------------  ---------------
    12      1.159674  1 O  py                38     -0.985363  2 H  py         
    52     -0.985363  3 H  py         
 

 center of mass
 --------------
 x =  -0.07941589 y =   0.00000000 z =  -0.06430972

 moments of inertia (a.u.)
 ------------------
           3.452694880712           0.000000000000           0.844998380432
           0.000000000000           6.546169860701           0.000000000000
           0.844998380432           0.000000000000           3.093474979989
 
  Mulliken analysis of the total density
  --------------------------------------

    Atom       Charge   Shell Charges
 -----------   ------   -------------------------------------------------------
    1 O    8     8.49   1.95  1.00  0.23  0.61  1.25  2.14  1.29  0.00  0.02  0.00
    2 H    1     0.76   0.25  0.38  0.04  0.02  0.06  0.01
    3 H    1     0.76   0.25  0.38  0.04  0.02  0.06  0.01
 
       Multipole analysis of the density wrt the origin
       ------------------------------------------------
 
     L   x y z        total         open         nuclear
     -   - - -        -----         ----         -------
     0   0 0 0     -0.000000      0.000000     10.000000
 
     1   1 0 0      0.635801      0.000000      0.000000
     1   0 1 0     -0.000000      0.000000      0.000000
     1   0 0 1      0.514862      0.000000      0.000000
 
     2   2 0 0     -3.934936      0.000000      2.926257
     2   1 1 0      0.000000      0.000000      0.000000
     2   1 0 1     -0.638375      0.000000     -0.954399
     2   0 2 0     -5.451473      0.000000      0.000000
     2   0 1 1     -0.000000      0.000000      0.000000
     2   0 0 2     -3.663555      0.000000      3.331984
 
                   NWChem Extensible Many-Electron Theory Module
                   ---------------------------------------------
 
              ======================================================
                   This portion of the program was automatically
                  generated by a Tensor Contraction Engine (TCE).
                  The development of this portion of the program
                 and TCE was supported by US Department of Energy,
                Office of Science, Office of Basic Energy Science.
                      TCE is a product of Battelle and PNNL.
              Please cite: S.Hirata, J.Phys.Chem.A 107, 9887 (2003).
              ======================================================
 
                                        H2O
 
 
            General Information
            -------------------
      Number of processors :     1
         Wavefunction type : Restricted Hartree-Fock
          No. of electrons :    10
           Alpha electrons :     5
            Beta electrons :     5
           No. of orbitals :   116
            Alpha orbitals :    58
             Beta orbitals :    58
        Alpha frozen cores :     0
         Beta frozen cores :     0
     Alpha frozen virtuals :     0
      Beta frozen virtuals :     0
         Spin multiplicity : singlet 
    Number of AO functions :    58
       Number of AO shells :    22
        Use of symmetry is : off
      Symmetry adaption is : off
         Schwarz screening : 0.10D-09
 
          Correlation Information
          -----------------------
          Calculation type : Coupled-cluster singles & doubles                           
   Perturbative correction : none                                                        
            Max iterations :      300
        Residual threshold : 0.10D-06
     T(0) DIIS level shift : 0.00D+00
     L(0) DIIS level shift : 0.00D+00
     T(1) DIIS level shift : 0.00D+00
     L(1) DIIS level shift : 0.00D+00
     T(R) DIIS level shift : 0.00D+00
     T(I) DIIS level shift : 0.00D+00
   CC-T/L Amplitude update :  5-th order DIIS
                I/O scheme : Global Array Library
        L-threshold :  0.10D-06
        EOM-threshold :  0.10D-06
 no EOMCCSD initial starts read in
 TCE RESTART OPTIONS
 READ_INT:   F
 WRITE_INT:  F
 READ_TA:    F
 WRITE_TA:   F
 READ_XA:    F
 WRITE_XA:   F
 READ_IN3:   F
 WRITE_IN3:  F
 SLICE:      F
 D4D5:       F
 quantumc:   F
 qrotation:  F
 pwtce:      F
 qducc:      T
 nacto:                          0
 nrotv:                          0
 nrot:                           0
 
            Memory Information
            ------------------
          Available GA space size is    1610609372 doubles
          Available MA space size is    1610609756 doubles
 
 Maximum block size        32 doubles

 tile_dim =     27

 Block   Spin    Irrep     Size     Offset   Alpha
 -------------------------------------------------
   1    alpha     a      5 doubles       0       1
   2    beta      a      5 doubles       5       1
   3    alpha     a     26 doubles      10       3
   4    alpha     a     27 doubles      36       4
   5    beta      a     26 doubles      63       3
   6    beta      a     27 doubles      89       4

 Global array virtual files algorithm will be used

 Parallel file system coherency ......... OK
 
 Fock matrix recomputed
 1-e file size   =             3364
 1-e file name   = ./H2O.f1
 Cpu & wall time / sec            0.2            0.2
 4-electron integrals stored in orbital form
 
 v2    file size   =          3631290
 4-index algorithm nr.  13 is used
 imaxsize =       30
 imaxsize ichop =        0
 Cpu & wall time / sec            2.6            2.6
 T1-number-of-tasks                     2
 
 t1 file size   =              265
 t1 file name   = ./H2O.t1
 t1 file handle =       -998
 T2-number-of-boxes                     7
 
 t2 file size   =           122900
 t2 file name   = ./H2O.t2
 t2 file handle =       -996
CCSD iterations
 ---------------------------------------------------------
 Iter          Residuum       Correlation     Cpu    Wall 
 ---------------------------------------------------------
NEW TASK SCHEDULING
CCSD_T1_NTS --- OK
CCSD_T2_NTS --- OK
    1   0.1393217147845  -0.2765158300900     0.3     0.3
    2   0.0306939312774  -0.2775108002834     0.2     0.2
    3   0.0104516210956  -0.2813011998941     0.2     0.2
    4   0.0041533119569  -0.2817270052793     0.2     0.2
    5   0.0017296139156  -0.2819975813936     0.2     0.2
 MICROCYCLE DIIS UPDATE:                     5                     5
    6   0.0003461548735  -0.2821225429808     0.2     0.2
    7   0.0001361848481  -0.2821350868877     0.2     0.2
    8   0.0000522805603  -0.2821344487473     0.2     0.2
    9   0.0000288826710  -0.2821346505619     0.2     0.2
   10   0.0000141690284  -0.2821349287911     0.2     0.2
 MICROCYCLE DIIS UPDATE:                    10                     5
   11   0.0000028977588  -0.2821354168206     0.2     0.2
   12   0.0000013153885  -0.2821352282976     0.2     0.2
   13   0.0000006255990  -0.2821352529305     0.2     0.2
   14   0.0000003670539  -0.2821352423502     0.2     0.2
   15   0.0000001992344  -0.2821352413951     0.2     0.2
 MICROCYCLE DIIS UPDATE:                    15                     5
   16   0.0000000307930  -0.2821352370722     0.2     0.2
 -----------------------------------------------------------------
 Iterations converged
 CCSD correlation energy / hartree =        -0.282135237072191
 CCSD total energy / hartree       =       -76.337237020217572

 Singles contributions

 Doubles contributions
     7a   (alpha)     7a   (beta ) ---     3a   (alpha)     3a   (beta )       -0.0210440303
     8a   (alpha)     8a   (beta ) ---     3a   (alpha)     3a   (beta )       -0.0284503929
     8a   (alpha)     8a   (beta ) ---     4a   (alpha)     4a   (beta )       -0.0226984158
     9a   (alpha)     9a   (beta ) ---     3a   (alpha)     3a   (beta )       -0.0255392598
    10a   (alpha)    10a   (beta ) ---     4a   (alpha)     4a   (beta )       -0.0292640939
    10a   (alpha)    12a   (beta ) ---     4a   (alpha)     5a   (beta )        0.0258492877
    12a   (alpha)    10a   (beta ) ---     5a   (alpha)     4a   (beta )        0.0258492877
    12a   (alpha)    12a   (beta ) ---     5a   (alpha)     5a   (beta )       -0.0477763041
    12a   (alpha)    13a   (beta ) ---     5a   (alpha)     3a   (beta )       -0.0222557943
    13a   (alpha)    12a   (beta ) ---     3a   (alpha)     5a   (beta )       -0.0222557943
    13a   (alpha)    13a   (beta ) ---     3a   (alpha)     3a   (beta )       -0.0224579532
 Ground state specification:
 exp(T)|Ref>~(1+T)|Ref>
 ------- a(p)+/a(q) strings ----------

 singles norm

 doubles norm

 Reference string
   1.00000000000000      :(1a)+ (2a)+ (3a)+ (4a)+ (5a)+ (1b)+ (2b)+ (3b)+ (4b)+ 
 (5b)+ |0>

 Singles strings

 Doubles strings
 -------------------------------------
 enrep_tce =    9.02840353004774     
  EHF(total)         =       -76.05510178
  Shift (HFtot-HFA)  =         0.00000000
 ALL OCCUPIED ORBITALS ARE ACTIVE IN DUCC --> NO SHIFT
 Number of active orbitals                     8
 Number of active alpha electrons                     5
 Number of active beta electrons                     5
  nos                     10
  nvs                    106
 noas                      5
 nobs                      5
 nvas                     53
 nvbs                     53
 nactv                      3
 DUCC MODEL =                      6
 NONHF =  T
 F-T1 correlation    =   1.315507279176627E-007
 V-T1-T1 correlation =   3.494766327911996E-005
 V-T2 correlation    =  -0.282170316286018     
 Total correlation   =  -0.282135237072011     
 F-T1(Ext) correlation         =   9.588796825197795E-008
 V-T1(Ext)-T1(Ext) correlation =   3.153276474420705E-005
 V-T2(Ext) correlation         =  -0.273995850199770     
 Total Ext correlation         =  -0.273964221547058     
1-BODY TIME =  291.234 SECONDS.
  HHHH TIME =  267.642 SECONDS.
  PPPP TIME =    2.913 SECONDS.
  HHHP TIME =   21.966 SECONDS.
  PPPH TIME =    5.664 SECONDS.
  HPHP TIME =   20.058 SECONDS.
  HHPP TIME =   12.253 SECONDS.
 ONE-BODY UNITARY CHECK
 TWO-BODY UNITARY CHECK
                     1                     3                     2
                     3 -1.487678036315998E-012
                     1                     3                     3
                     2  2.487295092112873E-012
                     1                     4                     2
                     4 -1.251415637781861E-012
                     1                     4                     4
                     2  1.686109585286033E-012
                     1                     5                     2
                     5 -1.384475867283186E-012
                     1                     5                     5
                     2  1.125273485502731E-012
                     1                     6                     2
                     9 -2.188985104289998E-012
                     1                     6                     3
                     8  1.465706028769276E-012
                     1                     6                     4
                     9  1.007773725580918E-012
                     1                     6                     5
                    10 -1.489693784995083E-012
                     1                     6                     7
                     4  2.248187747078134E-012
                     1                     6                     8
                     3 -1.465709498216228E-012
                     1                     6                     9
                     1  1.014188732995080E-012
                     1                     6                     9
                     4 -1.007773725580918E-012
                     1                     6                    10
                     5  1.489693784995083E-012
                     1                     7                     2
                     7 -1.438418828492161E-012
                     1                     7                     5
                    10 -2.017237071827438E-012
                     1                     7                     7
                     2  1.707781485671411E-012
                     1                     7                     9
                     2 -1.153225952232884E-012
                     1                     7                    10
                     5  2.604323007249221E-012
                     1                     8                     2
                     8 -2.905602841662969E-012
                     1                     8                     3
                     7 -1.246034525559381E-012
                     1                     8                     4
                     8  1.191711659909167E-012
                     1                     8                     7
                     3  1.417983785945154E-012
                     1                     8                     8
                     2  3.733282780138403E-012
                     1                     8                     8
                     4 -1.536324886752816E-012
                     1                     8                     9
                     3 -1.230370406252179E-012
                     1                     9                     2
                     9 -2.710141139283806E-012
                     1                     9                     3
                     8  2.339291520908615E-012
                     1                     9                     4
                     9  2.217934169657099E-012
                     1                     9                     7
                     2 -1.639429911270973E-012
                     1                     9                     7
                     4  1.458881626614783E-012
                     1                     9                     8
                     3 -2.470413630606405E-012
                     1                     9                     9
                     2  2.372418234086737E-012
                     1                     9                     9
                     4 -1.826025441964418E-012
                     1                    10                     2
                    10 -2.246721905740934E-012
                     1                    10                     5
                     7 -1.715214775765972E-012
                     1                    10                    10
                     2  2.840365095901909E-012
                     2                     2                     2
                     4 -1.021299814424742E-011
                     2                     2                     4
                     2  1.021300662519128E-011
                     2                     3                     1
                     3  1.487678036315998E-012
                     2                     3                     3
                     4 -3.137060359745258E-011
                     2                     3                     4
                     3  2.742913491823873E-011
                     2                     4                     1
                     4  1.251415637781861E-012
                     2                     4                     2
                     2  1.021299814424742E-011
                     2                     4                     3
                     3 -3.697766875528389E-012
                     2                     4                     4
                     2  1.428412943482726E-012
                     2                     4                     4
                     4 -2.871558561707380E-012
                     2                     5                     1
                     5  1.384475867283186E-012
                     2                     5                     4
                     5  2.894768019040539E-011
                     2                     5                     5
                     2  1.709909991376435E-011
                     2                     5                     5
                     4 -3.606372925984980E-011
                     2                     6                     2
                     7 -1.090743814713413E-012
                     2                     6                     4
                     9 -1.496004709000687E-012
                     2                     6                     5
                    10 -2.457953979240202E-012
                     2                     6                    10
                     5  1.870868043818419E-012
                     2                     7                     1
                     7  1.438418828492161E-012
                     2                     7                     2
                     6  1.090743814713413E-012
                     2                     7                     2
                     9 -8.210159982424692E-012
                     2                     7                     3
                     8 -1.986297237799306E-011
                     2                     7                     4
                     7  2.938391890916492E-011
                     2                     7                     4
                     9 -1.305058838774187E-011
                     2                     7                     5
                    10 -3.928628256044675E-011
                     2                     7                     6
                     2 -1.707771077330555E-012
                     2                     7                     6
                     4  1.639446391143995E-012
                     2                     7                     7
                     4 -2.002896112851538E-012
                     2                     7                     8
                     3  1.986297237799306E-011
                     2                     7                     9
                     2 -1.917086107916521E-011
                     2                     7                     9
                     4  1.305058838774187E-011
                     2                     7                    10
                     5  3.928628256044675E-011
                     2                     8                     1
                     8  2.905602841662969E-012
                     2                     8                     3
                     7 -1.686675799028592E-011
                     2                     8                     3
                     9  2.585034443447487E-011
                     2                     8                     4
                     8  5.289607293845755E-011
                     2                     8                     6
                     3 -1.417990724839058E-012
                     2                     8                     8
                     2  1.618694067673232E-011
                     2                     8                     8
                     4 -5.722106469208121E-011
                     2                     8                     9
                     3 -2.546683003368244E-011
                     2                     9                     1
                     6  2.188985104289998E-012
                     2                     9                     1
                     9  2.710141139283806E-012
                     2                     9                     2
                     7  8.210159982424692E-012
                     2                     9                     3
                     8  3.715040428065031E-011
                     2                     9                     4
                     7 -9.328371408656722E-012
                     2                     9                     4
                     9  7.983602667849254E-011
                     2                     9                     5
                    10  2.107693533592858E-011
                     2                     9                     6
                     1 -2.248173869290326E-012
                     2                     9                     6
                     4 -1.458888565508687E-012
                     2                     9                     7
                     2  2.002849275317686E-012
                     2                     9                     8
                     3 -4.084817033234156E-011
                     2                     9                     9
                     2  1.075639577408083E-011
                     2                     9                     9
                     4 -8.270753526495866E-011
                     2                     9                    10
                     5 -2.163622753181826E-011
                     2                    10                     1
                    10  2.246721905740934E-012
                     2                    10                     4
                    10  3.803315301587062E-011
                     2                    10                     5
                     6 -1.137232669146115E-012
                     2                    10                     5
                     7 -3.199096543227142E-011
                     2                    10                     5
                     9  1.724181908357991E-011
                     2                    10                     9
                     5 -9.085426855293122E-012
                     2                    10                    10
                     2  4.909106454675793E-011
                     2                    10                    10
                     4 -5.330553359828016E-011
                     3                     1                     3
                     2 -1.717202768869441E-012
                     3                     1                     3
                     4  1.430341955988013E-012
                     3                     2                     1
                     3 -2.487295092112873E-012
                     3                     2                     3
                     1  1.717202768869441E-012
                     3                     2                     3
                     4  2.180726953182610E-012
                     3                     2                     4
                     3  1.760743027073852E-012
                     3                     3                     2
                     4  3.697766875528389E-012
                     3                     3                     4
                     2 -3.697763851567828E-012
                     3                     4                     2
                     3  3.137060359745258E-011
                     3                     4                     3
                     1 -1.430341955988013E-012
                     3                     4                     3
                     2 -2.180726953182610E-012
                     3                     4                     4
                     3  1.993438747405207E-011
                     3                     5                     5
                     3  5.238987021982666E-011
                     3                     6                     3
                     7 -1.159391159466505E-012
                     3                     6                     3
                     9  1.415194350595783E-012
                     3                     6                     9
                     3 -1.070581123752135E-012
                     3                     7                     1
                     8  1.246034525559381E-012
                     3                     7                     2
                     8  1.686675799028592E-011
                     3                     7                     3
                     6  1.159391159466505E-012
                     3                     7                     4
                     8 -2.741333202105345E-012
                     3                     7                     6
                     3 -3.733281045414927E-012
                     3                     7                     7
                     3 -1.618694067673232E-011
                     3                     7                     8
                     4  2.357818801312916E-012
                     3                     7                     9
                     3  4.501968242642818E-012
                     3                     8                     1
                     6 -1.465706028769276E-012
                     3                     8                     1
                     9 -2.339291520908615E-012
                     3                     8                     2
                     7  1.986297237799306E-011
                     3                     8                     2
                     9 -3.715040428065031E-011
                     3                     8                     4
                     6 -1.711067051934911E-012
                     3                     8                     4
                     7 -1.615771925977949E-011
                     3                     8                     4
                     9  1.358288481689840E-012
                     3                     8                     5
                    10 -2.389474035302541E-011
                     3                     8                     6
                     1  1.465709498216228E-012
                     3                     8                     6
                     4  2.470417100053357E-012
                     3                     8                     7
                     2 -1.986297237799306E-011
                     3                     8                     7
                     4  4.084814084204247E-011
                     3                     8                     9
                     1  1.579941472790169E-012
                     3                     8                     9
                     2  1.245998269838733E-011
                     3                     8                     9
                     4 -1.358205214962993E-012
                     3                     8                    10
                     5  2.389472300579065E-011
                     3                     9                     2
                     8 -2.585034443447487E-011
                     3                     9                     3
                     6 -1.415194350595783E-012
                     3                     9                     4
                     8  3.747731291969814E-012
                     3                     9                     6
                     3  1.536319682582388E-012
                     3                     9                     7
                     3  5.722107336569859E-011
                     3                     9                     8
                     2 -2.357867373570244E-012
                     3                     9                     9
                     3  1.618527534219538E-011
                     3                    10                     5
                     8 -2.303587876006929E-011
                     3                    10                    10
                     3  7.542499957935433E-011
                     4                     2                     1
                     4 -1.686109585286033E-012
                     4                     2                     2
                     2 -1.021300662519128E-011
                     4                     2                     2
                     4 -1.428412943482726E-012
                     4                     2                     3
                     3  3.697763851567828E-012
                     4                     2                     4
                     4  2.871546247171816E-012
                     4                     3                     2
                     3 -2.742913491823873E-011
                     4                     3                     3
                     2 -1.760743027073852E-012
                     4                     3                     3
                     4 -1.993438747405207E-011
                     4                     4                     2
                     4  2.871558561707380E-012
                     4                     4                     4
                     2 -2.871546247171816E-012
                     4                     5                     2
                     5 -2.894768019040539E-011
                     4                     5                     5
                     2 -1.140663431764555E-011
                     4                     5                     5
                     4  3.749234256389400E-011
                     4                     6                     3
                     8  1.711067051934911E-012
                     4                     6                     6
                     1 -1.014216488570696E-012
                     4                     6                     8
                     3 -1.579944942237121E-012
                     4                     6                     9
                     4 -1.028543569758789E-012
                     4                     6                    10
                     5 -1.054054413196504E-012
                     4                     7                     2
                     7 -2.938391890916492E-011
                     4                     7                     2
                     9  9.328371408656722E-012
                     4                     7                     3
                     8  1.615771925977949E-011
                     4                     7                     4
                     9 -5.335898389802196E-012
                     4                     7                     5
                    10  2.680709820790383E-012
                     4                     7                     6
                     2  1.153232891126788E-012
                     4                     7                     6
                     4 -2.372385274340694E-012
                     4                     7                     7
                     2  1.917090791669906E-011
                     4                     7                     7
                     4 -1.075639577408083E-011
                     4                     7                     8
                     3 -1.245995147336476E-011
                     4                     7                     9
                     4  8.207656776448857E-012
                     4                     7                    10
                     5 -2.121417624900701E-012
                     4                     8                     1
                     8 -1.191711659909167E-012
                     4                     8                     2
                     8 -5.289607293845755E-011
                     4                     8                     3
                     7  2.741333202105345E-012
                     4                     8                     3
                     9 -3.747731291969814E-012
                     4                     8                     6
                     3  1.230357829506978E-012
                     4                     8                     7
                     3  2.546688207538672E-011
                     4                     8                     8
                     1  1.070586327922562E-012
                     4                     8                     8
                     2 -4.501989059324529E-012
                     4                     8                     8
                     4 -1.618516431989292E-011
                     4                     9                     1
                     6 -1.007773725580918E-012
                     4                     9                     1
                     9 -2.217934169657099E-012
                     4                     9                     2
                     6  1.496004709000687E-012
                     4                     9                     2
                     7  1.305058838774187E-011
                     4                     9                     2
                     9 -7.983602667849254E-011
                     4                     9                     3
                     8 -1.358288481689840E-012
                     4                     9                     4
                     7  5.335898389802196E-012
                     4                     9                     5
                    10 -3.355603989119160E-011
                     4                     9                     6
                     1  1.007773725580918E-012
                     4                     9                     6
                     4  1.826053197540034E-012
                     4                     9                     7
                     2 -1.305058838774187E-011
                     4                     9                     7
                     4  8.270749363159524E-011
                     4                     9                     8
                     3  1.358288481689840E-012
                     4                     9                     9
                     1  1.028486323884081E-012
                     4                     9                     9
                     2 -8.207268198390238E-012
                     4                     9                    10
                     5  3.355614397460016E-011
                     4                    10                     2
                    10 -3.803315301587062E-011
                     4                    10                     5
                     7  3.954472166389777E-012
                     4                    10                     5
                     9 -1.547241501587138E-011
                     4                    10                     7
                     5  9.085430324740074E-012
                     4                    10                    10
                     2 -1.536114291322832E-011
                     4                    10                    10
                     4  5.296540983579234E-011
                     5                     2                     1
                     5 -1.125273485502731E-012
                     5                     2                     2
                     5 -1.709909991376435E-011
                     5                     2                     4
                     5  1.140663431764555E-011
                     5                     2                     5
                     4 -4.290599125988948E-012
                     5                     3                     3
                     5 -5.238987021982666E-011
                     5                     4                     2
                     5  3.606372925984980E-011
                     5                     4                     4
                     5 -3.749234256389400E-011
                     5                     4                     5
                     2  4.290599125988948E-012
                     5                     6                     2
                    10  1.137232669146115E-012
                     5                     6                     5
                     9 -1.065928595389565E-012
                     5                     7                     1
                    10  1.715214775765972E-012
                     5                     7                     2
                    10  3.199096543227142E-011
                     5                     7                     4
                    10 -3.954472166389777E-012
                     5                     7                     6
                     5 -2.840365095901909E-012
                     5                     7                     7
                     5 -4.909106454675793E-011
                     5                     7                     9
                     5  1.536115679101613E-011
                     5                     7                    10
                     4 -4.201923531343965E-012
                     5                     8                     3
                    10  2.303587876006929E-011
                     5                     8                     8
                     5 -7.542499957935433E-011
                     5                     9                     2
                    10 -1.724181908357991E-011
                     5                     9                     4
                    10  1.547241501587138E-011
                     5                     9                     5
                     6  1.065928595389565E-012
                     5                     9                     7
                     5  5.330551278159845E-011
                     5                     9                     9
                     5 -5.296540983579234E-011
                     5                     9                    10
                     2  4.201913123003109E-012
                     5                    10                     1
                     6  1.489693784995083E-012
                     5                    10                     1
                     7  2.017237071827438E-012
                     5                    10                     2
                     6  2.457953979240202E-012
                     5                    10                     2
                     7  3.928628256044675E-011
                     5                    10                     2
                     9 -2.107693533592858E-011
                     5                    10                     3
                     8  2.389474035302541E-011
                     5                    10                     4
                     7 -2.680709820790383E-012
                     5                    10                     4
                     9  3.355603989119160E-011
                     5                    10                     6
                     1 -1.489693784995083E-012
                     5                    10                     6
                     2 -2.604277904438845E-012
                     5                    10                     7
                     1 -1.870913146628794E-012
                     5                    10                     7
                     2 -3.928628256044675E-011
                     5                    10                     7
                     4  2.163622753181826E-011
                     5                    10                     8
                     3 -2.389474382247236E-011
                     5                    10                     9
                     1  1.054071760431263E-012
                     5                    10                     9
                     2  2.121403747112893E-012
                     5                    10                     9
                     4 -3.355601907450989E-011
                     6                     1                     2
                     9  2.248173869290326E-012
                     6                     1                     3
                     8 -1.465709498216228E-012
                     6                     1                     4
                     6  1.014216488570696E-012
                     6                     1                     4
                     9 -1.007773725580918E-012
                     6                     1                     5
                    10  1.489693784995083E-012
                     6                     1                     7
                     4 -2.188998982077806E-012
                     6                     1                     8
                     3  1.465706028769276E-012
                     6                     1                     9
                     4  1.007773725580918E-012
                     6                     1                    10
                     5 -1.489693784995083E-012
                     6                     2                     2
                     7  1.707771077330555E-012
                     6                     2                     4
                     7 -1.153232891126788E-012
                     6                     2                     5
                    10  2.604277904438845E-012
                     6                     2                     7
                     2 -1.438408420151305E-012
                     6                     2                    10
                     5 -2.017191969017063E-012
                     6                     3                     2
                     8  1.417990724839058E-012
                     6                     3                     3
                     7  3.733281045414927E-012
                     6                     3                     3
                     9 -1.536319682582388E-012
                     6                     3                     4
                     8 -1.230357829506978E-012
                     6                     3                     7
                     3 -2.905601106939493E-012
                     6                     3                     8
                     2 -1.246041464453285E-012
                     6                     3                     9
                     3  1.191706455738739E-012
                     6                     4                     2
                     7 -1.639446391143995E-012
                     6                     4                     2
                     9  1.458888565508687E-012
                     6                     4                     3
                     8 -2.470417100053357E-012
                     6                     4                     4
                     7  2.372385274340694E-012
                     6                     4                     4
                     9 -1.826053197540034E-012
                     6                     4                     7
                     4 -2.710108179537762E-012
                     6                     4                     8
                     3  2.339294990355567E-012
                     6                     4                     9
                     4  2.218003558596138E-012
                     6                     5                     5
                     7  2.840365095901909E-012
                     6                     5                     7
                     5 -2.246723640464410E-012
                     6                     5                    10
                     2 -1.715193959084260E-012
                     6                     8                     7
                     8 -1.487678036315998E-012
                     6                     8                     8
                     7  2.487295092112873E-012
                     6                     9                     7
                     9 -1.251415637781861E-012
                     6                     9                     9
                     7  1.686109585286033E-012
                     6                    10                     7
                    10 -1.384475867283186E-012
                     6                    10                    10
                     7  1.125273485502731E-012
                     7                     1                     5
                    10  1.870913146628794E-012
                     7                     1                     7
                     2 -1.090750753607317E-012
                     7                     1                     9
                     4 -1.496018586788495E-012
                     7                     1                    10
                     5 -2.457999082050577E-012
                     7                     2                     1
                     7 -1.707781485671411E-012
                     7                     2                     1
                     9  1.639429911270973E-012
                     7                     2                     2
                     9 -2.002849275317686E-012
                     7                     2                     3
                     8  1.986297237799306E-011
                     7                     2                     4
                     7 -1.917090791669906E-011
                     7                     2                     4
                     9  1.305058838774187E-011
                     7                     2                     5
                    10  3.928628256044675E-011
                     7                     2                     6
                     2  1.438408420151305E-012
                     7                     2                     7
                     1  1.090750753607317E-012
                     7                     2                     7
                     4 -8.210114879614316E-012
                     7                     2                     8
                     3 -1.986297237799306E-011
                     7                     2                     9
                     2  2.938387380635454E-011
                     7                     2                     9
                     4 -1.305058838774187E-011
                     7                     2                    10
                     5 -3.928628256044675E-011
                     7                     3                     1
                     8 -1.417983785945154E-012
                     7                     3                     3
                     7  1.618694067673232E-011
                     7                     3                     3
                     9 -5.722107336569859E-011
                     7                     3                     4
                     8 -2.546688207538672E-011
                     7                     3                     6
                     3  2.905601106939493E-012
                     7                     3                     8
                     2 -1.686681350143715E-011
                     7                     3                     8
                     4  2.585039647617915E-011
                     7                     3                     9
                     3  5.289610589820359E-011
                     7                     4                     1
                     6 -2.248187747078134E-012
                     7                     4                     1
                     9 -1.458881626614783E-012
                     7                     4                     2
                     7  2.002896112851538E-012
                     7                     4                     3
                     8 -4.084814084204247E-011
                     7                     4                     4
                     7  1.075639577408083E-011
                     7                     4                     4
                     9 -8.270749363159524E-011
                     7                     4                     5
                    10 -2.163622753181826E-011
                     7                     4                     6
                     1  2.188998982077806E-012
                     7                     4                     6
                     4  2.710108179537762E-012
                     7                     4                     7
                     2  8.210114879614316E-012
                     7                     4                     8
                     3  3.715037305562774E-011
                     7                     4                     9
                     2 -9.328399164232337E-012
                     7                     4                     9
                     4  7.983577687831200E-011
                     7                     4                    10
                     5  2.107693533592858E-011
                     7                     5                     4
                    10 -9.085430324740074E-012
                     7                     5                     5
                     7  4.909106454675793E-011
                     7                     5                     5
                     9 -5.330551278159845E-011
                     7                     5                     6
                     5  2.246723640464410E-012
                     7                     5                     9
                     5  3.803313219918891E-011
                     7                     5                    10
                     1 -1.137215321911356E-012
                     7                     5                    10
                     2 -3.199092379890800E-011
                     7                     5                    10
                     4  1.724182602247382E-011
                     7                     7                     7
                     9 -1.021299603710407E-011
                     7                     7                     9
                     7  1.021301262918249E-011
                     7                     8                     6
                     8  1.487678036315998E-012
                     7                     8                     8
                     9 -3.137060576585693E-011
                     7                     8                     9
                     8  2.742913274983438E-011
                     7                     9                     6
                     9  1.251415637781861E-012
                     7                     9                     7
                     7  1.021299603710407E-011
                     7                     9                     8
                     8 -3.697764334436992E-012
                     7                     9                     9
                     7  1.428412943482726E-012
                     7                     9                     9
                     9 -2.871551931042686E-012
                     7                    10                     6
                    10  1.384475867283186E-012
                     7                    10                     9
                    10  2.894768105776713E-011
                     7                    10                    10
                     7  1.709909991376435E-011
                     7                    10                    10
                     9 -3.606373272929675E-011
                     8                     1                     4
                     8 -1.070586327922562E-012
                     8                     1                     8
                     2 -1.159392894189981E-012
                     8                     1                     8
                     4  1.415199554766211E-012
                     8                     2                     1
                     8 -3.733282780138403E-012
                     8                     2                     2
                     8 -1.618694067673232E-011
                     8                     2                     3
                     9  2.357867373570244E-012
                     8                     2                     4
                     8  4.501989059324529E-012
                     8                     2                     6
                     3  1.246041464453285E-012
                     8                     2                     7
                     3  1.686681350143715E-011
                     8                     2                     8
                     1  1.159392894189981E-012
                     8                     2                     9
                     3 -2.741381774362672E-012
                     8                     3                     1
                     6  1.465709498216228E-012
                     8                     3                     1
                     9  2.470413630606405E-012
                     8                     3                     2
                     7 -1.986297237799306E-011
                     8                     3                     2
                     9  4.084817033234156E-011
                     8                     3                     4
                     6  1.579944942237121E-012
                     8                     3                     4
                     7  1.245995147336476E-011
                     8                     3                     4
                     9 -1.358288481689840E-012
                     8                     3                     5
                    10  2.389474382247236E-011
                     8                     3                     6
                     1 -1.465706028769276E-012
                     8                     3                     6
                     4 -2.339294990355567E-012
                     8                     3                     7
                     2  1.986297237799306E-011
                     8                     3                     7
                     4 -3.715037305562774E-011
                     8                     3                     9
                     1 -1.711063582487959E-012
                     8                     3                     9
                     2 -1.615774875007858E-011
                     8                     3                     9
                     4  1.358184398281281E-012
                     8                     3                    10
                     5 -2.389471953634370E-011
                     8                     4                     1
                     8  1.536324886752816E-012
                     8                     4                     2
                     8  5.722106469208121E-011
                     8                     4                     3
                     7 -2.357818801312916E-012
                     8                     4                     4
                     8  1.618516431989292E-011
                     8                     4                     7
                     3 -2.585039647617915E-011
                     8                     4                     8
                     1 -1.415199554766211E-012
                     8                     4                     9
                     3  3.748029664407682E-012
                     8                     5                     5
                     8  7.542499957935433E-011
                     8                     5                    10
                     3 -2.303586835172844E-011
                     8                     6                     8
                     7 -1.717202768869441E-012
                     8                     6                     8
                     9  1.430341955988013E-012
                     8                     7                     6
                     8 -2.487295092112873E-012
                     8                     7                     8
                     6  1.717202768869441E-012
                     8                     7                     8
                     9  2.180731289991300E-012
                     8                     7                     9
                     8  1.760736088179948E-012
                     8                     8                     7
                     9  3.697764334436992E-012
                     8                     8                     9
                     7 -3.697764021008332E-012
                     8                     9                     7
                     8  3.137060576585693E-011
                     8                     9                     8
                     6 -1.430341955988013E-012
                     8                     9                     8
                     7 -2.180731289991300E-012
                     8                     9                     9
                     8  1.993438747405207E-011
                     8                    10                    10
                     8  5.238975919752420E-011
                     9                     1                     1
                     6 -1.014188732995080E-012
                     9                     1                     3
                     8 -1.579941472790169E-012
                     9                     1                     4
                     9 -1.028486323884081E-012
                     9                     1                     5
                    10 -1.054071760431263E-012
                     9                     1                     8
                     3  1.711063582487959E-012
                     9                     2                     1
                     7  1.153225952232884E-012
                     9                     2                     1
                     9 -2.372418234086737E-012
                     9                     2                     2
                     7  1.917086107916521E-011
                     9                     2                     2
                     9 -1.075639577408083E-011
                     9                     2                     3
                     8 -1.245998269838733E-011
                     9                     2                     4
                     9  8.207268198390238E-012
                     9                     2                     5
                    10 -2.121403747112893E-012
                     9                     2                     7
                     2 -2.938387380635454E-011
                     9                     2                     7
                     4  9.328399164232337E-012
                     9                     2                     8
                     3  1.615774875007858E-011
                     9                     2                     9
                     4 -5.335690222985079E-012
                     9                     2                    10
                     5  2.680695943002576E-012
                     9                     3                     1
                     8  1.230370406252179E-012
                     9                     3                     2
                     8  2.546683003368244E-011
                     9                     3                     3
                     6  1.070581123752135E-012
                     9                     3                     3
                     7 -4.501968242642818E-012
                     9                     3                     3
                     9 -1.618527534219538E-011
                     9                     3                     6
                     3 -1.191706455738739E-012
                     9                     3                     7
                     3 -5.289610589820359E-011
                     9                     3                     8
                     2  2.741381774362672E-012
                     9                     3                     8
                     4 -3.748029664407682E-012
                     9                     4                     1
                     6  1.007773725580918E-012
                     9                     4                     1
                     9  1.826025441964418E-012
                     9                     4                     2
                     7 -1.305058838774187E-011
                     9                     4                     2
                     9  8.270753526495866E-011
                     9                     4                     3
                     8  1.358205214962993E-012
                     9                     4                     4
                     6  1.028543569758789E-012
                     9                     4                     4
                     7 -8.207656776448857E-012
                     9                     4                     5
                    10  3.355601907450989E-011
                     9                     4                     6
                     1 -1.007773725580918E-012
                     9                     4                     6
                     4 -2.218003558596138E-012
                     9                     4                     7
                     1  1.496018586788495E-012
                     9                     4                     7
                     2  1.305058838774187E-011
                     9                     4                     7
                     4 -7.983577687831200E-011
[...]
    6    6    8    3        0.0142096103
    6    6    8    7        0.0261342122
    6    6    8    8        0.2857029625
    6    7    8    1        0.0013635599
    6    7    8    2       -0.0063983904
    6    7    8    4        0.0253530032
    6    7    8    6        0.0001091982
    6    8    8    1        0.0003117931
    6    8    8    2       -0.0114238450
    6    8    8    4        0.0053519202
    6    8    8    6        0.0173791629
    7    1    1    3       -0.0104370167
    7    1    1    7        0.0044959096
    7    1    1    8        0.0037861831
    7    2    1    1       -0.0000000002
    7    2    1    3       -0.0082842081
    7    2    1    7        0.0036937681
    7    2    1    8        0.0030951840
    7    3    1    1       -0.1659002985
    7    3    1    2        0.0005976707
    7    3    1    4        0.0003024870
    7    3    1    6        0.0005038785
    7    4    1    1        0.0000000001
    7    4    1    3       -0.0029325290
    7    4    1    7        0.0014371986
    7    4    1    8        0.0014429157
    7    6    1    3       -0.0038827545
    7    6    1    7        0.0016992947
    7    6    1    8        0.0013635599
    7    7    1    1        0.3361758782
    7    7    1    2       -0.0014315419
    7    7    1    4       -0.0014226786
    7    7    1    6       -0.0001244156
    7    8    1    1        0.1106865892
    7    8    1    2       -0.0014671249
    7    8    1    4        0.0002004708
    7    8    1    6       -0.0004763262
    7    1    2    3       -0.0111195137
    7    1    2    7        0.0036937681
    7    1    2    8        0.0026288844
    7    2    2    2       -0.0000000001
    7    2    2    3       -0.0325656611
    7    2    2    7        0.0127218942
    7    2    2    8        0.0099566995
    7    3    2    1        0.0014660311
    7    3    2    2       -0.0949979762
    7    3    2    4       -0.0143840260
    7    3    2    6       -0.0204830508
    7    4    2    3       -0.0156549572
    7    4    2    7        0.0025251901
    7    4    2    8        0.0024638435
    7    6    2    3       -0.0412504337
    7    6    2    7       -0.0007375241
    7    6    2    8       -0.0063983904
    7    7    2    1       -0.0014315419
    7    7    2    2        0.2998068916
    7    7    2    4       -0.0101782190
    7    7    2    6        0.0078392744
    7    8    2    1       -0.0014383683
    7    8    2    2        0.0752657156
    7    8    2    4        0.0005464247
    7    8    2    6        0.0066808078
    7    1    3    1       -0.0095169428
    7    1    3    2       -0.0108903214
    7    1    3    4       -0.0017133409
    7    1    3    6       -0.0017879458
    7    2    3    1       -0.0081995105
    7    2    3    2       -0.0329358222
    7    2    3    4       -0.0057610975
    7    2    3    6       -0.0077034580
    7    3    3    3       -0.0836770392
    7    3    3    7        0.0315030829
    7    3    3    8        0.0248586669
    7    4    3    1       -0.0030565836
    7    4    3    2       -0.0167231541
    7    4    3    4       -0.0059483092
    7    4    3    6        0.0058828151
    7    5    3    5       -0.0089046740
    7    6    3    1       -0.0038629531
    7    6    3    2       -0.0413071743
    7    6    3    4        0.0139563841
    7    6    3    6        0.0178128678
    7    7    3    3        0.3033190906
    7    7    3    7       -0.0061143531
    7    7    3    8        0.0091318009
    7    8    3    3        0.0743014845
    7    8    3    7       -0.0106749414
    7    8    3    8        0.0043633242
    7    1    4    3       -0.0017606909
    7    1    4    7        0.0014371986
    7    1    4    8        0.0030503653
    7    2    4    3       -0.0056224949
    7    2    4    7        0.0025251901
    7    2    4    8        0.0079788605
    7    3    4    1        0.0003158910
    7    3    4    2       -0.0153799083
    7    3    4    4       -0.0844079206
    7    3    4    6        0.0140831648
    7    4    4    3       -0.0068387261
    7    4    4    7        0.0085130676
    7    4    4    8        0.0150203183
    7    6    4    3        0.0137659817
    7    6    4    7        0.0124866256
    7    6    4    8        0.0253530032
    7    7    4    1       -0.0014226786
    7    7    4    2       -0.0101782190
    7    7    4    4        0.2851146094
    7    7    4    6        0.0038395492
    7    8    4    1        0.0000920035
    7    8    4    2        0.0002056701
    7    8    4    4        0.0723718600
    7    8    4    6       -0.0002357383
    7    2    5    5       -0.0000000001
    7    3    5    5       -0.0897025427
    7    5    5    3       -0.0091767530
    7    5    5    7        0.0044954290
    7    5    5    8        0.0038648768
    7    7    5    5        0.2865555743
    7    8    5    5        0.0673356168
    7    1    6    3       -0.0021512071
    7    1    6    7        0.0016992947
    7    1    6    8        0.0004424401
    7    2    6    3       -0.0110076378
    7    2    6    7       -0.0007375241
    7    2    6    8       -0.0011957433
    7    3    6    1        0.0000694749
    7    3    6    2       -0.0233271213
    7    3    6    4        0.0143404228
    7    3    6    6       -0.0078692453
    7    4    6    3        0.0065812447
    7    4    6    7        0.0124866256
    7    4    6    8        0.0024059103
    7    6    6    3        0.0182201522
    7    6    6    7        0.0649054897
    7    6    6    8        0.0001091982
    7    7    6    1       -0.0001244156
    7    7    6    2        0.0078392744
    7    7    6    4        0.0038395492
    7    7    6    6        0.2553098048
    7    7    6    7       -0.0000000001
    7    8    6    1       -0.0004621678
    7    8    6    2        0.0065826727
    7    8    6    4        0.0004593342
    7    8    6    6        0.0261342122
    7    1    7    1        0.0047831143
    7    1    7    2        0.0040643259
    7    1    7    4        0.0015306850
    7    1    7    6        0.0016911489
    7    2    7    1        0.0040643259
    7    2    7    2        0.0153398493
    7    2    7    4        0.0029542683
    7    2    7    6       -0.0008708763
    7    3    7    3        0.0338671125
    7    3    7    7       -0.0061143531
    7    3    7    8       -0.0104896442
    7    4    7    1        0.0015306850
    7    4    7    2        0.0029542683
    7    4    7    4        0.0102790843
    7    4    7    6        0.0125517950
    7    5    7    5        0.0062240108
    7    6    7    1        0.0016911489
    7    6    7    2       -0.0008708763
    7    6    7    4        0.0125517950
    7    6    7    6        0.0649060309
    7    6    7    7       -0.0000000001
    7    7    7    3       -0.0061143531
    7    7    7    6       -0.0000000001
    7    7    7    7        0.2604437641
    7    7    7    8        0.0209854091
    7    8    7    3       -0.0104896442
    7    8    7    7        0.0209854091
    7    8    7    8        0.0200976960
    7    1    8    1        0.0039975297
    7    1    8    2        0.0029231828
    7    1    8    4        0.0031722581
    7    1    8    6        0.0004242096
    7    2    8    1        0.0033761273
    7    2    8    2        0.0114985088
    7    2    8    4        0.0083643884
    7    2    8    6       -0.0011363765
    7    3    8    3        0.0253709277
    7    3    8    7       -0.0106749414
    7    3    8    8       -0.0231632157
    7    4    8    1        0.0014945068
    7    4    8    2        0.0031692618
    7    4    8    4        0.0155363200
    7    4    8    6        0.0020037763
    7    5    8    5        0.0045469651
    7    6    8    1        0.0013576677
    7    6    8    2       -0.0065215574
    7    6    8    4        0.0257173570
    7    6    8    6        0.0001182430
    7    7    8    3        0.0091318009
    7    7    8    7        0.0209854091
    7    7    8    8        0.2686750602
    7    8    8    3        0.0055482506
    7    8    8    7        0.0201528526
    7    8    8    8        0.0472977481
    8    1    1    3       -0.0090226289
    8    1    1    7        0.0037861831
    8    1    1    8        0.0032374603
    8    2    1    3       -0.0060584374
    8    2    1    7        0.0026288844
    8    2    1    8        0.0023603029
    8    3    1    1       -0.1021741876
    8    3    1    2        0.0013712876
    8    3    1    4       -0.0038657179
    8    3    1    6        0.0016875927
    8    4    1    3       -0.0063176756
    8    4    1    7        0.0030503653
    8    4    1    8        0.0027826756
    8    6    1    3       -0.0010555879
    8    6    1    7        0.0004424401
    8    6    1    8        0.0003117931
    8    7    1    1        0.1106865892
    8    7    1    2       -0.0014383683
    8    7    1    4        0.0000920035
    8    7    1    6       -0.0004621678
    8    8    1    1        0.4593026215
    8    8    1    2       -0.0012411770
    8    8    1    4       -0.0002977323
    8    8    1    6       -0.0002833839
    8    1    2    3       -0.0092907011
    8    1    2    7        0.0030951840
    8    1    2    8        0.0023603029
    8    2    2    3       -0.0063990524
    8    2    2    7        0.0099566995
    8    2    2    8        0.0241571656
    8    3    2    1        0.0021890565
    8    3    2    2       -0.0231303488
    8    3    2    4       -0.0493966681
    8    3    2    6       -0.0089150970
    8    4    2    3       -0.0535353054
    8    4    2    7        0.0079788605
    8    4    2    8       -0.0032630862
    8    6    2    3       -0.0072868482
    8    6    2    7       -0.0011957433
    8    6    2    8       -0.0114238450
    8    7    2    1       -0.0014671249
    8    7    2    2        0.0752657156
    8    7    2    4        0.0002056701
    8    7    2    6        0.0065826727
    8    8    2    1       -0.0012411770
    8    8    2    2        0.4297076252
    8    8    2    4       -0.0102983303
    8    8    2    6        0.0138606840
    8    1    3    1       -0.0080211488
    8    1    3    2       -0.0089976651
    8    1    3    4       -0.0020217171
    8    1    3    6       -0.0013508188
    8    2    3    1       -0.0057058443
    8    2    3    2       -0.0054971163
    8    2    3    4       -0.0246737345
    8    2    3    6       -0.0066919206
    8    3    3    3       -0.0110862635
    8    3    3    7        0.0248586669
    8    3    3    8        0.0556840606
    8    4    3    1       -0.0068390498
    8    4    3    2       -0.0567923434
    8    4    3    4        0.0028905417
    8    4    3    6        0.0110304067
    8    5    3    5       -0.0092578466
    8    6    3    1       -0.0009368013
    8    6    3    2       -0.0068813740
    8    6    3    4        0.0111003666
    8    6    3    6        0.0009823814
    8    7    3    3        0.0743014845
    8    7    3    7       -0.0104896442
    8    7    3    8        0.0055482506
    8    8    3    3        0.4341203324
    8    8    3    7       -0.0231632157
    8    8    3    8        0.0197555657
    8    1    4    3       -0.0020673953
    8    1    4    7        0.0014429157
    8    1    4    8        0.0027826756
    8    2    4    3       -0.0242992556
    8    2    4    7        0.0024638435
    8    2    4    8       -0.0032630862
    8    3    4    1       -0.0043621838
    8    3    4    2       -0.0523743902
    8    3    4    4       -0.0392890635
    8    3    4    6        0.0150233796
    8    4    4    3        0.0013685499
    8    4    4    7        0.0150203183
    8    4    4    8        0.0423279954
    8    6    4    3        0.0110511602
    8    6    4    7        0.0024059103
    8    6    4    8        0.0053519202
    8    7    4    1        0.0002004708
    8    7    4    2        0.0005464247
    8    7    4    4        0.0723718600
    8    7    4    6        0.0004593342
    8    8    4    1       -0.0002977323
    8    8    4    2       -0.0102983303
    8    8    4    4        0.4175631082
    8    8    4    6       -0.0052202952
    8    3    5    5       -0.0424138366
    8    5    5    3       -0.0092616991
    8    5    5    7        0.0038648768
    8    5    5    8        0.0075119668
    8    7    5    5        0.0673356168
    8    8    5    5        0.4006565456
    8    1    6    3       -0.0017388442
    8    1    6    7        0.0013635599
    8    1    6    8        0.0003117931
    8    2    6    3       -0.0098308444
    8    2    6    7       -0.0063983904
    8    2    6    8       -0.0114238450
    8    3    6    1        0.0014047569
    8    3    6    2       -0.0109577329
    8    3    6    4        0.0153044731
    8    3    6    6        0.0142096103
    8    4    6    3        0.0121125168
    8    4    6    7        0.0253530032
    8    4    6    8        0.0053519202
    8    6    6    3        0.0005138230
    8    6    6    7        0.0001091982
    8    6    6    8        0.0173791629
    8    7    6    1       -0.0004763262
    8    7    6    2        0.0066808078
    8    7    6    4       -0.0002357383
    8    7    6    6        0.0261342122
    8    8    6    1       -0.0002833839
    8    8    6    2        0.0138606840
    8    8    6    4       -0.0052202952
    8    8    6    6        0.2857029625
    8    1    7    1        0.0039975297
    8    1    7    2        0.0033761273
    8    1    7    4        0.0014945068
    8    1    7    6        0.0013576677
    8    2    7    1        0.0029231828
    8    2    7    2        0.0114985088
    8    2    7    4        0.0031692618
    8    2    7    6       -0.0065215574
    8    3    7    3        0.0253709277
    8    3    7    7        0.0091318009
    8    3    7    8        0.0055482506
    8    4    7    1        0.0031722581
    8    4    7    2        0.0083643884
    8    4    7    4        0.0155363200
    8    4    7    6        0.0257173570
    8    5    7    5        0.0045469651
    8    6    7    1        0.0004242096
    8    6    7    2       -0.0011363765
    8    6    7    4        0.0020037763
    8    6    7    6        0.0001182430
    8    7    7    3       -0.0106749414
    8    7    7    7        0.0209854091
    8    7    7    8        0.0201528526
    8    8    7    3       -0.0231632157
    8    8    7    7        0.2686750602
    8    8    7    8        0.0472977481
    8    1    8    1        0.0033136991
    8    1    8    2        0.0026516856
    8    1    8    4        0.0027429927
    8    1    8    6        0.0003153121
    8    2    8    1        0.0026516856
    8    2    8    2        0.0263999408
    8    2    8    4       -0.0040418197
    8    2    8    6       -0.0105375876
    8    3    8    3        0.0564822497
    8    3    8    7        0.0043633242
    8    3    8    8        0.0197555657
    8    4    8    1        0.0027429927
    8    4    8    2       -0.0040418197
    8    4    8    4        0.0417849971
    8    4    8    6        0.0045583532
    8    5    8    5        0.0070330443
    8    6    8    1        0.0003153121
    8    6    8    2       -0.0105375876
    8    6    8    4        0.0045583532
    8    6    8    6        0.0173610452
    8    7    8    3        0.0043633242
    8    7    8    7        0.0200976960
    8    7    8    8        0.0472977481
    8    8    8    3        0.0197555657
    8    8    8    7        0.0472977481
    8    8    8    8        0.3735147662
 end_two_electron_integrals

 Task  times  cpu:      661.3s     wall:      661.3s
 
 
                                NWChem Input Module
                                -------------------
 
 
 Summary of allocated global arrays
-----------------------------------
  No active global arrays


MA_summarize_allocated_blocks: starting scan ...
MA_summarize_allocated_blocks: scan completed: 0 heap blocks, 0 stack blocks
MA usage statistics:

	allocation statistics:
					      heap	     stack
					      ----	     -----
	current number of blocks	         0	         0
	maximum number of blocks	        16	        42
	current total bytes		         0	         0
	maximum total bytes		     80104	4725685704
	maximum total K-bytes		        81	   4725686
	maximum total M-bytes		         1	      4726
 
 
                                     CITATION
                                     --------
                Please cite the following reference when publishing
                           results obtained with NWChem:
 
          E. Apra, E. J. Bylaska, W. A. de Jong, N. Govind, K. Kowalski,
       T. P. Straatsma, M. Valiev, H. J. J. van Dam, Y. Alexeev, J. Anchell,
       V. Anisimov, F. W. Aquino, R. Atta-Fynn, J. Autschbach, N. P. Bauman,
     J. C. Becca, D. E. Bernholdt, K. Bhaskaran-Nair, S. Bogatko, P. Borowski,
         J. Boschen, J. Brabec, A. Bruner, E. Cauet, Y. Chen, G. N. Chuev,
      C. J. Cramer, J. Daily, M. J. O. Deegan, T. H. Dunning Jr., M. Dupuis,
   K. G. Dyall, G. I. Fann, S. A. Fischer, A. Fonari, H. Fruchtl, L. Gagliardi,
      J. Garza, N. Gawande, S. Ghosh, K. Glaesemann, A. W. Gotz, J. Hammond,
       V. Helms, E. D. Hermes, K. Hirao, S. Hirata, M. Jacquelin, L. Jensen,
   B. G. Johnson, H. Jonsson, R. A. Kendall, M. Klemm, R. Kobayashi, V. Konkov,
      S. Krishnamoorthy, M. Krishnan, Z. Lin, R. D. Lins, R. J. Littlefield,
      A. J. Logsdail, K. Lopata, W. Ma, A. V. Marenich, J. Martin del Campo,
   D. Mejia-Rodriguez, J. E. Moore, J. M. Mullin, T. Nakajima, D. R. Nascimento,
    J. A. Nichols, P. J. Nichols, J. Nieplocha, A. Otero-de-la-Roza, B. Palmer,
    A. Panyala, T. Pirojsirikul, B. Peng, R. Peverati, J. Pittner, L. Pollack,
   R. M. Richard, P. Sadayappan, G. C. Schatz, W. A. Shelton, D. W. Silverstein,
   D. M. A. Smith, T. A. Soares, D. Song, M. Swart, H. L. Taylor, G. S. Thomas,
            V. Tipparaju, D. G. Truhlar, K. Tsemekhman, T. Van Voorhis,
      A. Vazquez-Mayagoitia, P. Verma, O. Villa, A. Vishnu, K. D. Vogiatzis,
        D. Wang, J. H. Weare, M. J. Williamson, T. L. Windus, K. Wolinski,
        A. T. Wong, Q. Wu, C. Yang, Q. Yu, M. Zacharias, Z. Zhang, Y. Zhao,
                                and R. J. Harrison
                        "NWChem: Past, present, and future
                         J. Chem. Phys. 152, 184102 (2020)
                               doi:10.1063/5.0004997
 
                                      AUTHORS
                                      -------
  E. Apra, E. J. Bylaska, N. Govind, K. Kowalski, M. Valiev, D. Mejia-Rodriguez,
       A. Kunitsa, N. P. Bauman, A. Panyala, W. A. de Jong, T. P. Straatsma,
   H. J. J. van Dam, D. Wang, T. L. Windus, J. Hammond, J. Autschbach, A. Woods,
    K. Bhaskaran-Nair, J. Brabec, K. Lopata, S. A. Fischer, S. Krishnamoorthy,
     M. Jacquelin, W. Ma, M. Klemm, O. Villa, Y. Chen, V. Anisimov, F. Aquino,
     S. Hirata, M. T. Hackler, E. Hermes, L. Jensen, J. E. Moore, J. C. Becca,
      V. Konjkov, T. Risthaus, M. Malagoli, A. Marenich, A. Otero-de-la-Roza,
        J. Mullin, P. Nichols, R. Peverati, J. Pittner, Y. Zhao, P.-D. Fan,
        A. Fonari, M. J. Williamson, R. J. Harrison, J. R. Rehr, M. Dupuis,
     D. Silverstein, D. M. A. Smith, J. Nieplocha, V. Tipparaju, M. Krishnan,
     B. E. Van Kuiken, A. Vazquez-Mayagoitia, M. Swart, Q. Wu, T. Van Voorhis,
     A. A. Auer, M. Nooijen, L. D. Crosby, E. Brown, G. Cisneros, G. I. Fann,
   H. Fruchtl, J. Garza, K. Hirao, R. A. Kendall, J. A. Nichols, K. Tsemekhman,
    K. Wolinski, J. Anchell, D. E. Bernholdt, P. Borowski, T. Clark, D. Clerc,
   H. Dachsel, M. J. O. Deegan, K. Dyall, D. Elwood, E. Glendening, M. Gutowski,
   A. C. Hess, J. Jaffe, B. G. Johnson, J. Ju, R. Kobayashi, R. Kutteh, Z. Lin,
   R. Littlefield, X. Long, B. Meng, T. Nakajima, S. Niu, L. Pollack, M. Rosing,
   K. Glaesemann, G. Sandrone, M. Stave, H. Taylor, G. Thomas, J. H. van Lenthe,
                               A. T. Wong, Z. Zhang.

 Total times  cpu:      661.7s     wall:      661.7s
