 argument  1 = input.nw
  NWChem w/ OpenMP: maximum threads =    1
 


============================== echo of input deck ==============================
 echo
 start H2O
 title "H2O"

 memory total 24 gb

 geometry units angstrom
 symmetry c1
   zmatrix
     O
     H1 O 0.97551
     H2 O 0.97551 H1 103.00
   end
 end

 basis spherical
   * library cc-pVTZ
 end

 tce
   2eorb
   2emet 13
   ccsd
   maxiter 300
 end

# set tce:print_integrals T
# set tce:qorb 8
# set tce:qela 5
# set tce:qelb 5

 set tce:qducc T
 set tce:nactv 3
 set tce:nonhf T
 set tce:ducc_model 6

 set tce:printtol 0.02

 task tce
================================================================================


                                         
                                         
 
 
             Northwest Computational Chemistry Package (NWChem) 7.2.3
             --------------------------------------------------------
 
 
                    Environmental Molecular Sciences Laboratory
                       Pacific Northwest National Laboratory
                                Richland, WA 99352
 
                              Copyright (c) 1994-2022
                       Pacific Northwest National Laboratory
                            Battelle Memorial Institute
 
             NWChem is an open-source computational chemistry package
                        distributed under the terms of the
                      Educational Community License (ECL) 2.0
             A copy of the license is included with this distribution
                              in the LICENSE.TXT file
 
                                  ACKNOWLEDGMENT
                                  --------------

            This software and its documentation were developed at the
            EMSL at Pacific Northwest National Laboratory, a multiprogram
            national laboratory, operated for the U.S. Department of Energy
            by Battelle under Contract Number DE-AC05-76RL01830. Support
            for this work was provided by the Department of Energy Office
            of Biological and Environmental Research, Office of Basic
            Energy Sciences, and the Office of Advanced Scientific Computing.


           Job information
           ---------------

    hostname        = koothan
    program         = /hpc/home/baum612/code/nwchem/bin/LINUX64/nwchem
    date            = Fri Nov 22 01:19:19 2024

    compiled        = Thu_Nov_21_17:16:59_2024
    source          = /hpc/home/baum612/code/nwchem
    nwchem branch   = 7.2.3
    nwchem revision = v7.2.0-beta1-1291-g6d839a76f0
    ga revision     = 5.8.0
    use scalapack   = T
    input           = input.nw
    prefix          = H2O.
    data base       = ./H2O.db
    status          = startup
    nproc           =        1
    time left       =     -1s



           Memory information
           ------------------

    heap     =    805306368 doubles =     6144.0 Mbytes
    stack    =    805306365 doubles =     6144.0 Mbytes
    global   =   1610612736 doubles =    12288.0 Mbytes (distinct from heap & stack)
    total    =   3221225469 doubles =    24576.0 Mbytes
    verify   = yes
    hardfail = no 


           Directory information
           ---------------------
 
  0 permanent = .
  0 scratch   = .
 
 
 
 
                                NWChem Input Module
                                -------------------
 
 
                                        H2O
                                        ---

 Scaling coordinates for geometry "geometry" by  1.889725989
 (inverse scale =  0.529177249)

 Turning off AUTOSYM since
 SYMMETRY directive was detected!
 
 
 
                             Geometry "geometry" -> ""
                             -------------------------
 
 Output coordinates in angstroms (scale by  1.889725989 to convert to a.u.)
 
  No.       Tag          Charge          X              Y              Z
 ---- ---------------- ---------- -------------- -------------- --------------
    1 O                    8.0000    -0.09505077     0.00000000    -0.07560680
    2 H1                   1.0000    -0.09505077     0.00000000     0.89990320
    3 H2                   1.0000     0.85545697     0.00000000    -0.29504880
 
      Atomic Mass 
      ----------- 
 
      O                 15.994910
      H1                 1.007825
      H2                 1.007825
 

 Effective nuclear repulsion energy (a.u.)       9.0259676286

            Nuclear Dipole moment (a.u.) 
            ----------------------------
        X                 Y               Z
 ---------------- ---------------- ----------------
     0.0000000000     0.0000000000     0.0000000000
 


                                Z-matrix (user)
                                -------- 

 Units are Angstrom for bonds and degrees for angles
 
      Type          Name      I     J     K     L     M      Value
      ----------- --------  ----- ----- ----- ----- ----- ----------
    1 Stretch                  2     1                       0.97551
    2 Stretch                  3     1                       0.97551
    3 Bend                     3     1     2               103.00000
 
 
            XYZ format geometry
            -------------------
     3
 geometry
 O                    -0.09505077     0.00000000    -0.07560680
 H1                   -0.09505077     0.00000000     0.89990320
 H2                    0.85545697     0.00000000    -0.29504880
 
 ==============================================================================
                                internuclear distances
 ------------------------------------------------------------------------------
       center one      |      center two      | atomic units |  angstroms
 ------------------------------------------------------------------------------
    2 H1               |   1 O                |     1.84345  |     0.97551
    3 H2               |   1 O                |     1.84345  |     0.97551
 ------------------------------------------------------------------------------
                         number of included internuclear distances:          2
 ==============================================================================



 ==============================================================================
                                 internuclear angles
 ------------------------------------------------------------------------------
        center 1       |       center 2       |       center 3       |  degrees
 ------------------------------------------------------------------------------
    2 H1               |   1 O                |   3 H2               |   103.00
 ------------------------------------------------------------------------------
                            number of included internuclear angles:          1
 ==============================================================================





 Summary of "ao basis" -> "" (spherical)
 ------------------------------------------------------------------------------
       Tag                 Description            Shells   Functions and Types
 ---------------- ------------------------------  ------  ---------------------
 *                          cc-pVTZ                   on all atoms 


                      Basis "ao basis" -> "ao basis" (spherical)
                      -----
  O (Oxygen)
  ----------
            Exponent  Coefficients 
       -------------- ---------------------------------------------------------
  1 S  1.53300000E+04  0.000508
  1 S  2.29900000E+03  0.003929
  1 S  5.22400000E+02  0.020243
  1 S  1.47300000E+02  0.079181
  1 S  4.75500000E+01  0.230687
  1 S  1.67600000E+01  0.433118
  1 S  6.20700000E+00  0.350260
  1 S  6.88200000E-01 -0.008154
 
  2 S  1.53300000E+04 -0.000115
  2 S  2.29900000E+03 -0.000895
  2 S  5.22400000E+02 -0.004636
  2 S  1.47300000E+02 -0.018724
  2 S  4.75500000E+01 -0.058463
  2 S  1.67600000E+01 -0.136463
  2 S  6.20700000E+00 -0.175740
  2 S  6.88200000E-01  0.603418
 
  3 S  1.75200000E+00  1.000000
 
  4 S  2.38400000E-01  1.000000
 
  5 P  3.44600000E+01  0.015928
  5 P  7.74900000E+00  0.099740
  5 P  2.28000000E+00  0.310492
 
  6 P  7.15600000E-01  1.000000
 
  7 P  2.14000000E-01  1.000000
 
  8 D  2.31400000E+00  1.000000
 
  9 D  6.45000000E-01  1.000000
 
 10 F  1.42800000E+00  1.000000
 
  H1 (Hydrogen)
  -------------
            Exponent  Coefficients 
       -------------- ---------------------------------------------------------
  1 S  3.38700000E+01  0.006068
  1 S  5.09500000E+00  0.045308
  1 S  1.15900000E+00  0.202822
 
  2 S  3.25800000E-01  1.000000
 
  3 S  1.02700000E-01  1.000000
 
  4 P  1.40700000E+00  1.000000
 
  5 P  3.88000000E-01  1.000000
 
  6 D  1.05700000E+00  1.000000
 
  H2 (Hydrogen)
  -------------
            Exponent  Coefficients 
       -------------- ---------------------------------------------------------
  1 S  3.38700000E+01  0.006068
  1 S  5.09500000E+00  0.045308
  1 S  1.15900000E+00  0.202822
 
  2 S  3.25800000E-01  1.000000
 
  3 S  1.02700000E-01  1.000000
 
  4 P  1.40700000E+00  1.000000
 
  5 P  3.88000000E-01  1.000000
 
  6 D  1.05700000E+00  1.000000
 


 Summary of "ao basis" -> "ao basis" (spherical)
 ------------------------------------------------------------------------------
       Tag                 Description            Shells   Functions and Types
 ---------------- ------------------------------  ------  ---------------------
 O                          cc-pVTZ                 10       30   4s3p2d1f
 H1                         cc-pVTZ                  6       14   3s2p1d
 H2                         cc-pVTZ                  6       14   3s2p1d


                                 NWChem SCF Module
                                 -----------------
 
 
                                        H2O
 
 

  ao basis        = "ao basis"
  functions       =    58
  atoms           =     3
  closed shells   =     5
  open shells     =     0
  charge          =   0.00
  wavefunction    = RHF 
  input vectors   = atomic
  output vectors  = ./H2O.movecs
  use symmetry    = F
  symmetry adapt  = F


 Summary of "ao basis" -> "ao basis" (spherical)
 ------------------------------------------------------------------------------
       Tag                 Description            Shells   Functions and Types
 ---------------- ------------------------------  ------  ---------------------
 O                          cc-pVTZ                 10       30   4s3p2d1f
 H1                         cc-pVTZ                  6       14   3s2p1d
 H2                         cc-pVTZ                  6       14   3s2p1d



 Forming initial guess at       0.5s

 
      Superposition of Atomic Density Guess
      -------------------------------------
 
 Sum of atomic energies:         -75.78028790
 
      Non-variational initial energy
      ------------------------------

 Total energy =     -75.911335
 1-e energy   =    -121.489071
 2-e energy   =      36.551768
 HOMO         =      -0.472258
 LUMO         =       0.062266
 

 Starting SCF solution at       0.6s



 ----------------------------------------------
         Quadratically convergent ROHF

 Convergence threshold     :          1.000E-04
 Maximum no. of iterations :           30
 Final Fock-matrix accuracy:          1.000E-07
 ----------------------------------------------


              iter       energy          gnorm     gmax       time
             ----- ------------------- --------- --------- --------
                 1      -76.0199325969  8.47D-01  2.94D-01      0.8
                 2      -76.0529573163  1.97D-01  6.23D-02      1.1
                 3      -76.0551972453  1.65D-02  6.58D-03      1.4
                 4      -76.0552222284  7.13D-05  2.94D-05      2.0


       Final RHF  results 
       ------------------ 

         Total SCF energy =    -76.055222228378
      One-electron energy =   -122.814089593727
      Two-electron energy =     37.732899736730
 Nuclear repulsion energy =      9.025967628619

        Time for solution =      1.4s


             Final eigenvalues
             -----------------

              1      
    1  -20.5587
    2   -1.3375
    3   -0.6971
    4   -0.5772
    5   -0.5036
    6    0.1400
    7    0.2026
    8    0.5341
    9    0.5967
   10    0.6707
   11    0.7868
   12    0.7901
   13    0.8060
   14    0.8605
   15    0.9471
 
                       ROHF Final Molecular Orbital Analysis
                       -------------------------------------
 
 Vector    2  Occ=2.000000D+00  E=-1.337538D+00
              MO Center=  3.6D-02,  1.3D-16,  2.9D-02, r^2= 5.0D-01
   Bfn.  Coefficient  Atom+Function         Bfn.  Coefficient  Atom+Function  
  ----- ------------  ---------------      ----- ------------  ---------------
     2      0.506232  1 O  s                  4      0.287931  1 O  s          
 
 Vector    3  Occ=2.000000D+00  E=-6.970906D-01
              MO Center=  7.7D-02, -2.1D-16,  6.1D-02, r^2= 7.8D-01
   Bfn.  Coefficient  Atom+Function         Bfn.  Coefficient  Atom+Function  
  ----- ------------  ---------------      ----- ------------  ---------------
    10      0.267761  1 O  pz                 7      0.220139  1 O  pz         
    32      0.217645  2 H  s                 46     -0.217645  3 H  s          
     8     -0.212987  1 O  px                 5     -0.175107  1 O  px         
 
 Vector    4  Occ=2.000000D+00  E=-5.772398D-01
              MO Center= -1.2D-01, -2.2D-16, -9.4D-02, r^2= 7.1D-01
   Bfn.  Coefficient  Atom+Function         Bfn.  Coefficient  Atom+Function  
  ----- ------------  ---------------      ----- ------------  ---------------
     8     -0.297901  1 O  px                 4      0.276303  1 O  s          
     5     -0.243243  1 O  px                10     -0.236961  1 O  pz         
    11     -0.215537  1 O  px                 7     -0.193484  1 O  pz         
     2      0.178747  1 O  s                 13     -0.171446  1 O  pz         
 
 Vector    5  Occ=2.000000D+00  E=-5.035538D-01
              MO Center= -6.8D-02,  6.0D-17, -5.4D-02, r^2= 6.3D-01
   Bfn.  Coefficient  Atom+Function         Bfn.  Coefficient  Atom+Function  
  ----- ------------  ---------------      ----- ------------  ---------------
     9      0.444819  1 O  py                12      0.376308  1 O  py         
     6      0.357561  1 O  py         
 
 Vector    6  Occ=0.000000D+00  E= 1.400440D-01
              MO Center=  5.0D-01,  7.7D-17,  4.0D-01, r^2= 3.7D+00
   Bfn.  Coefficient  Atom+Function         Bfn.  Coefficient  Atom+Function  
  ----- ------------  ---------------      ----- ------------  ---------------
     4      1.476223  1 O  s                 33     -0.909694  2 H  s          
    47     -0.909694  3 H  s                 11      0.356570  1 O  px         
    13      0.283628  1 O  pz                32     -0.254068  2 H  s          
    46     -0.254068  3 H  s                 39      0.168666  2 H  pz         
    51      0.164439  3 H  px                 8      0.151572  1 O  px         
 
 Vector    7  Occ=0.000000D+00  E= 2.026204D-01
              MO Center=  5.5D-01, -2.0D-16,  4.4D-01, r^2= 4.6D+00
   Bfn.  Coefficient  Atom+Function         Bfn.  Coefficient  Atom+Function  
  ----- ------------  ---------------      ----- ------------  ---------------
    33      1.736588  2 H  s                 47     -1.736588  3 H  s          
    13     -0.644693  1 O  pz                11      0.512812  1 O  px         
    39     -0.164152  2 H  pz                51      0.160128  3 H  px         
    10     -0.158273  1 O  pz         
 
 Vector    8  Occ=0.000000D+00  E= 5.341033D-01
              MO Center=  5.4D-02, -4.5D-17,  4.3D-02, r^2= 2.3D+00
   Bfn.  Coefficient  Atom+Function         Bfn.  Coefficient  Atom+Function  
  ----- ------------  ---------------      ----- ------------  ---------------
    32      1.476580  2 H  s                 46     -1.476580  3 H  s          
    13     -0.888842  1 O  pz                11      0.707017  1 O  px         
    33     -0.654125  2 H  s                 47      0.654125  3 H  s          
    10     -0.203307  1 O  pz                 8      0.161717  1 O  px         
 
 Vector    9  Occ=0.000000D+00  E= 5.967278D-01
              MO Center=  4.3D-01,  3.2D-16,  3.4D-01, r^2= 2.1D+00
   Bfn.  Coefficient  Atom+Function         Bfn.  Coefficient  Atom+Function  
  ----- ------------  ---------------      ----- ------------  ---------------
    32      1.317654  2 H  s                 46      1.317654  3 H  s          
    33     -0.622268  2 H  s                 47     -0.622268  3 H  s          
     4     -0.460246  1 O  s                 11     -0.440077  1 O  px         
    13     -0.350053  1 O  pz                 2     -0.198337  1 O  s          
    53     -0.197908  3 H  pz                39      0.171297  2 H  pz         
 
 Vector   10  Occ=0.000000D+00  E= 6.707440D-01
              MO Center= -3.0D-01,  1.3D-16, -2.4D-01, r^2= 2.3D+00
   Bfn.  Coefficient  Atom+Function         Bfn.  Coefficient  Atom+Function  
  ----- ------------  ---------------      ----- ------------  ---------------
     4      4.416612  1 O  s                 32     -2.240881  2 H  s          
    46     -2.240881  3 H  s                 11      2.070121  1 O  px         
    13      1.646649  1 O  pz                39      1.101581  2 H  pz         
    51      1.059703  3 H  px                33     -0.431136  2 H  s          
    47     -0.431136  3 H  s                 53     -0.306904  3 H  pz         
 
 Vector   11  Occ=0.000000D+00  E= 7.867712D-01
              MO Center= -5.2D-02,  2.4D-15, -4.2D-02, r^2= 1.7D+00
   Bfn.  Coefficient  Atom+Function         Bfn.  Coefficient  Atom+Function  
  ----- ------------  ---------------      ----- ------------  ---------------
    12      1.125277  1 O  py                 9     -0.774503  1 O  py         
     6     -0.259415  1 O  py         
 
 Vector   12  Occ=0.000000D+00  E= 7.900840D-01
              MO Center=  1.6D-01, -2.5D-15,  1.3D-01, r^2= 2.0D+00
   Bfn.  Coefficient  Atom+Function         Bfn.  Coefficient  Atom+Function  
  ----- ------------  ---------------      ----- ------------  ---------------
    11      1.055564  1 O  px                32     -0.983045  2 H  s          
    46     -0.983045  3 H  s                 37     -0.855265  2 H  px         
    53     -0.845510  3 H  pz                13      0.839634  1 O  pz         
     4      0.790981  1 O  s                 33      0.229932  2 H  s          
    47      0.229932  3 H  s          
 
 Vector   13  Occ=0.000000D+00  E= 8.060149D-01
              MO Center= -7.3D-02, -1.6D-15, -5.8D-02, r^2= 3.0D+00
   Bfn.  Coefficient  Atom+Function         Bfn.  Coefficient  Atom+Function  
  ----- ------------  ---------------      ----- ------------  ---------------
    13      2.288489  1 O  pz                11     -1.820347  1 O  px         
    32     -1.585315  2 H  s                 46      1.585315  3 H  s          
    33     -1.431872  2 H  s                 47      1.431872  3 H  s          
    39      1.164318  2 H  pz                51     -1.139538  3 H  px         
    21      0.388524  1 O  d  0              53      0.239993  3 H  pz         
 
 Vector   14  Occ=0.000000D+00  E= 8.605138D-01
              MO Center=  3.7D-01,  1.4D-15,  2.9D-01, r^2= 1.7D+00
   Bfn.  Coefficient  Atom+Function         Bfn.  Coefficient  Atom+Function  
  ----- ------------  ---------------      ----- ------------  ---------------
    38      0.840004  2 H  py                52     -0.840004  3 H  py         
 
 Vector   15  Occ=0.000000D+00  E= 9.471035D-01
              MO Center=  1.7D-01,  5.4D-16,  1.3D-01, r^2= 2.0D+00
   Bfn.  Coefficient  Atom+Function         Bfn.  Coefficient  Atom+Function  
  ----- ------------  ---------------      ----- ------------  ---------------
    12      1.159610  1 O  py                38     -0.988528  2 H  py         
    52     -0.988528  3 H  py         
 

 center of mass
 --------------
 x =  -0.07910919 y =   0.00000000 z =  -0.06292629

 moments of inertia (a.u.)
 ------------------
           3.483073418472           0.000000000000           0.895415380322
           0.000000000000           6.552700978621           0.000000000000
           0.895415380322           0.000000000000           3.069627560150
 
  Mulliken analysis of the total density
  --------------------------------------

    Atom       Charge   Shell Charges
 -----------   ------   -------------------------------------------------------
    1 O    8     8.49   1.95  1.00  0.23  0.61  1.25  2.14  1.29  0.00  0.02  0.00
    2 H    1     0.76   0.25  0.38  0.04  0.02  0.06  0.01
    3 H    1     0.76   0.25  0.38  0.04  0.02  0.06  0.01
 
       Multipole analysis of the density wrt the origin
       ------------------------------------------------
 
     L   x y z        total         open         nuclear
     -   - - -        -----         ----         -------
     0   0 0 0      0.000000      0.000000     10.000000
 
     1   1 0 0      0.635414      0.000000      0.000000
     1   0 1 0      0.000000      0.000000      0.000000
     1   0 0 1      0.505431      0.000000      0.000000
 
     2   2 0 0     -3.946291      0.000000      2.903698
     2   1 1 0      0.000000      0.000000      0.000000
     2   1 0 1     -0.663328      0.000000     -1.001491
     2   0 2 0     -5.452260      0.000000      0.000000
     2   0 1 1      0.000000      0.000000      0.000000
     2   0 0 2     -3.640008      0.000000      3.366123
 
                   NWChem Extensible Many-Electron Theory Module
                   ---------------------------------------------
 
              ======================================================
                   This portion of the program was automatically
                  generated by a Tensor Contraction Engine (TCE).
                  The development of this portion of the program
                 and TCE was supported by US Department of Energy,
                Office of Science, Office of Basic Energy Science.
                      TCE is a product of Battelle and PNNL.
              Please cite: S.Hirata, J.Phys.Chem.A 107, 9887 (2003).
              ======================================================
 
                                        H2O
 
 
            General Information
            -------------------
      Number of processors :     1
         Wavefunction type : Restricted Hartree-Fock
          No. of electrons :    10
           Alpha electrons :     5
            Beta electrons :     5
           No. of orbitals :   116
            Alpha orbitals :    58
             Beta orbitals :    58
        Alpha frozen cores :     0
         Beta frozen cores :     0
     Alpha frozen virtuals :     0
      Beta frozen virtuals :     0
         Spin multiplicity : singlet 
    Number of AO functions :    58
       Number of AO shells :    22
        Use of symmetry is : off
      Symmetry adaption is : off
         Schwarz screening : 0.10D-09
 
          Correlation Information
          -----------------------
          Calculation type : Coupled-cluster singles & doubles                           
   Perturbative correction : none                                                        
            Max iterations :      300
        Residual threshold : 0.10D-06
     T(0) DIIS level shift : 0.00D+00
     L(0) DIIS level shift : 0.00D+00
     T(1) DIIS level shift : 0.00D+00
     L(1) DIIS level shift : 0.00D+00
     T(R) DIIS level shift : 0.00D+00
     T(I) DIIS level shift : 0.00D+00
   CC-T/L Amplitude update :  5-th order DIIS
                I/O scheme : Global Array Library
        L-threshold :  0.10D-06
        EOM-threshold :  0.10D-06
 no EOMCCSD initial starts read in
 TCE RESTART OPTIONS
 READ_INT:   F
 WRITE_INT:  F
 READ_TA:    F
 WRITE_TA:   F
 READ_XA:    F
 WRITE_XA:   F
 READ_IN3:   F
 WRITE_IN3:  F
 SLICE:      F
 D4D5:       F
 quantumc:   F
 qrotation:  F
 pwtce:      F
 qducc:      T
 nacto:                          0
 nrotv:                          0
 nrot:                           0
 
            Memory Information
            ------------------
          Available GA space size is    1610609372 doubles
          Available MA space size is    1610609756 doubles
 
 Maximum block size        32 doubles

 tile_dim =     27

 Block   Spin    Irrep     Size     Offset   Alpha
 -------------------------------------------------
   1    alpha     a      5 doubles       0       1
   2    beta      a      5 doubles       5       1
   3    alpha     a     26 doubles      10       3
   4    alpha     a     27 doubles      36       4
   5    beta      a     26 doubles      63       3
   6    beta      a     27 doubles      89       4

 Global array virtual files algorithm will be used

 Parallel file system coherency ......... OK
 
 Fock matrix recomputed
 1-e file size   =             3364
 1-e file name   = ./H2O.f1
 Cpu & wall time / sec            0.1            0.1
 4-electron integrals stored in orbital form
 
 v2    file size   =          3631290
 4-index algorithm nr.  13 is used
 imaxsize =       30
 imaxsize ichop =        0
 Cpu & wall time / sec            1.2            1.2
 T1-number-of-tasks                     2
 
 t1 file size   =              265
 t1 file name   = ./H2O.t1
 t1 file handle =       -998
 T2-number-of-boxes                     7
 
 t2 file size   =           122900
 t2 file name   = ./H2O.t2
 t2 file handle =       -996
CCSD iterations
 ---------------------------------------------------------
 Iter          Residuum       Correlation     Cpu    Wall 
 ---------------------------------------------------------
NEW TASK SCHEDULING
CCSD_T1_NTS --- OK
CCSD_T2_NTS --- OK
    1   0.1392481365279  -0.2764131537719     0.2     0.2
    2   0.0306770315811  -0.2774322964015     0.2     0.2
    3   0.0104441397730  -0.2812159336914     0.2     0.2
    4   0.0041491767171  -0.2816427226309     0.2     0.2
    5   0.0017278438315  -0.2819126932006     0.2     0.2
 MICROCYCLE DIIS UPDATE:                     5                     5
    6   0.0003455740345  -0.2820374927184     0.2     0.2
    7   0.0001368150324  -0.2820500445761     0.2     0.2
    8   0.0000528468887  -0.2820494048843     0.2     0.2
    9   0.0000293496753  -0.2820496076089     0.2     0.2
   10   0.0000144978315  -0.2820498847876     0.2     0.2
 MICROCYCLE DIIS UPDATE:                    10                     5
   11   0.0000029327069  -0.2820503796222     0.2     0.2
   12   0.0000013241954  -0.2820501870467     0.2     0.2
   13   0.0000006279155  -0.2820502113867     0.2     0.2
   14   0.0000003680596  -0.2820502005408     0.2     0.2
   15   0.0000001996715  -0.2820501994843     0.2     0.2
 MICROCYCLE DIIS UPDATE:                    15                     5
   16   0.0000000314844  -0.2820501950564     0.2     0.2
 -----------------------------------------------------------------
 Iterations converged
 CCSD correlation energy / hartree =        -0.282050195056424
 CCSD total energy / hartree       =       -76.337272423434058

 Singles contributions

 Doubles contributions
     7a   (alpha)     7a   (beta ) ---     3a   (alpha)     3a   (beta )       -0.0208925723
     8a   (alpha)     8a   (beta ) ---     3a   (alpha)     3a   (beta )       -0.0282828404
     8a   (alpha)     8a   (beta ) ---     4a   (alpha)     4a   (beta )       -0.0226236713
     9a   (alpha)     9a   (beta ) ---     3a   (alpha)     3a   (beta )       -0.0258412148
    10a   (alpha)    10a   (beta ) ---     4a   (alpha)     4a   (beta )       -0.0294770555
    10a   (alpha)    11a   (beta ) ---     4a   (alpha)     5a   (beta )        0.0259435284
    11a   (alpha)    10a   (beta ) ---     5a   (alpha)     4a   (beta )        0.0259435284
    11a   (alpha)    11a   (beta ) ---     5a   (alpha)     5a   (beta )       -0.0477853530
    11a   (alpha)    13a   (beta ) ---     5a   (alpha)     3a   (beta )       -0.0222394570
    13a   (alpha)    11a   (beta ) ---     3a   (alpha)     5a   (beta )       -0.0222394570
    13a   (alpha)    13a   (beta ) ---     3a   (alpha)     3a   (beta )       -0.0224509587
 Ground state specification:
 exp(T)|Ref>~(1+T)|Ref>
 ------- a(p)+/a(q) strings ----------

 singles norm

 doubles norm

 Reference string
   1.00000000000000      :(1a)+ (2a)+ (3a)+ (4a)+ (5a)+ (1b)+ (2b)+ (3b)+ (4b)+ 
 (5b)+ |0>

 Singles strings

 Doubles strings
 -------------------------------------
 enrep_tce =    9.02596762861939     
  EHF(total)         =       -76.05522223
  Shift (HFtot-HFA)  =         0.00000000
 ALL OCCUPIED ORBITALS ARE ACTIVE IN DUCC --> NO SHIFT
 Number of active orbitals                     8
 Number of active alpha electrons                     5
 Number of active beta electrons                     5
  nos                     10
  nvs                    106
 noas                      5
 nobs                      5
 nvas                     53
 nvbs                     53
 nactv                      3
 DUCC MODEL =                      6
 NONHF =  T
 F-T1 correlation    =   1.300152671311123E-007
 V-T1-T1 correlation =   3.474029274297508E-005
 V-T2 correlation    =  -0.282085065364353     
 Total correlation   =  -0.282050195056343     
 F-T1(Ext) correlation         =   1.011427651747501E-007
 V-T1(Ext)-T1(Ext) correlation =   3.150175263879000E-005
 V-T2(Ext) correlation         =  -0.273967987993331     
 Total Ext correlation         =  -0.273936385097927     
1-BODY TIME =  274.651 SECONDS.
  HHHH TIME =  271.304 SECONDS.
  PPPP TIME =    2.932 SECONDS.
  HHHP TIME =   22.794 SECONDS.
  PPPH TIME =    5.826 SECONDS.
  HPHP TIME =   20.247 SECONDS.
  HHPP TIME =   12.477 SECONDS.
 ONE-BODY UNITARY CHECK
 TWO-BODY UNITARY CHECK
                     1                     3                     2
                     3 -1.458097531603642E-012
                     1                     3                     3
                     2  2.437106072505912E-012
                     1                     4                     2
                     4 -1.249507441958286E-012
                     1                     4                     4
                     2  1.669199500842211E-012
                     1                     5                     2
                     5 -1.337346899887848E-012
                     1                     5                     5
                     2  1.081183753637305E-012
                     1                     6                     2
                     9 -2.018638728396027E-012
                     1                     6                     3
                     8  1.437426566663902E-012
                     1                     6                     5
                    10 -1.612550371010713E-012
                     1                     6                     7
                     4  2.075169897031159E-012
                     1                     6                     8
                     3 -1.437426566663902E-012
                     1                     6                    10
                     5  1.612550371010713E-012
                     1                     7                     2
                     7 -1.447378675245581E-012
                     1                     7                     5
                    10 -2.090116274500176E-012
                     1                     7                     7
                     2  1.707009533724602E-012
                     1                     7                     9
                     2 -1.100207598636604E-012
                     1                     7                    10
                     5  2.662769310601831E-012
                     1                     8                     2
                     8 -2.846595355265880E-012
                     1                     8                     3
                     7 -1.229925883361460E-012
                     1                     8                     4
                     8  1.084577740118053E-012
                     1                     8                     7
                     3  1.388580223027347E-012
                     1                     8                     8
                     2  3.666913994671006E-012
                     1                     8                     8
                     4 -1.423622504603816E-012
                     1                     8                     9
                     3 -1.160657073923099E-012
                     1                     9                     2
                     9 -2.656267567013870E-012
                     1                     9                     3
                     8  2.222569350784909E-012
                     1                     9                     4
                     9  1.999027679500109E-012
                     1                     9                     7
                     2 -1.571747072770524E-012
                     1                     9                     7
                     4  1.406590122154938E-012
                     1                     9                     8
                     3 -2.354744437632617E-012
                     1                     9                     9
                     2  2.372409560469357E-012
                     1                     9                     9
                     4 -1.595459875325389E-012
                     1                    10                     2
                    10 -2.202540233531280E-012
                     1                    10                     5
                     7 -1.765771556749840E-012
                     1                    10                    10
                     2  2.846589283733714E-012
                     2                     2                     2
                     4 -9.623540895002666E-012
                     2                     2                     4
                     2  9.623536188940551E-012
                     2                     3                     1
                     3  1.458097531603642E-012
                     2                     3                     3
                     4 -2.932496172974863E-011
                     2                     3                     4
                     3  2.532512480973859E-011
                     2                     4                     1
                     4  1.249507441958286E-012
                     2                     4                     2
                     2  9.623540895002666E-012
                     2                     4                     3
                     3 -3.598459634800246E-012
                     2                     4                     4
                     2  1.413646977255212E-012
                     2                     4                     4
                     4 -2.869988626173325E-012
                     2                     5                     1
                     5  1.337346899887848E-012
                     2                     5                     4
                     5  2.658197273408547E-011
                     2                     5                     5
                     2  1.684385964040302E-011
                     2                     5                     5
                     4 -3.367155079064821E-011
                     2                     6                     2
                     7 -1.064417651241989E-012
                     2                     6                     4
                     9 -1.467458099480012E-012
                     2                     6                     5
                    10 -2.488863282135156E-012
                     2                     6                    10
                     5  1.916210246033501E-012
                     2                     7                     1
                     7  1.447378675245581E-012
                     2                     7                     2
                     6  1.064417651241989E-012
                     2                     7                     2
                     9 -7.311894145711761E-012
                     2                     7                     3
                     8 -1.841080066178336E-011
                     2                     7                     4
                     7  2.656892414409917E-011
                     2                     7                     4
                     9 -1.235037072611078E-011
                     2                     7                     5
                    10 -4.026559641268079E-011
                     2                     7                     6
                     2 -1.706997390660270E-012
                     2                     7                     6
                     4  1.571753144302690E-012
                     2                     7                     7
                     4 -2.311630054041558E-012
                     2                     7                     8
                     3  1.841080066178336E-011
                     2                     7                     9
                     2 -1.694540341379280E-011
                     2                     7                     9
                     4  1.235037072611078E-011
                     2                     7                    10
                     5  4.026559641268079E-011
                     2                     8                     1
                     8  2.846595355265880E-012
                     2                     8                     3
                     7 -1.543432048833893E-011
                     2                     8                     3
                     9  2.335817476939450E-011
                     2                     8                     4
                     8  4.799866580584844E-011
                     2                     8                     6
                     3 -1.388573284133443E-012
                     2                     8                     8
                     2  1.458755338745732E-011
                     2                     8                     8
                     4 -5.268336635000370E-011
                     2                     8                     9
                     3 -2.267327124660934E-011
                     2                     9                     1
                     6  2.018638728396027E-012
                     2                     9                     1
                     9  2.656267567013870E-012
                     2                     9                     2
                     7  7.311894145711761E-012
                     2                     9                     3
                     8  3.376008674005337E-011
                     2                     9                     4
                     7 -8.682637941959115E-012
                     2                     9                     4
                     9  7.248669720016920E-011
                     2                     9                     5
                    10  1.857052706055740E-011
                     2                     9                     6
                     1 -2.075176835925063E-012
                     2                     9                     6
                     4 -1.406565836026274E-012
                     2                     9                     7
                     2  2.311635258211986E-012
                     2                     9                     8
                     3 -3.735853640329800E-011
                     2                     9                     9
                     2  1.009536898521901E-011
                     2                     9                     9
                     4 -7.535679025227893E-011
                     2                     9                    10
                     5 -1.909154431767313E-011
                     2                    10                     1
                    10  2.202540233531280E-012
                     2                    10                     4
                    10  3.433870549018891E-011
                     2                    10                     5
                     6 -1.165730706409462E-012
                     2                    10                     5
                     7 -3.284782168488931E-011
                     2                    10                     5
                     9  1.572302704699879E-011
                     2                    10                     9
                     5 -7.756666836611359E-012
                     2                    10                    10
                     2  4.969202826998753E-011
                     2                    10                    10
                     4 -4.939464115505388E-011
                     3                     1                     3
                     2 -1.672797317331387E-012
                     3                     1                     3
                     4  1.363706023105316E-012
                     3                     2                     1
                     3 -2.437106072505912E-012
                     3                     2                     3
                     1  1.672797317331387E-012
                     3                     2                     3
                     4  2.192320110172563E-012
                     3                     2                     4
                     3  1.807523315050519E-012
                     3                     3                     2
                     4  3.598459634800246E-012
                     3                     3                     4
                     2 -3.598459784195682E-012
                     3                     4                     2
                     3  2.932496172974863E-011
                     3                     4                     3
                     1 -1.363706023105316E-012
                     3                     4                     3
                     2 -2.192320110172563E-012
                     3                     4                     4
                     3  1.956856898743808E-011
                     3                     5                     5
                     3  5.242539735661467E-011
                     3                     6                     3
                     7 -1.122200422865038E-012
                     3                     6                     3
                     9  1.348917505472613E-012
                     3                     6                     9
                     3 -1.009872740986850E-012
                     3                     7                     1
                     8  1.229925883361460E-012
                     3                     7                     2
                     8  1.543432048833893E-011
                     3                     7                     3
                     6  1.122200422865038E-012
                     3                     7                     4
                     8 -2.898179959909264E-012
                     3                     7                     6
                     3 -3.666927005097076E-012
                     3                     7                     7
                     3 -1.458755338745732E-011
                     3                     7                     8
                     4  2.213276437124101E-012
                     3                     7                     9
                     3  4.705553655059980E-012
                     3                     8                     1
                     6 -1.437426566663902E-012
                     3                     8                     1
                     9 -2.222569350784909E-012
                     3                     8                     2
                     7  1.841080066178336E-011
                     3                     8                     2
                     9 -3.376008674005337E-011
                     3                     8                     4
                     6 -1.681938876368916E-012
                     3                     8                     4
                     7 -1.619189678170319E-011
                     3                     8                     4
                     9  1.529283644163826E-012
                     3                     8                     5
                    10 -2.534130891240771E-011
                     3                     8                     6
                     1  1.437371055512671E-012
                     3                     8                     6
                     4  2.354744003951748E-012
                     3                     8                     7
                     2 -1.841080066178336E-011
                     3                     8                     7
                     4  3.735847221852939E-011
                     3                     8                     9
                     1  1.549764656882946E-012
                     3                     8                     9
                     2  1.259351130322717E-011
                     3                     8                     9
                     4 -1.529242010800402E-012
                     3                     8                    10
                     5  2.534134013743028E-011
                     3                     9                     2
                     8 -2.335817476939450E-011
                     3                     9                     3
                     6 -1.348917505472613E-012
                     3                     9                     4
                     8  3.602333709107342E-012
                     3                     9                     6
                     3  1.423619902518602E-012
                     3                     9                     7
                     3  5.268337328889761E-011
                     3                     9                     8
                     2 -2.213335417722284E-012
                     3                     9                     9
                     3  1.596656140634423E-011
                     3                    10                     5
                     8 -2.324499620565135E-011
                     3                    10                    10
                     3  7.567058091240142E-011
                     4                     2                     1
                     4 -1.669199500842211E-012
                     4                     2                     2
                     2 -9.623536188940551E-012
                     4                     2                     2
                     4 -1.413646977255212E-012
                     4                     2                     3
                     3  3.598459784195682E-012
                     4                     2                     4
                     4  2.870006103692340E-012
                     4                     3                     2
                     3 -2.532512480973859E-011
                     4                     3                     3
                     2 -1.807523315050519E-012
                     4                     3                     3
                     4 -1.956856898743808E-011
                     4                     4                     2
                     4  2.869988626173325E-012
                     4                     4                     4
                     2 -2.870006103692340E-012
                     4                     5                     2
                     5 -2.658197273408547E-011
                     4                     5                     5
                     2 -1.129281130413107E-011
                     4                     5                     5
                     4  3.833289241583770E-011
                     4                     6                     3
                     8  1.681938876368916E-012
                     4                     6                     8
                     3 -1.549762488478601E-012
                     4                     6                     9
                     4 -1.034151930756622E-012
                     4                     6                    10
                     5 -1.012599726291086E-012
                     4                     7                     2
                     7 -2.656892414409917E-011
                     4                     7                     2
                     9  8.682637941959115E-012
                     4                     7                     3
                     8  1.619189678170319E-011
                     4                     7                     4
                     9 -5.100017630432774E-012
                     4                     7                     5
                    10  2.904992218999425E-012
                     4                     7                     6
                     2  1.100195455572273E-012
                     4                     7                     6
                     4 -2.372416499363261E-012
                     4                     7                     7
                     2  1.694539300545195E-011
                     4                     7                     7
                     4 -1.009536898521901E-011
                     4                     7                     8
                     3 -1.259345058790551E-011
                     4                     7                     9
                     4  7.970180071481536E-012
                     4                     7                    10
                     5 -2.383974961883695E-012
                     4                     8                     1
                     8 -1.084577740118053E-012
                     4                     8                     2
                     8 -4.799866580584844E-011
                     4                     8                     3
                     7  2.898179959909264E-012
                     4                     8                     3
                     9 -3.602333709107342E-012
                     4                     8                     6
                     3  1.160672252753514E-012
                     4                     8                     7
                     3  2.267333022720752E-011
                     4                     8                     8
                     1  1.009875343072064E-012
                     4                     8                     8
                     2 -4.705512021696556E-012
                     4                     8                     8
                     4 -1.596656140634423E-011
                     4                     9                     1
                     9 -1.999027679500109E-012
                     4                     9                     2
                     6  1.467458099480012E-012
                     4                     9                     2
                     7  1.235037072611078E-011
                     4                     9                     2
                     9 -7.248669720016920E-011
                     4                     9                     3
                     8 -1.529283644163826E-012
                     4                     9                     4
                     7  5.100017630432774E-012
                     4                     9                     5
                    10 -3.465076836572933E-011
                     4                     9                     6
                     4  1.595468548942769E-012
                     4                     9                     7
                     2 -1.235037072611078E-011
                     4                     9                     7
                     4  7.535662371882523E-011
                     4                     9                     8
                     3  1.529401605360192E-012
                     4                     9                     9
                     1  1.034115501563626E-012
                     4                     9                     9
                     2 -7.969847004574149E-012
                     4                     9                    10
                     5  3.465073367125981E-011
                     4                    10                     2
                    10 -3.433870549018891E-011
                     4                    10                     5
                     7  3.938200460185115E-012
                     4                    10                     5
                     9 -1.623430556652039E-011
                     4                    10                     7
                     5  7.756691122740023E-012
                     4                    10                    10
                     2 -1.523094150801541E-011
                     4                    10                    10
                     4  5.456757268262891E-011
                     5                     2                     1
                     5 -1.081183753637305E-012
                     5                     2                     2
                     5 -1.684385964040302E-011
                     5                     2                     4
                     5  1.129281130413107E-011
                     5                     2                     5
                     4 -4.203233247568328E-012
                     5                     3                     3
                     5 -5.242539735661467E-011
                     5                     4                     2
                     5  3.367155079064821E-011
                     5                     4                     4
                     5 -3.833289241583770E-011
                     5                     4                     5
                     2  4.203233247568328E-012
                     5                     6                     2
                    10  1.165730706409462E-012
                     5                     6                     5
                     9 -1.015681462546159E-012
                     5                     7                     1
                    10  1.765771556749840E-012
                     5                     7                     2
                    10  3.284782168488931E-011
                     5                     7                     4
                    10 -3.938200460185115E-012
                     5                     7                     6
                     5 -2.846584079563286E-012
                     5                     7                     7
                     5 -4.969202826998753E-011
                     5                     7                     9
                     5  1.523094150801541E-011
                     5                     7                    10
                     4 -4.028163219649272E-012
                     5                     8                     3
                    10  2.324499620565135E-011
                     5                     8                     8
                     5 -7.567058091240142E-011
                     5                     9                     2
                    10 -1.572302704699879E-011
                     5                     9                     4
                    10  1.623430556652039E-011
                     5                     9                     5
                     6  1.015681462546159E-012
                     5                     9                     7
                     5  4.939464115505388E-011
                     5                     9                     9
                     5 -5.456757268262891E-011
                     5                     9                    10
                     2  4.028138933520609E-012
                     5                    10                     1
                     6  1.612550371010713E-012
                     5                    10                     1
                     7  2.090116274500176E-012
                     5                    10                     2
                     6  2.488863282135156E-012
                     5                    10                     2
                     7  4.026559641268079E-011
                     5                    10                     2
                     9 -1.857052706055740E-011
                     5                    10                     3
                     8  2.534130891240771E-011
                     5                    10                     4
                     7 -2.904992218999425E-012
                     5                    10                     4
                     9  3.465076836572933E-011
                     5                    10                     6
                     1 -1.612550371010713E-012
                     5                    10                     6
                     2 -2.662758902260975E-012
                     5                    10                     7
                     1 -1.916220654374357E-012
                     5                    10                     7
                     2 -4.026559641268079E-011
                     5                    10                     7
                     4  1.909142288702981E-011
                     5                    10                     8
                     3 -2.534127768738514E-011
                     5                    10                     9
                     1  1.012561562374614E-012
                     5                    10                     9
                     2  2.384096392527013E-012
                     5                    10                     9
                     4 -3.465087244913789E-011
                     6                     1                     2
                     9  2.075176835925063E-012
                     6                     1                     3
                     8 -1.437371055512671E-012
                     6                     1                     5
                    10  1.612550371010713E-012
                     6                     1                     7
                     4 -2.018631789502123E-012
                     6                     1                     8
                     3  1.437371055512671E-012
                     6                     1                    10
                     5 -1.612550371010713E-012
                     6                     2                     2
                     7  1.706997390660270E-012
                     6                     2                     4
                     7 -1.100195455572273E-012
                     6                     2                     5
                    10  2.662758902260975E-012
                     6                     2                     7
                     2 -1.447368266904725E-012
                     6                     2                    10
                     5 -2.090105866159320E-012
                     6                     3                     2
                     8  1.388573284133443E-012
                     6                     3                     3
                     7  3.666927005097076E-012
                     6                     3                     3
                     9 -1.423619902518602E-012
                     6                     3                     4
                     8 -1.160672252753514E-012
                     6                     3                     7
                     3 -2.846608365691949E-012
                     6                     3                     8
                     2 -1.229918944467556E-012
                     6                     3                     9
                     3  1.084575138032839E-012
                     6                     4                     2
                     7 -1.571753144302690E-012
                     6                     4                     2
                     9  1.406565836026274E-012
                     6                     4                     3
                     8 -2.354744003951748E-012
                     6                     4                     4
                     7  2.372416499363261E-012
                     6                     4                     4
                     9 -1.595468548942769E-012
                     6                     4                     7
                     4 -2.656269301737346E-012
                     6                     4                     8
                     3  2.222567616061433E-012
                     6                     4                     9
                     4  1.999051965628773E-012
                     6                     5                     5
                     7  2.846584079563286E-012
                     6                     5                     7
                     5 -2.202535029360853E-012
                     6                     5                    10
                     2 -1.765788903984600E-012
                     6                     8                     7
                     8 -1.458097531603642E-012
                     6                     8                     8
                     7  2.437106072505912E-012
                     6                     9                     7
                     9 -1.249507441958286E-012
                     6                     9                     9
                     7  1.669199500842211E-012
                     6                    10                     7
                    10 -1.337360777675656E-012
                     6                    10                    10
                     7  1.081197631425113E-012
                     7                     1                     5
                    10  1.916220654374357E-012
                     7                     1                     7
                     2 -1.064429794306321E-012
                     7                     1                     9
                     4 -1.467444221692205E-012
                     7                     1                    10
                     5 -2.488873690476012E-012
                     7                     2                     1
                     7 -1.707009533724602E-012
                     7                     2                     1
                     9  1.571747072770524E-012
                     7                     2                     2
                     9 -2.311635258211986E-012
                     7                     2                     3
                     8  1.841080066178336E-011
                     7                     2                     4
                     7 -1.694539300545195E-011
                     7                     2                     4
                     9  1.235037072611078E-011
                     7                     2                     5
                    10  4.026559641268079E-011
                     7                     2                     6
                     2  1.447368266904725E-012
                     7                     2                     7
                     1  1.064429794306321E-012
                     7                     2                     7
                     4 -7.311901084605665E-012
                     7                     2                     8
                     3 -1.841080066178336E-011
                     7                     2                     9
                     2  2.656893281771655E-011
                     7                     2                     9
                     4 -1.235037072611078E-011
                     7                     2                    10
                     5 -4.026559641268079E-011
                     7                     3                     1
                     8 -1.388580223027347E-012
                     7                     3                     3
                     7  1.458755338745732E-011
                     7                     3                     3
                     9 -5.268337328889761E-011
                     7                     3                     4
                     8 -2.267333022720752E-011
                     7                     3                     6
                     3  2.846608365691949E-012
                     7                     3                     8
                     2 -1.543448702179262E-011
                     7                     3                     8
                     4  2.335823374999269E-011
                     7                     3                     9
                     3  4.799862417248502E-011
                     7                     4                     1
                     6 -2.075169897031159E-012
                     7                     4                     1
                     9 -1.406590122154938E-012
                     7                     4                     2
                     7  2.311630054041558E-012
                     7                     4                     3
                     8 -3.735847221852939E-011
                     7                     4                     4
                     7  1.009536898521901E-011
                     7                     4                     4
                     9 -7.535662371882523E-011
                     7                     4                     5
                    10 -1.909142288702981E-011
                     7                     4                     6
                     1  2.018631789502123E-012
                     7                     4                     6
                     4  2.656269301737346E-012
                     7                     4                     7
                     2  7.311901084605665E-012
                     7                     4                     8
                     3  3.376002255528476E-011
                     7                     4                     9
                     2 -8.682221608324880E-012
                     7                     4                     9
                     4  7.248641964441305E-011
                     7                     4                    10
                     5  1.857040562991408E-011
                     7                     5                     4
                    10 -7.756691122740023E-012
                     7                     5                     5
                     7  4.969202826998753E-011
                     7                     5                     5
                     9 -4.939464115505388E-011
                     7                     5                     6
                     5  2.202535029360853E-012
                     7                     5                     9
                     5  3.433870549018891E-011
                     7                     5                    10
                     1 -1.165748053644222E-012
                     7                     5                    10
                     2 -3.284797434055520E-011
                     7                     5                    10
                     4  1.572305480257441E-011
                     7                     7                     7
                     9 -9.623536856333030E-012
                     7                     7                     9
                     7  9.623543700359244E-012
                     7                     8                     6
                     8  1.458097531603642E-012
                     7                     8                     8
                     9 -2.932496736759993E-011
                     7                     8                     9
                     8  2.532512741182380E-011
                     7                     9                     6
                     9  1.249507441958286E-012
                     7                     9                     7
                     7  9.623536856333030E-012
                     7                     9                     8
                     8 -3.598457933896050E-012
                     7                     9                     9
                     7  1.413646977255212E-012
                     7                     9                     9
                     9 -2.869996744183206E-012
                     7                    10                     6
                    10  1.337360777675656E-012
                     7                    10                     9
                    10  2.658198054034111E-011
                     7                    10                    10
                     7  1.684397066270549E-011
                     7                    10                    10
                     9 -3.367153431077519E-011
                     8                     1                     4
                     8 -1.009875343072064E-012
                     8                     1                     8
                     2 -1.122188279800707E-012
                     8                     1                     8
                     4  1.348920107557827E-012
                     8                     2                     1
                     8 -3.666913994671006E-012
                     8                     2                     2
                     8 -1.458755338745732E-011
                     8                     2                     3
                     9  2.213335417722284E-012
                     8                     2                     4
                     8  4.705512021696556E-012
                     8                     2                     6
                     3  1.229918944467556E-012
                     8                     2                     7
                     3  1.543448702179262E-011
                     8                     2                     8
                     1  1.122188279800707E-012
                     8                     2                     9
                     3 -2.898238940507447E-012
                     8                     3                     1
                     6  1.437426566663902E-012
                     8                     3                     1
                     9  2.354744437632617E-012
                     8                     3                     2
                     7 -1.841080066178336E-011
                     8                     3                     2
                     9  3.735853640329800E-011
                     8                     3                     4
                     6  1.549762488478601E-012
                     8                     3                     4
                     7  1.259345058790551E-011
                     8                     3                     4
                     9 -1.529401605360192E-012
                     8                     3                     5
                    10  2.534127768738514E-011
                     8                     3                     6
                     1 -1.437371055512671E-012
                     8                     3                     6
                     4 -2.222567616061433E-012
                     8                     3                     7
                     2  1.841080066178336E-011
                     8                     3                     7
                     4 -3.376002255528476E-011
                     8                     3                     9
                     1 -1.681940611092392E-012
                     8                     3                     9
                     2 -1.619196096647180E-011
                     8                     3                     9
                     4  1.529373849784577E-012
                     8                     3                    10
                     5 -2.534130891240771E-011
                     8                     4                     1
                     8  1.423622504603816E-012
                     8                     4                     2
                     8  5.268336635000370E-011
                     8                     4                     3
                     7 -2.213276437124101E-012
                     8                     4                     4
                     8  1.596656140634423E-011
                     8                     4                     7
                     3 -2.335823374999269E-011
                     8                     4                     8
                     1 -1.348920107557827E-012
                     8                     4                     9
                     3  3.602146358971936E-012
                     8                     5                     5
                     8  7.567058091240142E-011
                     8                     5                    10
                     3 -2.324496845007573E-011
                     8                     6                     8
                     7 -1.672797317331387E-012
                     8                     6                     8
                     9  1.363704288381840E-012
                     8                     7                     6
                     8 -2.437106072505912E-012
                     8                     7                     8
                     6  1.672797317331387E-012
                     8                     7                     8
                     9  2.192322712257777E-012
                     8                     7                     9
                     8  1.807524182412257E-012
                     8                     8                     7
                     9  3.598457933896050E-012
                     8                     8                     9
                     7 -3.598457638652128E-012
                     8                     9                     7
                     8  2.932496736759993E-011
                     8                     9                     8
                     6 -1.363704288381840E-012
                     8                     9                     8
                     7 -2.192322712257777E-012
                     8                     9                     9
                     8  1.956856898743808E-011
                     8                    10                    10
                     8  5.242539735661467E-011
                     9                     1                     3
                     8 -1.549764656882946E-012
                     9                     1                     4
                     9 -1.034115501563626E-012
                     9                     1                     5
                    10 -1.012561562374614E-012
                     9                     1                     8
                     3  1.681940611092392E-012
                     9                     2                     1
                     7  1.100207598636604E-012
                     9                     2                     1
                     9 -2.372409560469357E-012
                     9                     2                     2
                     7  1.694540341379280E-011
                     9                     2                     2
                     9 -1.009536898521901E-011
                     9                     2                     3
                     8 -1.259351130322717E-011
                     9                     2                     4
                     9  7.969847004574149E-012
                     9                     2                     5
                    10 -2.384096392527013E-012
                     9                     2                     7
                     2 -2.656893281771655E-011
                     9                     2                     7
                     4  8.682221608324880E-012
                     9                     2                     8
                     3  1.619196096647180E-011
                     9                     2                     9
                     4 -5.099809463615657E-012
                     9                     2                    10
                     5  2.905113649642743E-012
                     9                     3                     1
                     8  1.160657073923099E-012
                     9                     3                     2
                     8  2.267327124660934E-011
                     9                     3                     3
                     6  1.009872740986850E-012
                     9                     3                     3
                     7 -4.705553655059980E-012
                     9                     3                     3
                     9 -1.596656140634423E-011
                     9                     3                     6
                     3 -1.084575138032839E-012
                     9                     3                     7
                     3 -4.799862417248502E-011
                     9                     3                     8
                     2  2.898238940507447E-012
                     9                     3                     8
                     4 -3.602146358971936E-012
                     9                     4                     1
                     9  1.595459875325389E-012
                     9                     4                     2
                     7 -1.235037072611078E-011
                     9                     4                     2
                     9  7.535679025227893E-011
                     9                     4                     3
                     8  1.529242010800402E-012
                     9                     4                     4
                     6  1.034151930756622E-012
                     9                     4                     4
                     7 -7.970180071481536E-012
                     9                     4                     5
                    10  3.465087244913789E-011
                     9                     4                     6
                     4 -1.999051965628773E-012
                     9                     4                     7
                     1  1.467444221692205E-012
                     9                     4                     7
                     2  1.235037072611078E-011
                     9                     4                     7
                     4 -7.248641964441305E-011
                     9                     4                     8
                     3 -1.529373849784577E-012
                     9                     4                     9
                     2  5.099809463615657E-012
                     9                     4                    10
                     5 -3.465080306019885E-011
                     9                     5                     2
                    10  7.756666836611359E-012
                     9                     5                     5
                     7 -1.523094150801541E-011
                     9                     5                     5
                     9  5.456757268262891E-011
                     9                     5                     7
                     5 -3.433870549018891E-011
                     9                     5                    10
                     2  3.938228215760731E-012
                     9                     5                    10
                     4 -1.623422229979354E-011
                     9                     7                     6
                     9 -1.669199500842211E-012
                     9                     7                     7
                     7 -9.623543700359244E-012
                     9                     7                     7
                     9 -1.413646977255212E-012
[...]
    6    6    8    8        0.2856349385
    6    7    8    1        0.0013723301
    6    7    8    2       -0.0063288533
    6    7    8    4        0.0254032882
    6    7    8    6        0.0001600756
    6    8    8    1        0.0003206283
    6    8    8    2       -0.0114379299
    6    8    8    4        0.0053628988
    6    8    8    6        0.0174747062
    7    1    1    1        0.0000000001
    7    1    1    3       -0.0104034966
    7    1    1    7        0.0044778141
    7    1    1    8        0.0037876009
    7    2    1    1       -0.0000000002
    7    2    1    3       -0.0082700871
    7    2    1    7        0.0036845594
    7    2    1    8        0.0031014059
    7    3    1    1       -0.1655689552
    7    3    1    2        0.0005937149
    7    3    1    4        0.0003068215
    7    3    1    6        0.0005020892
    7    4    1    1        0.0000000001
    7    4    1    3       -0.0028927896
    7    4    1    7        0.0014165700
    7    4    1    8        0.0014307975
    7    6    1    1       -0.0000000001
    7    6    1    3       -0.0038906738
    7    6    1    7        0.0017015169
    7    6    1    8        0.0013723301
    7    7    1    1        0.3357353396
    7    7    1    2       -0.0014279607
    7    7    1    4       -0.0014134811
    7    7    1    6       -0.0001274666
    7    8    1    1        0.1104015033
    7    8    1    2       -0.0014662347
    7    8    1    4        0.0002017634
    7    8    1    6       -0.0004762198
    7    1    2    3       -0.0111052794
    7    1    2    7        0.0036845594
    7    1    2    8        0.0026359769
    7    2    2    2       -0.0000000001
    7    2    2    3       -0.0326068646
    7    2    2    7        0.0127005509
    7    2    2    8        0.0099470233
    7    3    2    1        0.0014596647
    7    3    2    2       -0.0949616395
    7    3    2    4       -0.0141639415
    7    3    2    6       -0.0204705998
    7    4    2    3       -0.0154711372
    7    4    2    7        0.0024768952
    7    4    2    8        0.0024780676
    7    6    2    3       -0.0414009913
    7    6    2    7       -0.0007179126
    7    6    2    8       -0.0063288533
    7    7    2    1       -0.0014279607
    7    7    2    2        0.2994520212
    7    7    2    4       -0.0101216228
    7    7    2    6        0.0078119309
    7    8    2    1       -0.0014377124
    7    8    2    2        0.0749701961
    7    8    2    4        0.0005338932
    7    8    2    6        0.0066838364
    7    1    3    1       -0.0094891283
    7    1    3    2       -0.0108770893
    7    1    3    4       -0.0016765374
    7    1    3    6       -0.0017847695
    7    2    3    1       -0.0081871929
    7    2    3    2       -0.0329833783
    7    2    3    4       -0.0056165163
    7    2    3    6       -0.0076902922
    7    3    3    3       -0.0835892968
    7    3    3    7        0.0313595934
    7    3    3    8        0.0247498909
    7    4    3    1       -0.0030155784
    7    4    3    2       -0.0165279775
    7    4    3    4       -0.0059295341
    7    4    3    6        0.0058830894
    7    5    3    5       -0.0088834941
    7    6    3    1       -0.0038721106
    7    6    3    2       -0.0414605353
    7    6    3    4        0.0139950684
    7    6    3    6        0.0179273747
    7    7    3    3        0.3029944321
    7    7    3    7       -0.0061162303
    7    7    3    8        0.0090272255
    7    8    3    3        0.0740071834
    7    8    3    7       -0.0106221705
    7    8    3    8        0.0043155585
    7    1    4    3       -0.0017213111
    7    1    4    7        0.0014165700
    7    1    4    8        0.0030381817
    7    2    4    3       -0.0054761820
    7    2    4    7        0.0024768952
    7    2    4    8        0.0079873874
    7    3    4    1        0.0003219763
    7    3    4    2       -0.0151406728
    7    3    4    4       -0.0843368450
    7    3    4    6        0.0139802122
    7    4    4    3       -0.0068116391
    7    4    4    7        0.0084336253
    7    4    4    8        0.0148957918
    7    6    4    3        0.0138068955
    7    6    4    7        0.0124490911
    7    6    4    8        0.0254032882
    7    7    4    1       -0.0014134811
    7    7    4    2       -0.0101216228
    7    7    4    4        0.2848268801
    7    7    4    6        0.0038031833
    7    8    4    1        0.0000936638
    7    8    4    2        0.0001964907
    7    8    4    4        0.0720383954
    7    8    4    6       -0.0001898270
    7    2    5    5       -0.0000000001
    7    3    5    5       -0.0895494664
    7    5    5    3       -0.0091496819
    7    5    5    7        0.0044781758
    7    5    5    8        0.0038547848
    7    7    5    5        0.2862765687
    7    8    5    5        0.0670658415
    7    1    6    3       -0.0021474397
    7    1    6    7        0.0017015169
    7    1    6    8        0.0004510480
    7    2    6    3       -0.0109900601
    7    2    6    7       -0.0007179126
    7    2    6    8       -0.0011503807
    7    3    6    1        0.0000678013
    7    3    6    2       -0.0233128260
    7    3    6    4        0.0142385849
    7    3    6    6       -0.0079394857
    7    4    6    3        0.0065809926
    7    4    6    7        0.0124490911
    7    4    6    8        0.0024224563
    7    6    6    3        0.0183395996
    7    6    6    7        0.0651194679
    7    6    6    8        0.0001600756
    7    7    6    1       -0.0001274666
    7    7    6    2        0.0078119309
    7    7    6    4        0.0038031833
    7    7    6    6        0.2550296564
    7    7    6    7       -0.0000000001
    7    8    6    1       -0.0004621726
    7    8    6    2        0.0065861696
    7    8    6    4        0.0005016391
    7    8    6    6        0.0260031510
    7    1    7    1        0.0047647601
    7    1    7    2        0.0040540116
    7    1    7    4        0.0015088663
    7    1    7    6        0.0016936508
    7    2    7    1        0.0040540116
    7    2    7    2        0.0153205011
    7    2    7    4        0.0028981031
    7    2    7    6       -0.0008498639
    7    3    7    3        0.0337180983
    7    3    7    7       -0.0061162303
    7    3    7    8       -0.0104394054
    7    4    7    1        0.0015088663
    7    4    7    2        0.0028981031
    7    4    7    4        0.0101971098
    7    4    7    6        0.0125171507
    7    5    7    5        0.0062067972
    7    6    7    1        0.0016936508
    7    6    7    2       -0.0008498639
    7    6    7    4        0.0125171507
    7    6    7    6        0.0651199995
    7    6    7    7       -0.0000000001
    7    7    7    3       -0.0061162303
    7    7    7    6       -0.0000000001
    7    7    7    7        0.2600936311
    7    7    7    8        0.0209199931
    7    8    7    3       -0.0104394054
    7    8    7    7        0.0209199931
    7    8    7    8        0.0199921251
    7    1    8    1        0.0040000593
    7    1    8    2        0.0029307791
    7    1    8    4        0.0031602646
    7    1    8    6        0.0004330341
    7    2    8    1        0.0033824951
    7    2    8    2        0.0114934117
    7    2    8    4        0.0083791526
    7    2    8    6       -0.0010940509
    7    3    8    3        0.0252587912
    7    3    8    7       -0.0106221705
    7    3    8    8       -0.0232388583
    7    4    8    1        0.0014828930
    7    4    8    2        0.0031899970
    7    4    8    4        0.0154092652
    7    4    8    6        0.0020280858
    7    5    8    5        0.0045381333
    7    6    8    1        0.0013665704
    7    6    8    2       -0.0064548517
    7    6    8    4        0.0257750349
    7    6    8    6        0.0001692962
    7    7    8    3        0.0090272255
    7    7    8    7        0.0209199931
    7    7    8    8        0.2684278849
    7    8    8    3        0.0054953785
    7    8    8    7        0.0200466850
    7    8    8    8        0.0470590336
    8    1    1    3       -0.0090329663
    8    1    1    7        0.0037876009
    8    1    1    8        0.0032527132
    8    2    1    3       -0.0060773072
    8    2    1    7        0.0026359769
    8    2    1    8        0.0023763824
    8    3    1    1       -0.1025637027
    8    3    1    2        0.0013678482
    8    3    1    4       -0.0038604180
    8    3    1    6        0.0016794669
    8    4    1    3       -0.0062980246
    8    4    1    7        0.0030381817
    8    4    1    8        0.0027845737
    8    6    1    3       -0.0010752181
    8    6    1    7        0.0004510480
    8    6    1    8        0.0003206283
    8    7    1    1        0.1104015033
    8    7    1    2       -0.0014377124
    8    7    1    4        0.0000936638
    8    7    1    6       -0.0004621726
    8    8    1    1        0.4595314190
    8    8    1    2       -0.0012525009
    8    8    1    4       -0.0002624538
    8    8    1    6       -0.0002950639
    8    1    2    3       -0.0093204311
    8    1    2    7        0.0031014059
    8    1    2    8        0.0023763824
    8    2    2    3       -0.0066112770
    8    2    2    7        0.0099470233
    8    2    2    8        0.0241069769
    8    3    2    1        0.0021843565
    8    3    2    2       -0.0236724750
    8    3    2    4       -0.0491767430
    8    3    2    6       -0.0090256309
    8    4    2    3       -0.0534770840
    8    4    2    7        0.0079873874
    8    4    2    8       -0.0030878996
    8    6    2    3       -0.0074385072
    8    6    2    7       -0.0011503807
    8    6    2    8       -0.0114379299
    8    7    2    1       -0.0014662347
    8    7    2    2        0.0749701961
    8    7    2    4        0.0001964907
    8    7    2    6        0.0065861696
    8    8    2    1       -0.0012525009
    8    8    2    2        0.4295864622
    8    8    2    4       -0.0098950882
    8    8    2    6        0.0138239591
    8    1    3    1       -0.0080336042
    8    1    3    2       -0.0090277689
    8    1    3    4       -0.0019989196
    8    1    3    6       -0.0013556142
    8    2    3    1       -0.0057280337
    8    2    3    2       -0.0057213782
    8    2    3    4       -0.0245442441
    8    2    3    6       -0.0067358160
    8    3    3    3       -0.0113013765
    8    3    3    7        0.0247498909
    8    3    3    8        0.0555423051
    8    4    3    1       -0.0068202874
    8    4    3    2       -0.0567210582
    8    4    3    4        0.0028862936
    8    4    3    6        0.0111019353
    8    5    3    5       -0.0092809647
    8    6    3    1       -0.0009576307
    8    6    3    2       -0.0070351806
    8    6    3    4        0.0111300352
    8    6    3    6        0.0010057887
    8    7    3    3        0.0740071834
    8    7    3    7       -0.0104394054
    8    7    3    8        0.0054953785
    8    8    3    3        0.4340875962
    8    8    3    7       -0.0232388583
    8    8    3    8        0.0193881649
    8    1    4    3       -0.0020393581
    8    1    4    7        0.0014307975
    8    1    4    8        0.0027845737
    8    2    4    3       -0.0241660454
    8    2    4    7        0.0024780676
    8    2    4    8       -0.0030878996
    8    3    4    1       -0.0043560716
    8    3    4    2       -0.0521272326
    8    3    4    4       -0.0396364692
    8    3    4    6        0.0149506331
    8    4    4    3        0.0013748259
    8    4    4    7        0.0148957918
    8    4    4    8        0.0422020609
    8    6    4    3        0.0110888590
    8    6    4    7        0.0024224563
    8    6    4    8        0.0053628988
    8    7    4    1        0.0002017634
    8    7    4    2        0.0005338932
    8    7    4    4        0.0720383954
    8    7    4    6        0.0005016391
    8    8    4    1       -0.0002624538
    8    8    4    2       -0.0098950882
    8    8    4    4        0.4175775623
    8    8    4    6       -0.0052480786
    8    3    5    5       -0.0426652072
    8    5    5    3       -0.0092800235
    8    5    5    7        0.0038547848
    8    5    5    8        0.0075254612
    8    7    5    5        0.0670658415
    8    8    5    5        0.4007263441
    8    1    6    3       -0.0017448775
    8    1    6    7        0.0013723301
    8    1    6    8        0.0003206283
    8    2    6    3       -0.0098904055
    8    2    6    7       -0.0063288533
    8    2    6    8       -0.0114379299
    8    3    6    1        0.0013955809
    8    3    6    2       -0.0110864668
    8    3    6    4        0.0152301376
    8    3    6    6        0.0139699441
    8    4    6    3        0.0121912042
    8    4    6    7        0.0254032882
    8    4    6    8        0.0053628988
    8    6    6    3        0.0005422452
    8    6    6    7        0.0001600756
    8    6    6    8        0.0174747062
    8    7    6    1       -0.0004762198
    8    7    6    2        0.0066838364
    8    7    6    4       -0.0001898270
    8    7    6    6        0.0260031510
    8    8    6    1       -0.0002950639
    8    8    6    2        0.0138239591
    8    8    6    4       -0.0052480786
    8    8    6    6        0.2856349385
    8    1    7    1        0.0040000593
    8    1    7    2        0.0033824951
    8    1    7    4        0.0014828930
    8    1    7    6        0.0013665704
    8    2    7    1        0.0029307791
    8    2    7    2        0.0114934117
    8    2    7    4        0.0031899970
    8    2    7    6       -0.0064548517
    8    3    7    3        0.0252587912
    8    3    7    7        0.0090272255
    8    3    7    8        0.0054953785
    8    4    7    1        0.0031602646
    8    4    7    2        0.0083791526
    8    4    7    4        0.0154092652
    8    4    7    6        0.0257750349
    8    5    7    5        0.0045381333
    8    6    7    1        0.0004330341
    8    6    7    2       -0.0010940509
    8    6    7    4        0.0020280858
    8    6    7    6        0.0001692962
    8    7    7    3       -0.0106221705
    8    7    7    7        0.0209199931
    8    7    7    8        0.0200466850
    8    8    7    3       -0.0232388583
    8    8    7    7        0.2684278849
    8    8    7    8        0.0470590336
    8    1    8    1        0.0033308102
    8    1    8    2        0.0026688459
    8    1    8    4        0.0027468634
    8    1    8    6        0.0003242248
    8    2    8    1        0.0026688459
    8    2    8    2        0.0263563524
    8    2    8    4       -0.0038489318
    8    2    8    6       -0.0105576829
    8    3    8    3        0.0563482904
    8    3    8    7        0.0043155585
    8    3    8    8        0.0193881649
    8    4    8    1        0.0027468634
    8    4    8    2       -0.0038489318
    8    4    8    4        0.0416519073
    8    4    8    6        0.0045797728
    8    5    8    5        0.0070439992
    8    6    8    1        0.0003242248
    8    6    8    2       -0.0105576829
    8    6    8    4        0.0045797728
    8    6    8    6        0.0174566243
    8    7    8    3        0.0043155585
    8    7    8    7        0.0199921251
    8    7    8    8        0.0470590336
    8    8    8    3        0.0193881649
    8    8    8    7        0.0470590336
    8    8    8    8        0.3734384049
 end_two_electron_integrals

 Task  times  cpu:      648.6s     wall:      648.6s
 
 
                                NWChem Input Module
                                -------------------
 
 
 Summary of allocated global arrays
-----------------------------------
  No active global arrays


MA_summarize_allocated_blocks: starting scan ...
MA_summarize_allocated_blocks: scan completed: 0 heap blocks, 0 stack blocks
MA usage statistics:

	allocation statistics:
					      heap	     stack
					      ----	     -----
	current number of blocks	         0	         0
	maximum number of blocks	        16	        42
	current total bytes		         0	         0
	maximum total bytes		     80104	4725685704
	maximum total K-bytes		        81	   4725686
	maximum total M-bytes		         1	      4726
 
 
                                     CITATION
                                     --------
                Please cite the following reference when publishing
                           results obtained with NWChem:
 
          E. Apra, E. J. Bylaska, W. A. de Jong, N. Govind, K. Kowalski,
       T. P. Straatsma, M. Valiev, H. J. J. van Dam, Y. Alexeev, J. Anchell,
       V. Anisimov, F. W. Aquino, R. Atta-Fynn, J. Autschbach, N. P. Bauman,
     J. C. Becca, D. E. Bernholdt, K. Bhaskaran-Nair, S. Bogatko, P. Borowski,
         J. Boschen, J. Brabec, A. Bruner, E. Cauet, Y. Chen, G. N. Chuev,
      C. J. Cramer, J. Daily, M. J. O. Deegan, T. H. Dunning Jr., M. Dupuis,
   K. G. Dyall, G. I. Fann, S. A. Fischer, A. Fonari, H. Fruchtl, L. Gagliardi,
      J. Garza, N. Gawande, S. Ghosh, K. Glaesemann, A. W. Gotz, J. Hammond,
       V. Helms, E. D. Hermes, K. Hirao, S. Hirata, M. Jacquelin, L. Jensen,
   B. G. Johnson, H. Jonsson, R. A. Kendall, M. Klemm, R. Kobayashi, V. Konkov,
      S. Krishnamoorthy, M. Krishnan, Z. Lin, R. D. Lins, R. J. Littlefield,
      A. J. Logsdail, K. Lopata, W. Ma, A. V. Marenich, J. Martin del Campo,
   D. Mejia-Rodriguez, J. E. Moore, J. M. Mullin, T. Nakajima, D. R. Nascimento,
    J. A. Nichols, P. J. Nichols, J. Nieplocha, A. Otero-de-la-Roza, B. Palmer,
    A. Panyala, T. Pirojsirikul, B. Peng, R. Peverati, J. Pittner, L. Pollack,
   R. M. Richard, P. Sadayappan, G. C. Schatz, W. A. Shelton, D. W. Silverstein,
   D. M. A. Smith, T. A. Soares, D. Song, M. Swart, H. L. Taylor, G. S. Thomas,
            V. Tipparaju, D. G. Truhlar, K. Tsemekhman, T. Van Voorhis,
      A. Vazquez-Mayagoitia, P. Verma, O. Villa, A. Vishnu, K. D. Vogiatzis,
        D. Wang, J. H. Weare, M. J. Williamson, T. L. Windus, K. Wolinski,
        A. T. Wong, Q. Wu, C. Yang, Q. Yu, M. Zacharias, Z. Zhang, Y. Zhao,
                                and R. J. Harrison
                        "NWChem: Past, present, and future
                         J. Chem. Phys. 152, 184102 (2020)
                               doi:10.1063/5.0004997
 
                                      AUTHORS
                                      -------
  E. Apra, E. J. Bylaska, N. Govind, K. Kowalski, M. Valiev, D. Mejia-Rodriguez,
       A. Kunitsa, N. P. Bauman, A. Panyala, W. A. de Jong, T. P. Straatsma,
   H. J. J. van Dam, D. Wang, T. L. Windus, J. Hammond, J. Autschbach, A. Woods,
    K. Bhaskaran-Nair, J. Brabec, K. Lopata, S. A. Fischer, S. Krishnamoorthy,
     M. Jacquelin, W. Ma, M. Klemm, O. Villa, Y. Chen, V. Anisimov, F. Aquino,
     S. Hirata, M. T. Hackler, E. Hermes, L. Jensen, J. E. Moore, J. C. Becca,
      V. Konjkov, T. Risthaus, M. Malagoli, A. Marenich, A. Otero-de-la-Roza,
        J. Mullin, P. Nichols, R. Peverati, J. Pittner, Y. Zhao, P.-D. Fan,
        A. Fonari, M. J. Williamson, R. J. Harrison, J. R. Rehr, M. Dupuis,
     D. Silverstein, D. M. A. Smith, J. Nieplocha, V. Tipparaju, M. Krishnan,
     B. E. Van Kuiken, A. Vazquez-Mayagoitia, M. Swart, Q. Wu, T. Van Voorhis,
     A. A. Auer, M. Nooijen, L. D. Crosby, E. Brown, G. Cisneros, G. I. Fann,
   H. Fruchtl, J. Garza, K. Hirao, R. A. Kendall, J. A. Nichols, K. Tsemekhman,
    K. Wolinski, J. Anchell, D. E. Bernholdt, P. Borowski, T. Clark, D. Clerc,
   H. Dachsel, M. J. O. Deegan, K. Dyall, D. Elwood, E. Glendening, M. Gutowski,
   A. C. Hess, J. Jaffe, B. G. Johnson, J. Ju, R. Kobayashi, R. Kutteh, Z. Lin,
   R. Littlefield, X. Long, B. Meng, T. Nakajima, S. Niu, L. Pollack, M. Rosing,
   K. Glaesemann, G. Sandrone, M. Stave, H. Taylor, G. Thomas, J. H. van Lenthe,
                               A. T. Wong, Z. Zhang.

 Total times  cpu:      649.0s     wall:      649.0s
