 argument  1 = input.nw
  NWChem w/ OpenMP: maximum threads =    1
 


============================== echo of input deck ==============================
 echo
 start H2O
 title "H2O"

 memory total 24 gb

 geometry units angstrom
 symmetry c1
   zmatrix
     O
     H1 O 0.97551
     H2 O 0.97551 H1 107.75
   end
 end

 basis spherical
   * library cc-pVTZ
 end

 tce
   2eorb
   2emet 13
   ccsd
   maxiter 300
 end

# set tce:print_integrals T
# set tce:qorb 8
# set tce:qela 5
# set tce:qelb 5

 set tce:qducc T
 set tce:nactv 3
 set tce:nonhf T
 set tce:ducc_model 6

 set tce:printtol 0.02

 task tce
================================================================================


                                         
                                         
 
 
             Northwest Computational Chemistry Package (NWChem) 7.2.3
             --------------------------------------------------------
 
 
                    Environmental Molecular Sciences Laboratory
                       Pacific Northwest National Laboratory
                                Richland, WA 99352
 
                              Copyright (c) 1994-2022
                       Pacific Northwest National Laboratory
                            Battelle Memorial Institute
 
             NWChem is an open-source computational chemistry package
                        distributed under the terms of the
                      Educational Community License (ECL) 2.0
             A copy of the license is included with this distribution
                              in the LICENSE.TXT file
 
                                  ACKNOWLEDGMENT
                                  --------------

            This software and its documentation were developed at the
            EMSL at Pacific Northwest National Laboratory, a multiprogram
            national laboratory, operated for the U.S. Department of Energy
            by Battelle under Contract Number DE-AC05-76RL01830. Support
            for this work was provided by the Department of Energy Office
            of Biological and Environmental Research, Office of Basic
            Energy Sciences, and the Office of Advanced Scientific Computing.


           Job information
           ---------------

    hostname        = koothan
    program         = /hpc/home/baum612/code/nwchem/bin/LINUX64/nwchem
    date            = Fri Nov 22 00:24:44 2024

    compiled        = Thu_Nov_21_17:16:59_2024
    source          = /hpc/home/baum612/code/nwchem
    nwchem branch   = 7.2.3
    nwchem revision = v7.2.0-beta1-1291-g6d839a76f0
    ga revision     = 5.8.0
    use scalapack   = T
    input           = input.nw
    prefix          = H2O.
    data base       = ./H2O.db
    status          = startup
    nproc           =        1
    time left       =     -1s



           Memory information
           ------------------

    heap     =    805306368 doubles =     6144.0 Mbytes
    stack    =    805306365 doubles =     6144.0 Mbytes
    global   =   1610612736 doubles =    12288.0 Mbytes (distinct from heap & stack)
    total    =   3221225469 doubles =    24576.0 Mbytes
    verify   = yes
    hardfail = no 


           Directory information
           ---------------------
 
  0 permanent = .
  0 scratch   = .
 
 
 
 
                                NWChem Input Module
                                -------------------
 
 
                                        H2O
                                        ---

 Scaling coordinates for geometry "geometry" by  1.889725989
 (inverse scale =  0.529177249)

 Turning off AUTOSYM since
 SYMMETRY directive was detected!
 
 
 
                             Geometry "geometry" -> ""
                             -------------------------
 
 Output coordinates in angstroms (scale by  1.889725989 to convert to a.u.)
 
  No.       Tag          Charge          X              Y              Z
 ---- ---------------- ---------- -------------- -------------- --------------
    1 O                    8.0000    -0.09290716     0.00000000    -0.06781118
    2 H1                   1.0000    -0.09290716     0.00000000     0.90769882
    3 H2                   1.0000     0.83616446     0.00000000    -0.36520936
 
      Atomic Mass 
      ----------- 
 
      O                 15.994910
      H1                 1.007825
      H2                 1.007825
 

 Effective nuclear repulsion energy (a.u.)       9.0151874504

            Nuclear Dipole moment (a.u.) 
            ----------------------------
        X                 Y               Z
 ---------------- ---------------- ----------------
     0.0000000000     0.0000000000     0.0000000000
 


                                Z-matrix (user)
                                -------- 

 Units are Angstrom for bonds and degrees for angles
 
      Type          Name      I     J     K     L     M      Value
      ----------- --------  ----- ----- ----- ----- ----- ----------
    1 Stretch                  2     1                       0.97551
    2 Stretch                  3     1                       0.97551
    3 Bend                     3     1     2               107.75000
 
 
            XYZ format geometry
            -------------------
     3
 geometry
 O                    -0.09290716     0.00000000    -0.06781118
 H1                   -0.09290716     0.00000000     0.90769882
 H2                    0.83616446     0.00000000    -0.36520936
 
 ==============================================================================
                                internuclear distances
 ------------------------------------------------------------------------------
       center one      |      center two      | atomic units |  angstroms
 ------------------------------------------------------------------------------
    2 H1               |   1 O                |     1.84345  |     0.97551
    3 H2               |   1 O                |     1.84345  |     0.97551
 ------------------------------------------------------------------------------
                         number of included internuclear distances:          2
 ==============================================================================



 ==============================================================================
                                 internuclear angles
 ------------------------------------------------------------------------------
        center 1       |       center 2       |       center 3       |  degrees
 ------------------------------------------------------------------------------
    2 H1               |   1 O                |   3 H2               |   107.75
 ------------------------------------------------------------------------------
                            number of included internuclear angles:          1
 ==============================================================================





 Summary of "ao basis" -> "" (spherical)
 ------------------------------------------------------------------------------
       Tag                 Description            Shells   Functions and Types
 ---------------- ------------------------------  ------  ---------------------
 *                          cc-pVTZ                   on all atoms 


                      Basis "ao basis" -> "ao basis" (spherical)
                      -----
  O (Oxygen)
  ----------
            Exponent  Coefficients 
       -------------- ---------------------------------------------------------
  1 S  1.53300000E+04  0.000508
  1 S  2.29900000E+03  0.003929
  1 S  5.22400000E+02  0.020243
  1 S  1.47300000E+02  0.079181
  1 S  4.75500000E+01  0.230687
  1 S  1.67600000E+01  0.433118
  1 S  6.20700000E+00  0.350260
  1 S  6.88200000E-01 -0.008154
 
  2 S  1.53300000E+04 -0.000115
  2 S  2.29900000E+03 -0.000895
  2 S  5.22400000E+02 -0.004636
  2 S  1.47300000E+02 -0.018724
  2 S  4.75500000E+01 -0.058463
  2 S  1.67600000E+01 -0.136463
  2 S  6.20700000E+00 -0.175740
  2 S  6.88200000E-01  0.603418
 
  3 S  1.75200000E+00  1.000000
 
  4 S  2.38400000E-01  1.000000
 
  5 P  3.44600000E+01  0.015928
  5 P  7.74900000E+00  0.099740
  5 P  2.28000000E+00  0.310492
 
  6 P  7.15600000E-01  1.000000
 
  7 P  2.14000000E-01  1.000000
 
  8 D  2.31400000E+00  1.000000
 
  9 D  6.45000000E-01  1.000000
 
 10 F  1.42800000E+00  1.000000
 
  H1 (Hydrogen)
  -------------
            Exponent  Coefficients 
       -------------- ---------------------------------------------------------
  1 S  3.38700000E+01  0.006068
  1 S  5.09500000E+00  0.045308
  1 S  1.15900000E+00  0.202822
 
  2 S  3.25800000E-01  1.000000
 
  3 S  1.02700000E-01  1.000000
 
  4 P  1.40700000E+00  1.000000
 
  5 P  3.88000000E-01  1.000000
 
  6 D  1.05700000E+00  1.000000
 
  H2 (Hydrogen)
  -------------
            Exponent  Coefficients 
       -------------- ---------------------------------------------------------
  1 S  3.38700000E+01  0.006068
  1 S  5.09500000E+00  0.045308
  1 S  1.15900000E+00  0.202822
 
  2 S  3.25800000E-01  1.000000
 
  3 S  1.02700000E-01  1.000000
 
  4 P  1.40700000E+00  1.000000
 
  5 P  3.88000000E-01  1.000000
 
  6 D  1.05700000E+00  1.000000
 


 Summary of "ao basis" -> "ao basis" (spherical)
 ------------------------------------------------------------------------------
       Tag                 Description            Shells   Functions and Types
 ---------------- ------------------------------  ------  ---------------------
 O                          cc-pVTZ                 10       30   4s3p2d1f
 H1                         cc-pVTZ                  6       14   3s2p1d
 H2                         cc-pVTZ                  6       14   3s2p1d


                                 NWChem SCF Module
                                 -----------------
 
 
                                        H2O
 
 

  ao basis        = "ao basis"
  functions       =    58
  atoms           =     3
  closed shells   =     5
  open shells     =     0
  charge          =   0.00
  wavefunction    = RHF 
  input vectors   = atomic
  output vectors  = ./H2O.movecs
  use symmetry    = F
  symmetry adapt  = F


 Summary of "ao basis" -> "ao basis" (spherical)
 ------------------------------------------------------------------------------
       Tag                 Description            Shells   Functions and Types
 ---------------- ------------------------------  ------  ---------------------
 O                          cc-pVTZ                 10       30   4s3p2d1f
 H1                         cc-pVTZ                  6       14   3s2p1d
 H2                         cc-pVTZ                  6       14   3s2p1d



 Forming initial guess at       0.5s

 
      Superposition of Atomic Density Guess
      -------------------------------------
 
 Sum of atomic energies:         -75.78028790
 
      Non-variational initial energy
      ------------------------------

 Total energy =     -75.906768
 1-e energy   =    -121.468977
 2-e energy   =      36.547022
 HOMO         =      -0.472115
 LUMO         =       0.061846
 

 Starting SCF solution at       0.6s



 ----------------------------------------------
         Quadratically convergent ROHF

 Convergence threshold     :          1.000E-04
 Maximum no. of iterations :           30
 Final Fock-matrix accuracy:          1.000E-07
 ----------------------------------------------


              iter       energy          gnorm     gmax       time
             ----- ------------------- --------- --------- --------
                 1      -76.0203479121  8.44D-01  2.94D-01      0.8
                 2      -76.0528263087  1.96D-01  6.18D-02      1.1
                 3      -76.0550450992  1.61D-02  6.32D-03      1.5
                 4      -76.0550685981  6.66D-05  3.45D-05      2.2


       Final RHF  results 
       ------------------ 

         Total SCF energy =    -76.055068598077
      One-electron energy =   -122.808886749523
      Two-electron energy =     37.738630701093
 Nuclear repulsion energy =      9.015187450353

        Time for solution =      1.6s


             Final eigenvalues
             -----------------

              1      
    1  -20.5562
    2   -1.3341
    3   -0.7057
    4   -0.5679
    5   -0.5019
    6    0.1408
    7    0.2017
    8    0.5425
    9    0.5795
   10    0.6747
   11    0.7878
   12    0.8030
   13    0.8154
   14    0.8506
   15    0.9669
 
                       ROHF Final Molecular Orbital Analysis
                       -------------------------------------
 
 Vector    2  Occ=2.000000D+00  E=-1.334063D+00
              MO Center=  3.5D-02,  1.3D-16,  2.6D-02, r^2= 5.1D-01
   Bfn.  Coefficient  Atom+Function         Bfn.  Coefficient  Atom+Function  
  ----- ------------  ---------------      ----- ------------  ---------------
     2      0.507322  1 O  s                  4      0.290554  1 O  s          
 
 Vector    3  Occ=2.000000D+00  E=-7.057064D-01
              MO Center=  7.8D-02, -1.2D-16,  5.7D-02, r^2= 7.8D-01
   Bfn.  Coefficient  Atom+Function         Bfn.  Coefficient  Atom+Function  
  ----- ------------  ---------------      ----- ------------  ---------------
    10      0.274523  1 O  pz                 7      0.226052  1 O  pz         
    32      0.217453  2 H  s                 46     -0.217453  3 H  s          
     8     -0.200369  1 O  px                 5     -0.164991  1 O  px         
 
 Vector    4  Occ=2.000000D+00  E=-5.678993D-01
              MO Center= -1.2D-01, -8.8D-17, -8.8D-02, r^2= 7.1D-01
   Bfn.  Coefficient  Atom+Function         Bfn.  Coefficient  Atom+Function  
  ----- ------------  ---------------      ----- ------------  ---------------
     8      0.311414  1 O  px                 4     -0.264719  1 O  s          
     5      0.253656  1 O  px                11      0.231047  1 O  px         
    10      0.227295  1 O  pz                 7      0.185138  1 O  pz         
     2     -0.171210  1 O  s                 13      0.168637  1 O  pz         
 
 Vector    5  Occ=2.000000D+00  E=-5.018948D-01
              MO Center= -6.7D-02, -3.2D-16, -4.9D-02, r^2= 6.4D-01
   Bfn.  Coefficient  Atom+Function         Bfn.  Coefficient  Atom+Function  
  ----- ------------  ---------------      ----- ------------  ---------------
     9      0.444427  1 O  py                12      0.377660  1 O  py         
     6      0.357264  1 O  py         
 
 Vector    6  Occ=0.000000D+00  E= 1.407723D-01
              MO Center=  4.9D-01,  1.0D-16,  3.5D-01, r^2= 3.7D+00
   Bfn.  Coefficient  Atom+Function         Bfn.  Coefficient  Atom+Function  
  ----- ------------  ---------------      ----- ------------  ---------------
     4      1.512654  1 O  s                 33     -0.914385  2 H  s          
    47     -0.914385  3 H  s                 11      0.364040  1 O  px         
    32     -0.273136  2 H  s                 46     -0.273136  3 H  s          
    13      0.265706  1 O  pz                39      0.175245  2 H  pz         
    51      0.165977  3 H  px                 8      0.153339  1 O  px         
 
 Vector    7  Occ=0.000000D+00  E= 2.017218D-01
              MO Center=  5.5D-01,  3.8D-17,  4.0D-01, r^2= 4.7D+00
   Bfn.  Coefficient  Atom+Function         Bfn.  Coefficient  Atom+Function  
  ----- ------------  ---------------      ----- ------------  ---------------
    33      1.707330  2 H  s                 47     -1.707330  3 H  s          
    13     -0.683425  1 O  pz                11      0.498819  1 O  px         
    39     -0.165562  2 H  pz                10     -0.164010  1 O  pz         
    51      0.160031  3 H  px         
 
 Vector    8  Occ=0.000000D+00  E= 5.424679D-01
              MO Center=  4.3D-02, -6.3D-18,  3.1D-02, r^2= 2.3D+00
   Bfn.  Coefficient  Atom+Function         Bfn.  Coefficient  Atom+Function  
  ----- ------------  ---------------      ----- ------------  ---------------
    32      1.504254  2 H  s                 46     -1.504254  3 H  s          
    13     -0.960549  1 O  pz                11      0.701087  1 O  px         
    33     -0.620521  2 H  s                 47      0.620521  3 H  s          
    10     -0.216295  1 O  pz                 8      0.157870  1 O  px         
 
 Vector    9  Occ=0.000000D+00  E= 5.795218D-01
              MO Center=  4.3D-01,  7.6D-16,  3.1D-01, r^2= 2.1D+00
   Bfn.  Coefficient  Atom+Function         Bfn.  Coefficient  Atom+Function  
  ----- ------------  ---------------      ----- ------------  ---------------
    32      1.262600  2 H  s                 46      1.262600  3 H  s          
    33     -0.607672  2 H  s                 47     -0.607672  3 H  s          
     4     -0.446166  1 O  s                 11     -0.392105  1 O  px         
    13     -0.286190  1 O  pz                53     -0.229626  3 H  pz         
     2     -0.189589  1 O  s                 37     -0.189098  2 H  px         
 
 Vector   10  Occ=0.000000D+00  E= 6.747160D-01
              MO Center= -2.6D-01, -4.3D-16, -1.9D-01, r^2= 2.3D+00
   Bfn.  Coefficient  Atom+Function         Bfn.  Coefficient  Atom+Function  
  ----- ------------  ---------------      ----- ------------  ---------------
     4      4.451163  1 O  s                 32     -2.219449  2 H  s          
    46     -2.219449  3 H  s                 11      2.073732  1 O  px         
    13      1.513578  1 O  pz                39      1.127361  2 H  pz         
    51      1.048430  3 H  px                33     -0.446421  2 H  s          
    47     -0.446421  3 H  s                 53     -0.422617  3 H  pz         
 
 Vector   11  Occ=0.000000D+00  E= 7.878107D-01
              MO Center= -5.7D-02, -1.4D-15, -4.2D-02, r^2= 1.7D+00
   Bfn.  Coefficient  Atom+Function         Bfn.  Coefficient  Atom+Function  
  ----- ------------  ---------------      ----- ------------  ---------------
    12      1.136840  1 O  py                 9     -0.775248  1 O  py         
     6     -0.259283  1 O  py         
 
 Vector   12  Occ=0.000000D+00  E= 8.029780D-01
              MO Center= -6.8D-02,  6.2D-15, -5.0D-02, r^2= 3.0D+00
   Bfn.  Coefficient  Atom+Function         Bfn.  Coefficient  Atom+Function  
  ----- ------------  ---------------      ----- ------------  ---------------
    13      2.405024  1 O  pz                11     -1.755382  1 O  px         
    32     -1.579960  2 H  s                 46      1.579960  3 H  s          
    33     -1.418300  2 H  s                 47      1.418300  3 H  s          
    39      1.149195  2 H  pz                51     -1.100923  3 H  px         
    21      0.365813  1 O  d  0              53      0.330248  3 H  pz         
 
 Vector   13  Occ=0.000000D+00  E= 8.153719D-01
              MO Center=  1.2D-01,  2.6D-15,  9.0D-02, r^2= 2.1D+00
   Bfn.  Coefficient  Atom+Function         Bfn.  Coefficient  Atom+Function  
  ----- ------------  ---------------      ----- ------------  ---------------
    11      1.138530  1 O  px                32     -1.022238  2 H  s          
    46     -1.022238  3 H  s                 37     -0.890532  2 H  px         
    53     -0.862948  3 H  pz                13      0.830992  1 O  pz         
     4      0.742863  1 O  s                 33      0.257146  2 H  s          
    47      0.257146  3 H  s                 51     -0.225229  3 H  px         
 
 Vector   14  Occ=0.000000D+00  E= 8.505524D-01
              MO Center=  3.6D-01, -5.8D-15,  2.6D-01, r^2= 1.7D+00
   Bfn.  Coefficient  Atom+Function         Bfn.  Coefficient  Atom+Function  
  ----- ------------  ---------------      ----- ------------  ---------------
    38      0.832852  2 H  py                52     -0.832852  3 H  py         
 
 Vector   15  Occ=0.000000D+00  E= 9.668691D-01
              MO Center=  1.6D-01,  7.9D-16,  1.2D-01, r^2= 2.0D+00
   Bfn.  Coefficient  Atom+Function         Bfn.  Coefficient  Atom+Function  
  ----- ------------  ---------------      ----- ------------  ---------------
    12      1.160808  1 O  py                38     -1.002422  2 H  py         
    52     -1.002422  3 H  py         
 

 center of mass
 --------------
 x =  -0.07732510 y =   0.00000000 z =  -0.05643813

 moments of inertia (a.u.)
 ------------------
           3.650596799306           0.000000000000           1.121300441272
           0.000000000000           6.583331396455           0.000000000000
           1.121300441272           0.000000000000           2.932734597149
 
  Mulliken analysis of the total density
  --------------------------------------

    Atom       Charge   Shell Charges
 -----------   ------   -------------------------------------------------------
    1 O    8     8.50   1.95  1.00  0.23  0.60  1.26  2.14  1.30  0.00  0.02  0.00
    2 H    1     0.75   0.25  0.37  0.04  0.02  0.06  0.01
    3 H    1     0.75   0.25  0.37  0.04  0.02  0.06  0.01
 
       Multipole analysis of the density wrt the origin
       ------------------------------------------------
 
     L   x y z        total         open         nuclear
     -   - - -        -----         ----         -------
     0   0 0 0     -0.000000      0.000000     10.000000
 
     1   1 0 0      0.631281      0.000000      0.000000
     1   0 1 0      0.000000      0.000000      0.000000
     1   0 0 1      0.460760      0.000000      0.000000
 
     2   2 0 0     -4.012109      0.000000      2.774205
     2   1 1 0      0.000000      0.000000      0.000000
     2   1 0 1     -0.774948      0.000000     -1.211682
     2   0 2 0     -5.456351      0.000000      0.000000
     2   0 1 1      0.000000      0.000000      0.000000
     2   0 0 2     -3.515983      0.000000      3.549930
 
                   NWChem Extensible Many-Electron Theory Module
                   ---------------------------------------------
 
              ======================================================
                   This portion of the program was automatically
                  generated by a Tensor Contraction Engine (TCE).
                  The development of this portion of the program
                 and TCE was supported by US Department of Energy,
                Office of Science, Office of Basic Energy Science.
                      TCE is a product of Battelle and PNNL.
              Please cite: S.Hirata, J.Phys.Chem.A 107, 9887 (2003).
              ======================================================
 
                                        H2O
 
 
            General Information
            -------------------
      Number of processors :     1
         Wavefunction type : Restricted Hartree-Fock
          No. of electrons :    10
           Alpha electrons :     5
            Beta electrons :     5
           No. of orbitals :   116
            Alpha orbitals :    58
             Beta orbitals :    58
        Alpha frozen cores :     0
         Beta frozen cores :     0
     Alpha frozen virtuals :     0
      Beta frozen virtuals :     0
         Spin multiplicity : singlet 
    Number of AO functions :    58
       Number of AO shells :    22
        Use of symmetry is : off
      Symmetry adaption is : off
         Schwarz screening : 0.10D-09
 
          Correlation Information
          -----------------------
          Calculation type : Coupled-cluster singles & doubles                           
   Perturbative correction : none                                                        
            Max iterations :      300
        Residual threshold : 0.10D-06
     T(0) DIIS level shift : 0.00D+00
     L(0) DIIS level shift : 0.00D+00
     T(1) DIIS level shift : 0.00D+00
     L(1) DIIS level shift : 0.00D+00
     T(R) DIIS level shift : 0.00D+00
     T(I) DIIS level shift : 0.00D+00
   CC-T/L Amplitude update :  5-th order DIIS
                I/O scheme : Global Array Library
        L-threshold :  0.10D-06
        EOM-threshold :  0.10D-06
 no EOMCCSD initial starts read in
 TCE RESTART OPTIONS
 READ_INT:   F
 WRITE_INT:  F
 READ_TA:    F
 WRITE_TA:   F
 READ_XA:    F
 WRITE_XA:   F
 READ_IN3:   F
 WRITE_IN3:  F
 SLICE:      F
 D4D5:       F
 quantumc:   F
 qrotation:  F
 pwtce:      F
 qducc:      T
 nacto:                          0
 nrotv:                          0
 nrot:                           0
 
            Memory Information
            ------------------
          Available GA space size is    1610609372 doubles
          Available MA space size is    1610609756 doubles
 
 Maximum block size        32 doubles

 tile_dim =     27

 Block   Spin    Irrep     Size     Offset   Alpha
 -------------------------------------------------
   1    alpha     a      5 doubles       0       1
   2    beta      a      5 doubles       5       1
   3    alpha     a     26 doubles      10       3
   4    alpha     a     27 doubles      36       4
   5    beta      a     26 doubles      63       3
   6    beta      a     27 doubles      89       4

 Global array virtual files algorithm will be used

 Parallel file system coherency ......... OK
 
 Fock matrix recomputed
 1-e file size   =             3364
 1-e file name   = ./H2O.f1
 Cpu & wall time / sec            0.2            0.2
 4-electron integrals stored in orbital form
 
 v2    file size   =          3631290
 4-index algorithm nr.  13 is used
 imaxsize =       30
 imaxsize ichop =        0
 Cpu & wall time / sec            1.2            1.2
 T1-number-of-tasks                     2
 
 t1 file size   =              265
 t1 file name   = ./H2O.t1
 t1 file handle =       -998
 T2-number-of-boxes                     7
 
 t2 file size   =           122900
 t2 file name   = ./H2O.t2
 t2 file handle =       -996
CCSD iterations
 ---------------------------------------------------------
 Iter          Residuum       Correlation     Cpu    Wall 
 ---------------------------------------------------------
NEW TASK SCHEDULING
CCSD_T1_NTS --- OK
CCSD_T2_NTS --- OK
    1   0.1389166360739  -0.2759948722214     0.2     0.2
    2   0.0305956783853  -0.2771064898064     0.2     0.2
    3   0.0104083071352  -0.2808603363269     0.2     0.2
    4   0.0041300469442  -0.2812909184597     0.2     0.2
    5   0.0017199293647  -0.2815581600364     0.2     0.2
 MICROCYCLE DIIS UPDATE:                     5                     5
    6   0.0003438248345  -0.2816821843575     0.2     0.2
    7   0.0001402831205  -0.2816947783286     0.2     0.2
    8   0.0000558953340  -0.2816941330542     0.2     0.2
    9   0.0000317684916  -0.2816943422019     0.2     0.2
   10   0.0000161872514  -0.2816946163550     0.2     0.2
 MICROCYCLE DIIS UPDATE:                    10                     5
   11   0.0000030888233  -0.2816951438000     0.2     0.2
   12   0.0000013662807  -0.2816949335928     0.2     0.2
   13   0.0000006391143  -0.2816949567929     0.2     0.2
   14   0.0000003734102  -0.2816949448224     0.2     0.2
   15   0.0000002021652  -0.2816949433407     0.2     0.2
 MICROCYCLE DIIS UPDATE:                    15                     5
   16   0.0000000346856  -0.2816949384721     0.2     0.2
 -----------------------------------------------------------------
 Iterations converged
 CCSD correlation energy / hartree =        -0.281694938472126
 CCSD total energy / hartree       =       -76.336763536549398

 Singles contributions

 Doubles contributions
     7a   (alpha)     7a   (beta ) ---     3a   (alpha)     3a   (beta )       -0.0201994774
     8a   (alpha)     8a   (beta ) ---     3a   (alpha)     3a   (beta )       -0.0274499081
     8a   (alpha)     8a   (beta ) ---     4a   (alpha)     4a   (beta )       -0.0222190989
     9a   (alpha)     9a   (beta ) ---     3a   (alpha)     3a   (beta )       -0.0270433225
    10a   (alpha)    10a   (beta ) ---     4a   (alpha)     4a   (beta )       -0.0304683244
    10a   (alpha)    11a   (beta ) ---     4a   (alpha)     5a   (beta )       -0.0263698912
    11a   (alpha)    10a   (beta ) ---     5a   (alpha)     4a   (beta )       -0.0263698912
    11a   (alpha)    11a   (beta ) ---     5a   (alpha)     5a   (beta )       -0.0478337654
    11a   (alpha)    12a   (beta ) ---     5a   (alpha)     3a   (beta )       -0.0221680132
    12a   (alpha)    11a   (beta ) ---     3a   (alpha)     5a   (beta )       -0.0221680132
    12a   (alpha)    12a   (beta ) ---     3a   (alpha)     3a   (beta )       -0.0224410741
 Ground state specification:
 exp(T)|Ref>~(1+T)|Ref>
 ------- a(p)+/a(q) strings ----------

 singles norm

 doubles norm

 Reference string
   1.00000000000000      :(1a)+ (2a)+ (3a)+ (4a)+ (5a)+ (1b)+ (2b)+ (3b)+ (4b)+ 
 (5b)+ |0>

 Singles strings

 Doubles strings
 -------------------------------------
 enrep_tce =    9.01518745035298     
  EHF(total)         =       -76.05506860
  Shift (HFtot-HFA)  =         0.00000000
 ALL OCCUPIED ORBITALS ARE ACTIVE IN DUCC --> NO SHIFT
 Number of active orbitals                     8
 Number of active alpha electrons                     5
 Number of active beta electrons                     5
  nos                     10
  nvs                    106
 noas                      5
 nobs                      5
 nvas                     53
 nvbs                     53
 nactv                      3
 DUCC MODEL =                      6
 NONHF =  T
 F-T1 correlation    =   1.145901670316038E-007
 V-T1-T1 correlation =   3.395703145522394E-005
 V-T2 correlation    =  -0.281729010093667     
 Total correlation   =  -0.281694938472045     
 F-T1(Ext) correlation         =   1.197087587762595E-007
 V-T1(Ext)-T1(Ext) correlation =   3.142843787936206E-005
 V-T2(Ext) correlation         =  -0.273885561239765     
 Total Ext correlation         =  -0.273854013093126     
1-BODY TIME =  294.611 SECONDS.
  HHHH TIME =  291.271 SECONDS.
  PPPP TIME =    2.838 SECONDS.
  HHHP TIME =   22.077 SECONDS.
  PPPH TIME =    5.450 SECONDS.
  HPHP TIME =   21.538 SECONDS.
  HHPP TIME =   12.118 SECONDS.
 ONE-BODY UNITARY CHECK
 TWO-BODY UNITARY CHECK
                     1                     3                     2
                     3 -1.338359978397818E-012
                     1                     3                     3
                     2  2.244836261322547E-012
                     1                     4                     2
                     4 -1.281703909672416E-012
                     1                     4                     4
                     2  1.615971245705339E-012
                     1                     5                     2
                     5 -1.140476602046192E-012
                     1                     6                     2
                     9  1.217349138160628E-012
                     1                     6                     3
                     8  1.436906149621109E-012
                     1                     6                     5
                    10 -2.126812614910989E-012
                     1                     6                     7
                     4 -1.260627019439298E-012
                     1                     6                     8
                     3 -1.436906149621109E-012
                     1                     6                    10
                     5  2.126812614910989E-012
                     1                     7                     2
                     7 -1.526929624406925E-012
                     1                     7                     5
                    10 -2.462401810232606E-012
                     1                     7                     7
                     2  1.742521058001323E-012
                     1                     7                     9
                     4  1.048522380031613E-012
                     1                     7                    10
                     5  2.977122021130540E-012
                     1                     8                     2
                     8 -2.625369539821509E-012
                     1                     8                     3
                     7 -1.131809923560212E-012
                     1                     8                     7
                     3  1.286953182910722E-012
                     1                     8                     8
                     2  3.376699961310514E-012
                     1                     9                     2
                     9 -2.522817024730450E-012
                     1                     9                     3
                     8 -1.644778931109148E-012
                     1                     9                     7
                     2  1.208942668196045E-012
                     1                     9                     7
                     4  1.241229341530925E-012
                     1                     9                     8
                     3  1.770916746579587E-012
                     1                     9                     9
                     2  2.474753041381561E-012
                     1                    10                     2
                    10 -2.090104131435844E-012
                     1                    10                     5
                     7 -2.039746843651713E-012
                     1                    10                    10
                     2  2.942169077813084E-012
                     2                     2                     2
                     4  6.872503854624813E-012
                     2                     2                     4
                     2 -6.872491916648333E-012
                     2                     3                     1
                     3  1.338359978397818E-012
                     2                     3                     3
                     2 -2.007949362337058E-012
                     2                     3                     3
                     4  1.977356256163687E-011
                     2                     3                     4
                     3 -1.553664228520768E-011
                     2                     4                     1
                     4  1.281703909672416E-012
                     2                     4                     2
                     2 -6.872503854624813E-012
                     2                     4                     3
                     3  3.153107387098090E-012
                     2                     4                     4
                     2  1.457389764425443E-012
                     2                     4                     4
                     4  2.953797520046397E-012
                     2                     5                     1
                     5  1.140476602046192E-012
                     2                     5                     4
                     5 -1.565139597786702E-011
                     2                     5                     5
                     2  1.560973572622970E-011
                     2                     5                     5
                     4  2.256974555164826E-011
                     2                     6                     4
                     9 -1.356696005538893E-012
                     2                     6                     5
                    10 -2.627439932290088E-012
                     2                     6                    10
                     5  2.112719721392153E-012
                     2                     7                     1
                     7  1.526929624406925E-012
                     2                     7                     2
                     9  3.364567305319532E-012
                     2                     7                     3
                     8 -8.260281347816090E-012
                     2                     7                     4
                     6  1.055420507933835E-012
                     2                     7                     4
                     7 -1.305893067293784E-011
                     2                     7                     4
                     9 -9.692330271704463E-012
                     2                     7                     5
                    10 -4.400449449271093E-011
                     2                     7                     6
                     2 -1.742519323277847E-012
                     2                     7                     6
                     4 -1.208935729302141E-012
                     2                     7                     7
                     4  3.507890158904736E-012
                     2                     7                     8
                     3  8.260281347816090E-012
                     2                     7                     9
                     2  6.186474943437048E-012
                     2                     7                     9
                     4  9.692302516128848E-012
                     2                     7                    10
                     5  4.400449449271093E-011
                     2                     8                     1
                     8  2.625369539821509E-012
                     2                     8                     3
                     7 -6.413425346352142E-012
                     2                     8                     3
                     9 -1.089455435587805E-011
                     2                     8                     4
                     8 -2.518629749204138E-011
                     2                     8                     6
                     3 -1.286939305122914E-012
                     2                     8                     8
                     2  4.407918474669259E-012
                     2                     8                     8
                     4  3.066793867467776E-011
                     2                     8                     9
                     3  9.649869445182979E-012
                     2                     9                     1
                     6 -1.217349138160628E-012
                     2                     9                     1
                     9  2.522817024730450E-012
                     2                     9                     2
                     7 -3.364567305319532E-012
                     2                     9                     3
                     8 -1.694288633002916E-011
                     2                     9                     4
                     7 -5.871580999183834E-012
                     2                     9                     4
                     9 -3.813056814738758E-011
                     2                     9                     5
                    10 -6.855252476789531E-012
                     2                     9                     6
                     1  1.260647836121009E-012
                     2                     9                     6
                     4 -1.241222402637021E-012
                     2                     9                     7
                     2 -3.507923118650780E-012
                     2                     9                     8
                     3  2.009599257835060E-011
                     2                     9                     9
                     2  7.328582185550658E-012
                     2                     9                     9
                     4  4.108469120467362E-011
                     2                     9                    10
                     5  7.230820109338509E-012
                     2                    10                     1
                    10  2.090104131435844E-012
                     2                    10                     4
                    10 -1.684929279432978E-011
                     2                    10                     5
                     6 -1.278626510226033E-012
                     2                    10                     5
                     7 -3.618585986409073E-011
                     2                    10                     5
                     9 -8.678197049860614E-012
                     2                    10                     9
                     5  1.198090238130334E-012
                     2                    10                    10
                     2  5.179590090165220E-011
                     2                    10                    10
                     4  3.124772662843611E-011
                     3                     1                     3
                     2 -1.490547268945264E-012
                     3                     1                     3
                     4 -1.053867063061098E-012
                     3                     2                     1
                     3 -2.244836261322547E-012
                     3                     2                     2
                     3  2.007949362337058E-012
                     3                     2                     3
                     1  1.490547268945264E-012
                     3                     2                     3
                     4 -2.384864441346002E-012
                     3                     2                     4
                     3 -1.852060171891878E-012
                     3                     3                     2
                     4 -3.153107387098090E-012
                     3                     3                     4
                     2  3.153105526907858E-012
                     3                     4                     2
                     3 -1.977356256163687E-011
                     3                     4                     3
                     1  1.053867063061098E-012
                     3                     4                     3
                     2  2.384864441346002E-012
                     3                     4                     4
                     3  2.040267954583896E-011
                     3                     5                     5
                     3  5.424505289397530E-011
                     3                     6                     3
                     9 -1.034571733837808E-012
                     3                     7                     1
                     8  1.131809923560212E-012
                     3                     7                     2
                     8  6.413425346352142E-012
                     3                     7                     4
                     8  2.720388150856401E-012
                     3                     7                     6
                     3 -3.376689552969658E-012
                     3                     7                     7
                     3 -4.407918474669259E-012
                     3                     7                     8
                     4 -1.475699770714378E-012
                     3                     7                     9
                     3 -4.572547201986410E-012
                     3                     8                     1
                     6 -1.436906149621109E-012
                     3                     8                     1
                     9  1.644778931109148E-012
                     3                     8                     2
                     7  8.260281347816090E-012
                     3                     8                     2
                     9  1.694288633002916E-011
                     3                     8                     4
                     6  1.617724617458682E-012
                     3                     8                     4
                     7  1.562667530097261E-011
                     3                     8                     4
                     9 -1.253386283650570E-012
                     3                     8                     5
                    10 -3.374992993410153E-011
                     3                     8                     6
                     1  1.436937374643676E-012
                     3                     8                     6
                     4 -1.770915879217849E-012
                     3                     8                     7
                     2 -8.260281347816090E-012
                     3                     8                     7
                     4 -2.009593880192284E-011
                     3                     8                     9
                     1 -1.491587669349981E-012
                     3                     8                     9
                     2 -1.247360721656765E-011
                     3                     8                     9
                     4  1.253382814203619E-012
                     3                     8                    10
                     5  3.374988830073811E-011
                     3                     9                     2
                     8  1.089455435587805E-011
                     3                     9                     3
                     6  1.034571733837808E-012
                     3                     9                     7
                     3 -3.066794214412472E-011
                     3                     9                     8
                     2  1.475580074794536E-012
                     3                     9                     9
                     3  1.971911522957726E-011
                     3                    10                     5
                     8 -2.495063183838298E-011
                     3                    10                    10
                     3  7.919520594867890E-011
                     4                     2                     1
                     4 -1.615971245705339E-012
                     4                     2                     2
                     2  6.872491916648333E-012
                     4                     2                     2
                     4 -1.457389764425443E-012
                     4                     2                     3
                     3 -3.153105526907858E-012
                     4                     2                     4
                     4 -2.953775188181562E-012
                     4                     3                     2
                     3  1.553664228520768E-011
                     4                     3                     3
                     2  1.852060171891878E-012
                     4                     3                     3
                     4 -2.040267954583896E-011
                     4                     4                     2
                     4 -2.953797520046397E-012
                     4                     4                     4
                     2  2.953775188181562E-012
                     4                     5                     2
                     5  1.565139597786702E-011
                     4                     5                     5
                     2  1.086117740883852E-011
                     4                     5                     5
                     4  4.169731226966178E-011
                     4                     6                     2
                     7 -1.055420507933835E-012
                     4                     6                     3
                     8 -1.617724617458682E-012
                     4                     6                     8
                     3  1.491586801988243E-012
                     4                     6                     9
                     4  1.104984159727707E-012
                     4                     7                     2
                     7  1.305893067293784E-011
                     4                     7                     2
                     9  5.871580999183834E-012
                     4                     7                     3
                     8 -1.562667530097261E-011
                     4                     7                     4
                     9  4.099554029579622E-012
                     4                     7                     5
                    10 -4.266760555982074E-012
                     4                     7                     6
                     4 -2.474753041381561E-012
                     4                     7                     7
                     2 -6.186441983691005E-012
                     4                     7                     7
                     4 -7.328582185550658E-012
                     4                     7                     8
                     3  1.247356731792770E-011
                     4                     7                     9
                     4 -7.054024031560857E-012
                     4                     7                    10
                     5  3.891192923433096E-012
                     4                     8                     2
                     8  2.518629749204138E-011
                     4                     8                     3
                     7 -2.720388150856401E-012
                     4                     8                     7
                     3 -9.649744545092709E-012
                     4                     8                     8
                     2  4.572550671433362E-012
                     4                     8                     8
                     4 -1.971911522957726E-011
                     4                     9                     2
                     6  1.356696005538893E-012
                     4                     9                     2
                     7  9.692330271704463E-012
                     4                     9                     2
                     9  3.813056814738758E-011
                     4                     9                     3
                     8  1.253386283650570E-012
                     4                     9                     4
                     7 -4.099554029579622E-012
                     4                     9                     5
                    10 -3.859170275011259E-011
                     4                     9                     6
                     2 -1.048518910584662E-012
                     4                     9                     7
                     2 -9.692302516128848E-012
                     4                     9                     7
                     4 -4.108464957131019E-011
                     4                     9                     8
                     3 -1.253257914113348E-012
                     4                     9                     9
                     1 -1.104951199981663E-012
                     4                     9                     9
                     2  7.053649331290046E-012
                     4                     9                    10
                     5  3.859180683352115E-011
                     4                    10                     2
                    10  1.684929279432978E-011
                     4                    10                     5
                     7 -4.276877463293971E-012
                     4                    10                     5
                     9 -1.932475707233650E-011
                     4                    10                     7
                     5 -1.198048604766910E-012
                     4                    10                    10
                     2  1.513816849652017E-011
                     4                    10                    10
                     4  6.102207628089218E-011
                     5                     2                     2
                     5 -1.560973572622970E-011
                     5                     2                     4
                     5 -1.086117740883852E-011
                     5                     2                     5
                     4  3.942825232972069E-012
                     5                     3                     3
                     5 -5.424505289397530E-011
                     5                     4                     2
                     5 -2.256974555164826E-011
                     5                     4                     4
                     5 -4.169731226966178E-011
                     5                     4                     5
                     2 -3.942825232972069E-012
                     5                     6                     2
                    10  1.278626510226033E-012
                     5                     7                     1
                    10  2.039746843651713E-012
                     5                     7                     2
                    10  3.618585986409073E-011
                     5                     7                     4
                    10  4.276877463293971E-012
                     5                     7                     6
                     5 -2.942162138919180E-012
                     5                     7                     7
                     5 -5.179590090165220E-011
                     5                     7                     9
                     5 -1.513815461873236E-011
                     5                     7                    10
                     4  3.203232817883261E-012
                     5                     8                     3
                    10  2.495063183838298E-011
                     5                     8                     8
                     5 -7.919520594867890E-011
                     5                     9                     2
                    10  8.678197049860614E-012
                     5                     9                     4
                    10  1.932475707233650E-011
                     5                     9                     7
                     5 -3.124774050622392E-011
                     5                     9                     9
                     5 -6.102207628089218E-011
                     5                     9                    10
                     2 -3.203267512352781E-012
                     5                    10                     1
                     6  2.126812614910989E-012
                     5                    10                     1
                     7  2.462401810232606E-012
                     5                    10                     2
                     6  2.627439932290088E-012
                     5                    10                     2
                     7  4.400449449271093E-011
                     5                    10                     2
                     9  6.855252476789531E-012
                     5                    10                     3
                     8  3.374992993410153E-011
                     5                    10                     4
                     7  4.266760555982074E-012
                     5                    10                     4
                     9  3.859170275011259E-011
                     5                    10                     6
                     1 -2.126812614910989E-012
                     5                    10                     6
                     2 -2.977135898918348E-012
                     5                    10                     7
                     1 -2.112705843604346E-012
                     5                    10                     7
                     2 -4.400449449271093E-011
                     5                    10                     7
                     4 -7.230799292656798E-012
                     5                    10                     8
                     3 -3.374993687299543E-011
                     5                    10                     9
                     2 -3.891213740114807E-012
                     5                    10                     9
                     4 -3.859171315845344E-011
                     6                     1                     2
                     9 -1.260647836121009E-012
                     6                     1                     3
                     8 -1.436937374643676E-012
                     6                     1                     5
                    10  2.126812614910989E-012
                     6                     1                     7
                     4  1.217328321478917E-012
                     6                     1                     8
                     3  1.436937374643676E-012
                     6                     1                    10
                     5 -2.126812614910989E-012
                     6                     2                     2
                     7  1.742519323277847E-012
                     6                     2                     4
                     9  1.048518910584662E-012
                     6                     2                     5
                    10  2.977135898918348E-012
                     6                     2                     7
                     2 -1.526927889683449E-012
                     6                     2                    10
                     5 -2.462415688020414E-012
                     6                     3                     2
                     8  1.286939305122914E-012
                     6                     3                     3
                     7  3.376689552969658E-012
                     6                     3                     7
                     3 -2.625359131480653E-012
                     6                     3                     8
                     2 -1.131796045772404E-012
                     6                     4                     2
                     7  1.208935729302141E-012
                     6                     4                     2
                     9  1.241222402637021E-012
                     6                     4                     3
                     8  1.770915879217849E-012
                     6                     4                     4
                     7  2.474753041381561E-012
                     6                     4                     7
                     4 -2.522817024730450E-012
                     6                     4                     8
                     3 -1.644778063747410E-012
                     6                     5                     5
                     7  2.942162138919180E-012
                     6                     5                     7
                     5 -2.090098927265416E-012
                     6                     5                    10
                     2 -2.039753782545617E-012
                     6                     8                     7
                     8 -1.338359978397818E-012
                     6                     8                     8
                     7  2.244836261322547E-012
                     6                     9                     7
                     9 -1.281703909672416E-012
                     6                     9                     9
                     7  1.615971245705339E-012
                     6                    10                     7
                    10 -1.140476602046192E-012
                     7                     1                     5
                    10  2.112705843604346E-012
                     7                     1                     9
                     4 -1.356699474985845E-012
                     7                     1                    10
                     5 -2.627426054502280E-012
                     7                     2                     1
                     7 -1.742521058001323E-012
                     7                     2                     1
                     9 -1.208942668196045E-012
                     7                     2                     2
                     9  3.507923118650780E-012
                     7                     2                     3
                     8  8.260281347816090E-012
                     7                     2                     4
                     7  6.186441983691005E-012
                     7                     2                     4
                     9  9.692302516128848E-012
                     7                     2                     5
                    10  4.400449449271093E-011
                     7                     2                     6
                     2  1.526927889683449E-012
                     7                     2                     7
                     4  3.364605469236004E-012
                     7                     2                     8
                     3 -8.260281347816090E-012
                     7                     2                     9
                     1  1.055428314189477E-012
                     7                     2                     9
                     2 -1.305896883685431E-011
                     7                     2                     9
                     4 -9.692330271704463E-012
                     7                     2                    10
                     5 -4.400449449271093E-011
                     7                     3                     1
                     8 -1.286953182910722E-012
                     7                     3                     3
                     7  4.407918474669259E-012
                     7                     3                     3
                     9  3.066794214412472E-011
                     7                     3                     4
                     8  9.649744545092709E-012
                     7                     3                     6
                     3  2.625359131480653E-012
                     7                     3                     8
                     2 -6.413147790595985E-012
                     7                     3                     8
                     4 -1.089443292523473E-011
                     7                     3                     9
                     3 -2.518631136982918E-011
                     7                     4                     1
                     6  1.260627019439298E-012
                     7                     4                     1
                     9 -1.241229341530925E-012
                     7                     4                     2
                     7 -3.507890158904736E-012
                     7                     4                     3
                     8  2.009593880192284E-011
                     7                     4                     4
                     7  7.328582185550658E-012
                     7                     4                     4
                     9  4.108464957131019E-011
                     7                     4                     5
                    10  7.230799292656798E-012
                     7                     4                     6
                     1 -1.217328321478917E-012
                     7                     4                     6
                     4  2.522817024730450E-012
                     7                     4                     7
                     2 -3.364605469236004E-012
                     7                     4                     8
                     3 -1.694282734943098E-011
                     7                     4                     9
                     2 -5.871497732456987E-012
                     7                     4                     9
                     4 -3.813065141411442E-011
                     7                     4                    10
                     5 -6.855231660107819E-012
                     7                     5                     4
                    10  1.198048604766910E-012
                     7                     5                     5
                     7  5.179590090165220E-011
                     7                     5                     5
                     9  3.124774050622392E-011
                     7                     5                     6
                     5  2.090098927265416E-012
                     7                     5                     9
                     5 -1.684930667211759E-011
                     7                     5                    10
                     1 -1.278633449119937E-012
                     7                     5                    10
                     2 -3.618588761966635E-011
                     7                     5                    10
                     4 -8.678158885944143E-012
                     7                     7                     7
                     9  6.872502123446633E-012
                     7                     7                     9
                     7 -6.872491842266598E-012
                     7                     8                     6
                     8  1.338359978397818E-012
                     7                     8                     8
                     7 -2.009392652269071E-012
                     7                     8                     8
                     9  1.977356906684991E-011
                     7                     8                     9
                     8 -1.553665182618680E-011
                     7                     9                     6
                     9  1.281703909672416E-012
                     7                     9                     7
                     7 -6.872502123446633E-012
                     7                     9                     8
                     8  3.153106925429151E-012
                     7                     9                     9
                     7  1.457389764425443E-012
                     7                     9                     9
                     9  2.953792459825455E-012
                     7                    10                     6
                    10  1.140476602046192E-012
                     7                    10                     9
                    10 -1.565139684522876E-011
                     7                    10                    10
                     7  1.560973572622970E-011
                     7                    10                    10
                     9  2.256972386760481E-011
                     8                     1                     8
                     4 -1.034576070646498E-012
                     8                     2                     1
                     8 -3.376699961310514E-012
                     8                     2                     2
                     8 -4.407918474669259E-012
                     8                     2                     3
                     9 -1.475580074794536E-012
                     8                     2                     4
                     8 -4.572550671433362E-012
                     8                     2                     6
                     3  1.131796045772404E-012
                     8                     2                     7
                     3  6.413147790595985E-012
                     8                     2                     9
                     3  2.720264985489607E-012
                     8                     3                     1
                     6  1.436906149621109E-012
                     8                     3                     1
                     9 -1.770916746579587E-012
                     8                     3                     2
                     7 -8.260281347816090E-012
                     8                     3                     2
                     9 -2.009599257835060E-011
                     8                     3                     4
                     6 -1.491586801988243E-012
                     8                     3                     4
                     7 -1.247356731792770E-011
                     8                     3                     4
                     9  1.253257914113348E-012
                     8                     3                     5
                    10  3.374993687299543E-011
                     8                     3                     6
                     1 -1.436937374643676E-012
                     8                     3                     6
                     4  1.644778063747410E-012
                     8                     3                     7
                     2  8.260281347816090E-012
                     8                     3                     7
                     4  1.694282734943098E-011
                     8                     3                     9
                     1  1.617725484820420E-012
                     8                     3                     9
                     2  1.562671346488909E-011
                     8                     3                     9
                     4 -1.253254444666396E-012
                     8                     3                    10
                     5 -3.374989523963201E-011
                     8                     4                     2
                     8 -3.066793867467776E-011
                     8                     4                     3
                     7  1.475699770714378E-012
                     8                     4                     4
                     8  1.971911522957726E-011
                     8                     4                     7
                     3  1.089443292523473E-011
                     8                     4                     8
                     1  1.034576070646498E-012
                     8                     5                     5
                     8  7.919520594867890E-011
                     8                     5                    10
                     3 -2.495062489948907E-011
                     8                     6                     8
                     7 -1.490547268945264E-012
                     8                     6                     8
                     9 -1.053867063061098E-012
                     8                     7                     6
                     8 -2.244836261322547E-012
                     8                     7                     7
                     8  2.009392652269071E-012
                     8                     7                     8
                     6  1.490547268945264E-012
                     8                     7                     8
                     9 -2.384837553132124E-012
                     8                     7                     9
                     8 -1.852055835083188E-012
                     8                     8                     7
                     9 -3.153106925429151E-012
                     8                     8                     9
                     7  3.153106974451183E-012
                     8                     9                     7
                     8 -1.977356906684991E-011
                     8                     9                     8
                     6  1.053867063061098E-012
                     8                     9                     8
                     7  2.384837553132124E-012
                     8                     9                     9
                     8  2.040267954583896E-011
                     8                    10                    10
                     8  5.424505289397530E-011
                     9                     1                     3
                     8  1.491587669349981E-012
                     9                     1                     4
                     9  1.104951199981663E-012
                     9                     1                     7
                     2 -1.055428314189477E-012
                     9                     1                     8
                     3 -1.617725484820420E-012
                     9                     2                     1
                     9 -2.474753041381561E-012
                     9                     2                     2
                     7 -6.186474943437048E-012
                     9                     2                     2
                     9 -7.328582185550658E-012
                     9                     2                     3
                     8  1.247360721656765E-011
                     9                     2                     4
                     9 -7.053649331290046E-012
                     9                     2                     5
                    10  3.891213740114807E-012
                     9                     2                     7
                     2  1.305896883685431E-011
                     9                     2                     7
                     4  5.871497732456987E-012
                     9                     2                     8
                     3 -1.562671346488909E-011
                     9                     2                     9
                     4  4.099665051882084E-012
                     9                     2                    10
                     5 -4.266781372663786E-012
                     9                     3                     2
                     8 -9.649869445182979E-012
                     9                     3                     3
                     7  4.572547201986410E-012
                     9                     3                     3
                     9 -1.971911522957726E-011
                     9                     3                     7
                     3  2.518631136982918E-011
                     9                     3                     8
                     2 -2.720264985489607E-012
                     9                     4                     1
                     7 -1.048522380031613E-012
                     9                     4                     2
                     7 -9.692302516128848E-012
                     9                     4                     2
                     9 -4.108469120467362E-011
                     9                     4                     3
                     8 -1.253382814203619E-012
                     9                     4                     4
                     6 -1.104984159727707E-012
                     9                     4                     4
                     7  7.054024031560857E-012
                     9                     4                     5
                    10  3.859171315845344E-011
                     9                     4                     7
                     1  1.356699474985845E-012
                     9                     4                     7
                     2  9.692330271704463E-012
                     9                     4                     7
                     4  3.813065141411442E-011
                     9                     4                     8
                     3  1.253254444666396E-012
                     9                     4                     9
                     2 -4.099665051882084E-012
                     9                     4                    10
                     5 -3.859179642518029E-011
                     9                     5                     2
                    10 -1.198090238130334E-012
                     9                     5                     5
                     7  1.513815461873236E-011
                     9                     5                     5
                     9  6.102207628089218E-011
                     9                     5                     7
                     5  1.684930667211759E-011
                     9                     5                    10
                     2 -4.276839299377500E-012
                     9                     5                    10
                     4 -1.932477095012430E-011
                     9                     7                     6
                     9 -1.615971245705339E-012
                     9                     7                     7
                     7  6.872491842266598E-012
                     9                     7                     7
                     9 -1.457389764425443E-012
                     9                     7                     8
                     8 -3.153106974451183E-012
                     9                     7                     9
                     9 -2.953782250696161E-012
                     9                     8                     7
                     8  1.553665182618680E-011
                     9                     8                     8
                     7  1.852055835083188E-012
                     9                     8                     8
                     9 -2.040267954583896E-011
                     9                     9                     7
                     9 -2.953792459825455E-012
                     9                     9                     9
                     7  2.953782250696161E-012
                     9                    10                     7
                    10  1.565139684522876E-011
                     9                    10                    10
                     7  1.086116092896550E-011
                     9                    10                    10
                     9  4.169731226966178E-011
                    10                     1                     7
                     5  1.278633449119937E-012
                    10                     2                     1
                    10 -2.942169077813084E-012
                    10                     2                     2
                    10 -5.179590090165220E-011
                    10                     2                     4
                    10 -1.513816849652017E-011
                    10                     2                     5
                     9  3.203267512352781E-012
                    10                     2                     6
                     5  2.039753782545617E-012
                    10                     2                     7
                     5  3.618588761966635E-011
                    10                     2                     9
                     5  4.276839299377500E-012
                    10                     3                     3
                    10 -7.919520594867890E-011
                    10                     3                     8
                     5  2.495062489948907E-011
                    10                     4                     2
                    10 -3.124772662843611E-011
                    10                     4                     4
                    10 -6.102207628089218E-011
                    10                     4                     5
                     7 -3.203232817883261E-012
                    10                     4                     7
                     5  8.678158885944143E-012
                    10                     4                     9
                     5  1.932477095012430E-011
                    10                     5                     1
                     6 -2.126812614910989E-012
                    10                     5                     1
                     7 -2.977122021130540E-012
                    10                     5                     2
                     6 -2.112719721392153E-012
                    10                     5                     2
                     7 -4.400449449271093E-011
                    10                     5                     2
                     9 -7.230820109338509E-012
                    10                     5                     3
                     8 -3.374988830073811E-011
                    10                     5                     4
                     7 -3.891192923433096E-012
                    10                     5                     4
                     9 -3.859180683352115E-011
                    10                     5                     6
                     1  2.126812614910989E-012
                    10                     5                     6
                     2  2.462415688020414E-012
                    10                     5                     7
[...]
    6    8    8    2       -0.0115116254
    6    8    8    4       -0.0054428243
    6    8    8    6        0.0179521175
    7    1    1    1        0.0000000004
    7    1    1    3       -0.0102473957
    7    1    1    7        0.0043904551
    7    1    1    8        0.0037858628
    7    2    1    1       -0.0000000003
    7    2    1    3       -0.0082014505
    7    2    1    7        0.0036377190
    7    2    1    8        0.0031228920
    7    3    1    1       -0.1639862541
    7    3    1    2        0.0005751193
    7    3    1    4       -0.0003238075
    7    3    1    6        0.0004952932
    7    4    1    1       -0.0000000001
    7    4    1    3        0.0027083446
    7    4    1    7       -0.0013200772
    7    4    1    8       -0.0013705269
    7    6    1    1       -0.0000000001
    7    6    1    3       -0.0039278788
    7    6    1    7        0.0017105619
    7    6    1    8        0.0014109505
    7    7    1    1        0.3336272373
    7    7    1    2       -0.0014102976
    7    7    1    4        0.0013674375
    7    7    1    6       -0.0001423859
    7    8    1    1        0.1088944727
    7    8    1    2       -0.0014584347
    7    8    1    4       -0.0002059956
    7    8    1    6       -0.0004745009
    7    1    2    3       -0.0110347630
    7    1    2    7        0.0036377190
    7    1    2    8        0.0026614682
    7    2    2    2       -0.0000000002
    7    2    2    3       -0.0327688854
    7    2    2    7        0.0125877167
    7    2    2    8        0.0098855255
    7    3    2    1        0.0014301626
    7    3    2    2       -0.0947362888
    7    3    2    4        0.0131529869
    7    3    2    6       -0.0204080758
    7    4    2    3        0.0146115837
    7    4    2    7       -0.0022493827
    7    4    2    8       -0.0025205184
    7    6    2    2       -0.0000000001
    7    6    2    3       -0.0420979801
    7    6    2    7       -0.0006377607
    7    6    2    8       -0.0060162387
    7    7    2    1       -0.0014102976
    7    7    2    2        0.2977712856
    7    7    2    3        0.0000000001
    7    7    2    4        0.0098376980
    7    7    2    6        0.0076667067
    7    8    2    1       -0.0014310221
    7    8    2    2        0.0735095367
    7    8    2    4       -0.0004294195
    7    8    2    6        0.0066836633
    7    1    3    1       -0.0093593100
    7    1    3    2       -0.0108116939
    7    1    3    4        0.0015104935
    7    1    3    6       -0.0017683634
    7    2    3    1       -0.0081269824
    7    2    3    2       -0.0331752323
    7    2    3    3       -0.0000000001
    7    2    3    4        0.0049634725
    7    2    3    6       -0.0076206022
    7    3    3    3       -0.0832052752
    7    3    3    7        0.0306891241
    7    3    3    8        0.0242160089
    7    4    3    1        0.0028251628
    7    4    3    2        0.0156142080
    7    4    3    4       -0.0058656125
    7    4    3    6       -0.0058733475
    7    5    3    5       -0.0087831581
    7    6    3    1       -0.0039151017
    7    6    3    2       -0.0421710158
    7    6    3    4       -0.0141186789
    7    6    3    6        0.0184873472
    7    7    3    2        0.0000000001
    7    7    3    3        0.3014496373
    7    7    3    7       -0.0061171414
    7    7    3    8        0.0085453870
    7    8    3    3        0.0725610998
    7    8    3    7       -0.0103513092
    7    8    3    8        0.0041446127
    7    1    4    3        0.0015435502
    7    1    4    7       -0.0013200772
    7    1    4    8       -0.0029760822
    7    2    4    3        0.0048165683
    7    2    4    4       -0.0000000001
    7    2    4    7       -0.0022493827
    7    2    4    8       -0.0079963375
    7    3    4    1       -0.0003471216
    7    3    4    2        0.0140422694
    7    3    4    4       -0.0839802983
    7    3    4    6       -0.0134785502
    7    4    4    3       -0.0067058189
    7    4    4    7        0.0080607838
    7    4    4    8        0.0142987426
    7    6    4    3       -0.0139405614
    7    6    4    7       -0.0122517058
    7    6    4    8       -0.0256341135
    7    7    4    1        0.0013674375
    7    7    4    2        0.0098376980
    7    7    4    4        0.2834766104
    7    7    4    6       -0.0036327716
    7    8    4    1       -0.0000996913
    7    8    4    2       -0.0001078674
    7    8    4    4        0.0703969451
    7    8    4    6       -0.0000477559
    7    2    5    5       -0.0000000001
    7    3    5    5       -0.0888100986
    7    5    5    3       -0.0090224676
    7    5    5    7        0.0043950285
    7    5    5    8        0.0037993183
    7    7    5    5        0.2849505182
    7    8    5    5        0.0657167066
    7    1    6    3       -0.0021281440
    7    1    6    7        0.0017105619
    7    1    6    8        0.0004915943
    7    2    6    3       -0.0109003808
    7    2    6    7       -0.0006377607
    7    2    6    8       -0.0009380475
    7    3    6    1        0.0000614209
    7    3    6    2       -0.0232418545
    7    3    6    4       -0.0137409452
    7    3    6    6       -0.0082534321
    7    4    6    3       -0.0065653216
    7    4    6    7       -0.0122517058
    7    4    6    8       -0.0025121992
    7    6    6    3        0.0189246458
    7    6    6    6        0.0000000001
    7    6    6    7        0.0661373642
    7    6    6    8        0.0004389953
    7    7    6    1       -0.0001423859
    7    7    6    2        0.0076667067
    7    7    6    4       -0.0036327716
    7    7    6    6        0.2537471518
    7    7    6    7       -0.0000000002
    7    8    6    1       -0.0004609910
    7    8    6    2        0.0065879173
    7    8    6    4       -0.0007220160
    7    8    6    6        0.0253817121
    7    1    7    1        0.0046759028
    7    1    7    2        0.0040017753
    7    1    7    4       -0.0014068108
    7    1    7    6        0.0017039936
    7    2    7    1        0.0040017753
    7    2    7    2        0.0152154731
    7    2    7    4       -0.0026319300
    7    2    7    6       -0.0007628454
    7    3    7    3        0.0330274634
    7    3    7    7       -0.0061171414
    7    3    7    8       -0.0101809561
    7    4    7    1       -0.0014068108
    7    4    7    2       -0.0026319300
    7    4    7    4        0.0098120984
    7    4    7    6       -0.0123326932
    7    5    7    5        0.0061237396
    7    6    7    1        0.0017039936
    7    6    7    2       -0.0007628454
    7    6    7    4       -0.0123326932
    7    6    7    6        0.0661378359
    7    6    7    7       -0.0000000002
    7    7    7    3       -0.0061171414
    7    7    7    6       -0.0000000002
    7    7    7    7        0.2584512867
    7    7    7    8        0.0206009546
    7    8    7    3       -0.0101809561
    7    8    7    7        0.0206009546
    7    8    7    8        0.0195070246
    7    1    8    1        0.0040030191
    7    1    8    2        0.0029580272
    7    1    8    4       -0.0030988554
    7    1    8    6        0.0004746329
    7    2    8    1        0.0034041114
    7    2    8    2        0.0114495465
    7    2    8    4       -0.0084166707
    7    2    8    6       -0.0008953495
    7    3    8    3        0.0247033201
    7    3    8    7       -0.0103513092
    7    3    8    8       -0.0235195149
    7    4    8    1       -0.0014247634
    7    4    8    2       -0.0032620914
    7    4    8    4        0.0147943519
    7    4    8    6       -0.0021548842
    7    5    8    5        0.0044860165
    7    6    8    1        0.0014058266
    7    6    8    2       -0.0061551161
    7    6    8    4       -0.0260404803
    7    6    8    6        0.0004490562
    7    7    8    3        0.0085453870
    7    7    8    7        0.0206009546
    7    7    8    8        0.2673176338
    7    8    8    3        0.0052999220
    7    8    8    7        0.0195589030
    7    8    8    8        0.0459267743
    8    1    1    3       -0.0090673397
    8    1    1    7        0.0037858628
    8    1    1    8        0.0033133141
    8    2    1    3       -0.0061519071
    8    2    1    7        0.0026614682
    8    2    1    8        0.0024431604
    8    3    1    1       -0.1042153639
    8    3    1    2        0.0013505584
    8    3    1    4        0.0038358823
    8    3    1    6        0.0016404885
    8    4    1    3        0.0062000141
    8    4    1    7       -0.0029760822
    8    4    1    8       -0.0027844078
    8    6    1    3       -0.0011687906
    8    6    1    7        0.0004915943
    8    6    1    8        0.0003627157
    8    7    1    1        0.1088944727
    8    7    1    2       -0.0014310221
    8    7    1    4       -0.0000996913
    8    7    1    6       -0.0004609910
    8    8    1    1        0.4603670884
    8    8    1    2       -0.0012985080
    8    8    1    4        0.0001009612
    8    8    1    6       -0.0003459592
    8    1    2    3       -0.0094436454
    8    1    2    7        0.0031228920
    8    1    2    8        0.0024431604
    8    2    2    3       -0.0075595116
    8    2    2    7        0.0098855255
    8    2    2    8        0.0238620873
    8    3    2    1        0.0021599501
    8    3    2    2       -0.0261111823
    8    3    2    4        0.0481148747
    8    3    2    6       -0.0095455249
    8    4    2    3        0.0531538962
    8    4    2    7       -0.0079963375
    8    4    2    8        0.0023149131
    8    6    2    3       -0.0081897389
    8    6    2    7       -0.0009380475
    8    6    2    8       -0.0115116254
    8    7    2    1       -0.0014584347
    8    7    2    2        0.0735095367
    8    7    2    4       -0.0001078674
    8    7    2    6        0.0065879173
    8    8    2    1       -0.0012985080
    8    8    2    2        0.4289841628
    8    8    2    4        0.0081030201
    8    8    2    6        0.0136192839
    8    1    3    1       -0.0080802843
    8    1    3    2       -0.0091541112
    8    1    3    4        0.0018918727
    8    1    3    6       -0.0013748398
    8    2    3    1       -0.0058197467
    8    2    3    2       -0.0067289902
    8    2    3    4        0.0239060504
    8    2    3    6       -0.0069422883
    8    3    3    3       -0.0123554942
    8    3    3    7        0.0242160089
    8    3    3    8        0.0548092825
    8    4    3    1        0.0067260892
    8    4    3    2        0.0563302263
    8    4    3    4        0.0028076566
    8    4    3    6       -0.0114482095
    8    5    3    5       -0.0093764071
    8    6    3    1       -0.0010571294
    8    6    3    2       -0.0077984766
    8    6    3    4       -0.0112722612
    8    6    3    6        0.0011456041
    8    7    3    3        0.0725610998
    8    7    3    7       -0.0101809561
    8    7    3    8        0.0052999220
    8    8    3    3        0.4338584360
    8    8    3    7       -0.0235195149
    8    8    3    8        0.0177677086
    8    1    4    3        0.0019077967
    8    1    4    7       -0.0013705269
    8    1    4    8       -0.0027844078
    8    2    4    3        0.0235142007
    8    2    4    7       -0.0025205184
    8    2    4    8        0.0023149131
    8    3    4    1        0.0043271016
    8    3    4    2        0.0509371453
    8    3    4    4       -0.0411840629
    8    3    4    6       -0.0145834161
    8    4    4    3        0.0013529892
    8    4    4    7        0.0142987426
    8    4    4    8        0.0415660057
    8    6    4    3       -0.0112696914
    8    6    4    7       -0.0025121992
    8    6    4    8       -0.0054428243
    8    7    4    1       -0.0002059956
    8    7    4    2       -0.0004294195
    8    7    4    4        0.0703969451
    8    7    4    6       -0.0007220160
    8    8    4    1        0.0001009612
    8    8    4    2        0.0081030201
    8    8    4    4        0.4175528857
    8    8    4    6        0.0053081422
    8    3    5    5       -0.0437598867
    8    5    5    3       -0.0093518525
    8    5    5    7        0.0037993183
    8    5    5    8        0.0075736659
    8    7    5    5        0.0657167066
    8    8    5    5        0.4009421670
    8    1    6    3       -0.0017692201
    8    1    6    7        0.0014109505
    8    1    6    8        0.0003627157
    8    2    6    3       -0.0101661119
    8    2    6    7       -0.0060162387
    8    2    6    8       -0.0115116254
    8    3    6    1        0.0013518557
    8    3    6    2       -0.0116921525
    8    3    6    4       -0.0148518346
    8    3    6    6        0.0128655238
    8    4    6    3       -0.0125644485
    8    4    6    7       -0.0256341135
    8    4    6    8       -0.0054428243
    8    6    6    3        0.0007071434
    8    6    6    7        0.0004389953
    8    6    6    8        0.0179521175
    8    7    6    1       -0.0004745009
    8    7    6    2        0.0066836633
    8    7    6    4       -0.0000477559
    8    7    6    6        0.0253817121
    8    8    6    1       -0.0003459592
    8    8    6    2        0.0136192839
    8    8    6    4        0.0053081422
    8    8    6    6        0.2854281588
    8    1    7    1        0.0040030191
    8    1    7    2        0.0034041114
    8    1    7    4       -0.0014247634
    8    1    7    6        0.0014058266
    8    2    7    1        0.0029580272
    8    2    7    2        0.0114495465
    8    2    7    4       -0.0032620914
    8    2    7    6       -0.0061551161
    8    3    7    3        0.0247033201
    8    3    7    7        0.0085453870
    8    3    7    8        0.0052999220
    8    4    7    1       -0.0030988554
    8    4    7    2       -0.0084166707
    8    4    7    4        0.0147943519
    8    4    7    6       -0.0260404803
    8    5    7    5        0.0044860165
    8    6    7    1        0.0004746329
    8    6    7    2       -0.0008953495
    8    6    7    4       -0.0021548842
    8    6    7    6        0.0004490562
    8    7    7    3       -0.0103513092
    8    7    7    7        0.0206009546
    8    7    7    8        0.0195589030
    8    8    7    3       -0.0235195149
    8    8    7    7        0.2673176338
    8    8    7    8        0.0459267743
    8    1    8    1        0.0033996639
    8    1    8    2        0.0027398768
    8    1    8    4       -0.0027560304
    8    1    8    6        0.0003667305
    8    2    8    1        0.0027398768
    8    2    8    2        0.0261354238
    8    2    8    4        0.0029861054
    8    2    8    6       -0.0106597006
    8    3    8    3        0.0556243982
    8    3    8    7        0.0041446127
    8    3    8    8        0.0177677086
    8    4    8    1       -0.0027560304
    8    4    8    2        0.0029861054
    8    4    8    4        0.0409667891
    8    4    8    6       -0.0047105001
    8    5    8    5        0.0070762420
    8    6    8    1        0.0003667305
    8    6    8    2       -0.0106597006
    8    6    8    4       -0.0047105001
    8    6    8    6        0.0179341380
    8    7    8    3        0.0041446127
    8    7    8    7        0.0195070246
    8    7    8    8        0.0459267743
    8    8    8    3        0.0177677086
    8    8    8    7        0.0459267743
    8    8    8    8        0.3731627736
 end_two_electron_integrals

 Task  times  cpu:      684.8s     wall:      684.8s
 
 
                                NWChem Input Module
                                -------------------
 
 
 Summary of allocated global arrays
-----------------------------------
  No active global arrays


MA_summarize_allocated_blocks: starting scan ...
MA_summarize_allocated_blocks: scan completed: 0 heap blocks, 0 stack blocks
MA usage statistics:

	allocation statistics:
					      heap	     stack
					      ----	     -----
	current number of blocks	         0	         0
	maximum number of blocks	        16	        42
	current total bytes		         0	         0
	maximum total bytes		     80104	4725685704
	maximum total K-bytes		        81	   4725686
	maximum total M-bytes		         1	      4726
 
 
                                     CITATION
                                     --------
                Please cite the following reference when publishing
                           results obtained with NWChem:
 
          E. Apra, E. J. Bylaska, W. A. de Jong, N. Govind, K. Kowalski,
       T. P. Straatsma, M. Valiev, H. J. J. van Dam, Y. Alexeev, J. Anchell,
       V. Anisimov, F. W. Aquino, R. Atta-Fynn, J. Autschbach, N. P. Bauman,
     J. C. Becca, D. E. Bernholdt, K. Bhaskaran-Nair, S. Bogatko, P. Borowski,
         J. Boschen, J. Brabec, A. Bruner, E. Cauet, Y. Chen, G. N. Chuev,
      C. J. Cramer, J. Daily, M. J. O. Deegan, T. H. Dunning Jr., M. Dupuis,
   K. G. Dyall, G. I. Fann, S. A. Fischer, A. Fonari, H. Fruchtl, L. Gagliardi,
      J. Garza, N. Gawande, S. Ghosh, K. Glaesemann, A. W. Gotz, J. Hammond,
       V. Helms, E. D. Hermes, K. Hirao, S. Hirata, M. Jacquelin, L. Jensen,
   B. G. Johnson, H. Jonsson, R. A. Kendall, M. Klemm, R. Kobayashi, V. Konkov,
      S. Krishnamoorthy, M. Krishnan, Z. Lin, R. D. Lins, R. J. Littlefield,
      A. J. Logsdail, K. Lopata, W. Ma, A. V. Marenich, J. Martin del Campo,
   D. Mejia-Rodriguez, J. E. Moore, J. M. Mullin, T. Nakajima, D. R. Nascimento,
    J. A. Nichols, P. J. Nichols, J. Nieplocha, A. Otero-de-la-Roza, B. Palmer,
    A. Panyala, T. Pirojsirikul, B. Peng, R. Peverati, J. Pittner, L. Pollack,
   R. M. Richard, P. Sadayappan, G. C. Schatz, W. A. Shelton, D. W. Silverstein,
   D. M. A. Smith, T. A. Soares, D. Song, M. Swart, H. L. Taylor, G. S. Thomas,
            V. Tipparaju, D. G. Truhlar, K. Tsemekhman, T. Van Voorhis,
      A. Vazquez-Mayagoitia, P. Verma, O. Villa, A. Vishnu, K. D. Vogiatzis,
        D. Wang, J. H. Weare, M. J. Williamson, T. L. Windus, K. Wolinski,
        A. T. Wong, Q. Wu, C. Yang, Q. Yu, M. Zacharias, Z. Zhang, Y. Zhao,
                                and R. J. Harrison
                        "NWChem: Past, present, and future
                         J. Chem. Phys. 152, 184102 (2020)
                               doi:10.1063/5.0004997
 
                                      AUTHORS
                                      -------
  E. Apra, E. J. Bylaska, N. Govind, K. Kowalski, M. Valiev, D. Mejia-Rodriguez,
       A. Kunitsa, N. P. Bauman, A. Panyala, W. A. de Jong, T. P. Straatsma,
   H. J. J. van Dam, D. Wang, T. L. Windus, J. Hammond, J. Autschbach, A. Woods,
    K. Bhaskaran-Nair, J. Brabec, K. Lopata, S. A. Fischer, S. Krishnamoorthy,
     M. Jacquelin, W. Ma, M. Klemm, O. Villa, Y. Chen, V. Anisimov, F. Aquino,
     S. Hirata, M. T. Hackler, E. Hermes, L. Jensen, J. E. Moore, J. C. Becca,
      V. Konjkov, T. Risthaus, M. Malagoli, A. Marenich, A. Otero-de-la-Roza,
        J. Mullin, P. Nichols, R. Peverati, J. Pittner, Y. Zhao, P.-D. Fan,
        A. Fonari, M. J. Williamson, R. J. Harrison, J. R. Rehr, M. Dupuis,
     D. Silverstein, D. M. A. Smith, J. Nieplocha, V. Tipparaju, M. Krishnan,
     B. E. Van Kuiken, A. Vazquez-Mayagoitia, M. Swart, Q. Wu, T. Van Voorhis,
     A. A. Auer, M. Nooijen, L. D. Crosby, E. Brown, G. Cisneros, G. I. Fann,
   H. Fruchtl, J. Garza, K. Hirao, R. A. Kendall, J. A. Nichols, K. Tsemekhman,
    K. Wolinski, J. Anchell, D. E. Bernholdt, P. Borowski, T. Clark, D. Clerc,
   H. Dachsel, M. J. O. Deegan, K. Dyall, D. Elwood, E. Glendening, M. Gutowski,
   A. C. Hess, J. Jaffe, B. G. Johnson, J. Ju, R. Kobayashi, R. Kutteh, Z. Lin,
   R. Littlefield, X. Long, B. Meng, T. Nakajima, S. Niu, L. Pollack, M. Rosing,
   K. Glaesemann, G. Sandrone, M. Stave, H. Taylor, G. Thomas, J. H. van Lenthe,
                               A. T. Wong, Z. Zhang.

 Total times  cpu:      685.2s     wall:      685.2s
