 argument  1 = input.nw
  NWChem w/ OpenMP: maximum threads =    1
 


============================== echo of input deck ==============================
 echo
 start H2O
 title "H2O"

 memory total 24 gb

 geometry units angstrom
 symmetry c1
   zmatrix
     O
     H1 O 0.97551
     H2 O 0.97551 H1 109.10
   end
 end

 basis spherical
   * library cc-pVTZ
 end

 tce
   2eorb
   2emet 13
   ccsd
   maxiter 300
 end

# set tce:print_integrals T
# set tce:qorb 8
# set tce:qela 5
# set tce:qelb 5

 set tce:qducc T
 set tce:nactv 3
 set tce:nonhf T
 set tce:ducc_model 6

 set tce:printtol 0.02

 task tce
================================================================================


                                         
                                         
 
 
             Northwest Computational Chemistry Package (NWChem) 7.2.3
             --------------------------------------------------------
 
 
                    Environmental Molecular Sciences Laboratory
                       Pacific Northwest National Laboratory
                                Richland, WA 99352
 
                              Copyright (c) 1994-2022
                       Pacific Northwest National Laboratory
                            Battelle Memorial Institute
 
             NWChem is an open-source computational chemistry package
                        distributed under the terms of the
                      Educational Community License (ECL) 2.0
             A copy of the license is included with this distribution
                              in the LICENSE.TXT file
 
                                  ACKNOWLEDGMENT
                                  --------------

            This software and its documentation were developed at the
            EMSL at Pacific Northwest National Laboratory, a multiprogram
            national laboratory, operated for the U.S. Department of Energy
            by Battelle under Contract Number DE-AC05-76RL01830. Support
            for this work was provided by the Department of Energy Office
            of Biological and Environmental Research, Office of Basic
            Energy Sciences, and the Office of Advanced Scientific Computing.


           Job information
           ---------------

    hostname        = koothan
    program         = /hpc/home/baum612/code/nwchem/bin/LINUX64/nwchem
    date            = Thu Nov 21 22:00:52 2024

    compiled        = Thu_Nov_21_17:16:59_2024
    source          = /hpc/home/baum612/code/nwchem
    nwchem branch   = 7.2.3
    nwchem revision = v7.2.0-beta1-1291-g6d839a76f0
    ga revision     = 5.8.0
    use scalapack   = T
    input           = input.nw
    prefix          = H2O.
    data base       = ./H2O.db
    status          = startup
    nproc           =        1
    time left       =     -1s



           Memory information
           ------------------

    heap     =    805306368 doubles =     6144.0 Mbytes
    stack    =    805306365 doubles =     6144.0 Mbytes
    global   =   1610612736 doubles =    12288.0 Mbytes (distinct from heap & stack)
    total    =   3221225469 doubles =    24576.0 Mbytes
    verify   = yes
    hardfail = no 


           Directory information
           ---------------------
 
  0 permanent = .
  0 scratch   = .
 
 
 
 
                                NWChem Input Module
                                -------------------
 
 
                                        H2O
                                        ---

 Scaling coordinates for geometry "geometry" by  1.889725989
 (inverse scale =  0.529177249)

 Turning off AUTOSYM since
 SYMMETRY directive was detected!
 
 
 
                             Geometry "geometry" -> ""
                             -------------------------
 
 Output coordinates in angstroms (scale by  1.889725989 to convert to a.u.)
 
  No.       Tag          Charge          X              Y              Z
 ---- ---------------- ---------- -------------- -------------- --------------
    1 O                    8.0000    -0.09218071     0.00000000    -0.06563057
    2 H1                   1.0000    -0.09218071     0.00000000     0.90987943
    3 H2                   1.0000     0.82962640     0.00000000    -0.38483490
 
      Atomic Mass 
      ----------- 
 
      O                 15.994910
      H1                 1.007825
      H2                 1.007825
 

 Effective nuclear repulsion energy (a.u.)       9.0123476532

            Nuclear Dipole moment (a.u.) 
            ----------------------------
        X                 Y               Z
 ---------------- ---------------- ----------------
     0.0000000000     0.0000000000     0.0000000000
 


                                Z-matrix (user)
                                -------- 

 Units are Angstrom for bonds and degrees for angles
 
      Type          Name      I     J     K     L     M      Value
      ----------- --------  ----- ----- ----- ----- ----- ----------
    1 Stretch                  2     1                       0.97551
    2 Stretch                  3     1                       0.97551
    3 Bend                     3     1     2               109.10000
 
 
            XYZ format geometry
            -------------------
     3
 geometry
 O                    -0.09218071     0.00000000    -0.06563057
 H1                   -0.09218071     0.00000000     0.90987943
 H2                    0.82962640     0.00000000    -0.38483490
 
 ==============================================================================
                                internuclear distances
 ------------------------------------------------------------------------------
       center one      |      center two      | atomic units |  angstroms
 ------------------------------------------------------------------------------
    2 H1               |   1 O                |     1.84345  |     0.97551
    3 H2               |   1 O                |     1.84345  |     0.97551
 ------------------------------------------------------------------------------
                         number of included internuclear distances:          2
 ==============================================================================



 ==============================================================================
                                 internuclear angles
 ------------------------------------------------------------------------------
        center 1       |       center 2       |       center 3       |  degrees
 ------------------------------------------------------------------------------
    2 H1               |   1 O                |   3 H2               |   109.10
 ------------------------------------------------------------------------------
                            number of included internuclear angles:          1
 ==============================================================================





 Summary of "ao basis" -> "" (spherical)
 ------------------------------------------------------------------------------
       Tag                 Description            Shells   Functions and Types
 ---------------- ------------------------------  ------  ---------------------
 *                          cc-pVTZ                   on all atoms 


                      Basis "ao basis" -> "ao basis" (spherical)
                      -----
  O (Oxygen)
  ----------
            Exponent  Coefficients 
       -------------- ---------------------------------------------------------
  1 S  1.53300000E+04  0.000508
  1 S  2.29900000E+03  0.003929
  1 S  5.22400000E+02  0.020243
  1 S  1.47300000E+02  0.079181
  1 S  4.75500000E+01  0.230687
  1 S  1.67600000E+01  0.433118
  1 S  6.20700000E+00  0.350260
  1 S  6.88200000E-01 -0.008154
 
  2 S  1.53300000E+04 -0.000115
  2 S  2.29900000E+03 -0.000895
  2 S  5.22400000E+02 -0.004636
  2 S  1.47300000E+02 -0.018724
  2 S  4.75500000E+01 -0.058463
  2 S  1.67600000E+01 -0.136463
  2 S  6.20700000E+00 -0.175740
  2 S  6.88200000E-01  0.603418
 
  3 S  1.75200000E+00  1.000000
 
  4 S  2.38400000E-01  1.000000
 
  5 P  3.44600000E+01  0.015928
  5 P  7.74900000E+00  0.099740
  5 P  2.28000000E+00  0.310492
 
  6 P  7.15600000E-01  1.000000
 
  7 P  2.14000000E-01  1.000000
 
  8 D  2.31400000E+00  1.000000
 
  9 D  6.45000000E-01  1.000000
 
 10 F  1.42800000E+00  1.000000
 
  H1 (Hydrogen)
  -------------
            Exponent  Coefficients 
       -------------- ---------------------------------------------------------
  1 S  3.38700000E+01  0.006068
  1 S  5.09500000E+00  0.045308
  1 S  1.15900000E+00  0.202822
 
  2 S  3.25800000E-01  1.000000
 
  3 S  1.02700000E-01  1.000000
 
  4 P  1.40700000E+00  1.000000
 
  5 P  3.88000000E-01  1.000000
 
  6 D  1.05700000E+00  1.000000
 
  H2 (Hydrogen)
  -------------
            Exponent  Coefficients 
       -------------- ---------------------------------------------------------
  1 S  3.38700000E+01  0.006068
  1 S  5.09500000E+00  0.045308
  1 S  1.15900000E+00  0.202822
 
  2 S  3.25800000E-01  1.000000
 
  3 S  1.02700000E-01  1.000000
 
  4 P  1.40700000E+00  1.000000
 
  5 P  3.88000000E-01  1.000000
 
  6 D  1.05700000E+00  1.000000
 


 Summary of "ao basis" -> "ao basis" (spherical)
 ------------------------------------------------------------------------------
       Tag                 Description            Shells   Functions and Types
 ---------------- ------------------------------  ------  ---------------------
 O                          cc-pVTZ                 10       30   4s3p2d1f
 H1                         cc-pVTZ                  6       14   3s2p1d
 H2                         cc-pVTZ                  6       14   3s2p1d


                                 NWChem SCF Module
                                 -----------------
 
 
                                        H2O
 
 

  ao basis        = "ao basis"
  functions       =    58
  atoms           =     3
  closed shells   =     5
  open shells     =     0
  charge          =   0.00
  wavefunction    = RHF 
  input vectors   = atomic
  output vectors  = ./H2O.movecs
  use symmetry    = F
  symmetry adapt  = F


 Summary of "ao basis" -> "ao basis" (spherical)
 ------------------------------------------------------------------------------
       Tag                 Description            Shells   Functions and Types
 ---------------- ------------------------------  ------  ---------------------
 O                          cc-pVTZ                 10       30   4s3p2d1f
 H1                         cc-pVTZ                  6       14   3s2p1d
 H2                         cc-pVTZ                  6       14   3s2p1d



 Forming initial guess at       0.4s

 
      Superposition of Atomic Density Guess
      -------------------------------------
 
 Sum of atomic energies:         -75.78028790
 
      Non-variational initial energy
      ------------------------------

 Total energy =     -75.905594
 1-e energy   =    -121.463652
 2-e energy   =      36.545711
 HOMO         =      -0.472076
 LUMO         =       0.061638
 

 Starting SCF solution at       0.5s



 ----------------------------------------------
         Quadratically convergent ROHF

 Convergence threshold     :          1.000E-04
 Maximum no. of iterations :           30
 Final Fock-matrix accuracy:          1.000E-07
 ----------------------------------------------


              iter       energy          gnorm     gmax       time
             ----- ------------------- --------- --------- --------
                 1      -76.0202365402  8.44D-01  2.94D-01      0.7
                 2      -76.0525788165  1.96D-01  6.20D-02      1.2
                 3      -76.0547911759  1.60D-02  6.25D-03      1.8
                 4      -76.0548143503  6.64D-05  3.60D-05      2.8


       Final RHF  results 
       ------------------ 

         Total SCF energy =    -76.054814350252
      One-electron energy =   -122.807667942629
      Two-electron energy =     37.740505939177
 Nuclear repulsion energy =      9.012347653200

        Time for solution =      2.3s


             Final eigenvalues
             -----------------

              1      
    1  -20.5555
    2   -1.3331
    3   -0.7080
    4   -0.5653
    5   -0.5014
    6    0.1409
    7    0.2015
    8    0.5450
    9    0.5745
   10    0.6762
   11    0.7881
   12    0.8020
   13    0.8234
   14    0.8478
   15    0.9725
 
                       ROHF Final Molecular Orbital Analysis
                       -------------------------------------
 
 Vector    2  Occ=2.000000D+00  E=-1.333097D+00
              MO Center=  3.5D-02,  1.5D-16,  2.5D-02, r^2= 5.1D-01
   Bfn.  Coefficient  Atom+Function         Bfn.  Coefficient  Atom+Function  
  ----- ------------  ---------------      ----- ------------  ---------------
     2      0.507596  1 O  s                  4      0.291269  1 O  s          
 
 Vector    3  Occ=2.000000D+00  E=-7.080420D-01
              MO Center=  7.8D-02, -8.1D-17,  5.6D-02, r^2= 7.8D-01
   Bfn.  Coefficient  Atom+Function         Bfn.  Coefficient  Atom+Function  
  ----- ------------  ---------------      ----- ------------  ---------------
    10      0.276403  1 O  pz                 7      0.227679  1 O  pz         
    32      0.217375  2 H  s                 46     -0.217375  3 H  s          
     8     -0.196793  1 O  px                 5     -0.162102  1 O  px         
 
 Vector    4  Occ=2.000000D+00  E=-5.652678D-01
              MO Center= -1.2D-01, -4.5D-18, -8.6D-02, r^2= 7.1D-01
   Bfn.  Coefficient  Atom+Function         Bfn.  Coefficient  Atom+Function  
  ----- ------------  ---------------      ----- ------------  ---------------
     8      0.315200  1 O  px                 4     -0.261148  1 O  s          
     5      0.256550  1 O  px                11      0.235536  1 O  px         
    10      0.224415  1 O  pz                 7      0.182658  1 O  pz         
     2     -0.169033  1 O  s                 13      0.167696  1 O  pz         
 
 Vector    5  Occ=2.000000D+00  E=-5.014084D-01
              MO Center= -6.6D-02, -5.5D-16, -4.7D-02, r^2= 6.4D-01
   Bfn.  Coefficient  Atom+Function         Bfn.  Coefficient  Atom+Function  
  ----- ------------  ---------------      ----- ------------  ---------------
     9      0.444306  1 O  py                12      0.378049  1 O  py         
     6      0.357173  1 O  py         
 
 Vector    6  Occ=0.000000D+00  E= 1.409252D-01
              MO Center=  4.8D-01,  1.7D-16,  3.4D-01, r^2= 3.8D+00
   Bfn.  Coefficient  Atom+Function         Bfn.  Coefficient  Atom+Function  
  ----- ------------  ---------------      ----- ------------  ---------------
     4      1.523448  1 O  s                 33     -0.915677  2 H  s          
    47     -0.915677  3 H  s                 11      0.365812  1 O  px         
    32     -0.278789  2 H  s                 46     -0.278789  3 H  s          
    13      0.260450  1 O  pz                39      0.177340  2 H  pz         
    51      0.166238  3 H  px                 8      0.153777  1 O  px         
 
 Vector    7  Occ=0.000000D+00  E= 2.014677D-01
              MO Center=  5.5D-01,  3.1D-16,  3.9D-01, r^2= 4.7D+00
   Bfn.  Coefficient  Atom+Function         Bfn.  Coefficient  Atom+Function  
  ----- ------------  ---------------      ----- ------------  ---------------
    33      1.699822  2 H  s                 47     -1.699822  3 H  s          
    13     -0.694784  1 O  pz                11      0.494670  1 O  px         
    10     -0.165592  1 O  pz                39     -0.166079  2 H  pz         
    51      0.160051  3 H  px         
 
 Vector    8  Occ=0.000000D+00  E= 5.450377D-01
              MO Center=  3.9D-02,  4.6D-17,  2.8D-02, r^2= 2.3D+00
   Bfn.  Coefficient  Atom+Function         Bfn.  Coefficient  Atom+Function  
  ----- ------------  ---------------      ----- ------------  ---------------
    32      1.512476  2 H  s                 46     -1.512476  3 H  s          
    13     -0.981318  1 O  pz                11      0.698676  1 O  px         
    33     -0.611372  2 H  s                 47      0.611372  3 H  s          
    10     -0.219937  1 O  pz                 8      0.156590  1 O  px         
 
 Vector    9  Occ=0.000000D+00  E= 5.745003D-01
              MO Center=  4.3D-01,  1.4D-16,  3.0D-01, r^2= 2.1D+00
   Bfn.  Coefficient  Atom+Function         Bfn.  Coefficient  Atom+Function  
  ----- ------------  ---------------      ----- ------------  ---------------
    32      1.247544  2 H  s                 46      1.247544  3 H  s          
    33     -0.605392  2 H  s                 47     -0.605392  3 H  s          
     4     -0.438563  1 O  s                 11     -0.378931  1 O  px         
    13     -0.269790  1 O  pz                53     -0.235693  3 H  pz         
    37     -0.193428  2 H  px                 2     -0.187036  1 O  s          
 
 Vector   10  Occ=0.000000D+00  E= 6.761627D-01
              MO Center= -2.5D-01,  6.8D-16, -1.8D-01, r^2= 2.3D+00
   Bfn.  Coefficient  Atom+Function         Bfn.  Coefficient  Atom+Function  
  ----- ------------  ---------------      ----- ------------  ---------------
     4      4.454186  1 O  s                 32     -2.209437  2 H  s          
    46     -2.209437  3 H  s                 11      2.069611  1 O  px         
    13      1.473516  1 O  pz                39      1.133193  2 H  pz         
    51      1.042480  3 H  px                33     -0.450360  2 H  s          
    47     -0.450360  3 H  s                 53     -0.452612  3 H  pz         
 
 Vector   11  Occ=0.000000D+00  E= 7.881052D-01
              MO Center= -5.8D-02, -6.0D-16, -4.1D-02, r^2= 1.7D+00
   Bfn.  Coefficient  Atom+Function         Bfn.  Coefficient  Atom+Function  
  ----- ------------  ---------------      ----- ------------  ---------------
    12      1.139491  1 O  py                 9     -0.775466  1 O  py         
     6     -0.259251  1 O  py         
 
 Vector   12  Occ=0.000000D+00  E= 8.020477D-01
              MO Center= -6.6D-02, -1.1D-15, -4.7D-02, r^2= 3.0D+00
   Bfn.  Coefficient  Atom+Function         Bfn.  Coefficient  Atom+Function  
  ----- ------------  ---------------      ----- ------------  ---------------
    13      2.437288  1 O  pz                11     -1.735293  1 O  px         
    32     -1.579278  2 H  s                 46      1.579278  3 H  s          
    33     -1.414793  2 H  s                 47      1.414793  3 H  s          
    39      1.145323  2 H  pz                51     -1.088662  3 H  px         
    21      0.358744  1 O  d  0              53      0.356317  3 H  pz         
 
 Vector   13  Occ=0.000000D+00  E= 8.233666D-01
              MO Center=  1.1D-01,  3.6D-16,  7.8D-02, r^2= 2.1D+00
   Bfn.  Coefficient  Atom+Function         Bfn.  Coefficient  Atom+Function  
  ----- ------------  ---------------      ----- ------------  ---------------
    11      1.157283  1 O  px                32     -1.018128  2 H  s          
    46     -1.018128  3 H  s                 37     -0.900012  2 H  px         
    53     -0.865110  3 H  pz                13      0.823959  1 O  pz         
     4      0.711229  1 O  s                 33      0.262306  2 H  s          
    47      0.262306  3 H  s                 51     -0.252208  3 H  px         
 
 Vector   14  Occ=0.000000D+00  E= 8.478223D-01
              MO Center=  3.6D-01,  1.5D-15,  2.6D-01, r^2= 1.7D+00
   Bfn.  Coefficient  Atom+Function         Bfn.  Coefficient  Atom+Function  
  ----- ------------  ---------------      ----- ------------  ---------------
    38      0.831168  2 H  py                52     -0.831168  3 H  py         
 
 Vector   15  Occ=0.000000D+00  E= 9.725225D-01
              MO Center=  1.6D-01,  1.6D-15,  1.1D-01, r^2= 2.0D+00
   Bfn.  Coefficient  Atom+Function         Bfn.  Coefficient  Atom+Function  
  ----- ------------  ---------------      ----- ------------  ---------------
    12      1.161522  1 O  py                38     -1.006069  2 H  py         
    52     -1.006069  3 H  py         
 

 center of mass
 --------------
 x =  -0.07672049 y =   0.00000000 z =  -0.05462324

 moments of inertia (a.u.)
 ------------------
           3.704848287856           0.000000000000           1.180828611154
           0.000000000000           6.591899439328           0.000000000000
           1.180828611154           0.000000000000           2.887051151471
 
  Mulliken analysis of the total density
  --------------------------------------

    Atom       Charge   Shell Charges
 -----------   ------   -------------------------------------------------------
    1 O    8     8.51   1.95  1.00  0.23  0.60  1.26  2.14  1.30  0.00  0.02  0.00
    2 H    1     0.75   0.25  0.37  0.04  0.02  0.06  0.01
    3 H    1     0.75   0.25  0.37  0.04  0.02  0.06  0.01
 
       Multipole analysis of the density wrt the origin
       ------------------------------------------------
 
     L   x y z        total         open         nuclear
     -   - - -        -----         ----         -------
     0   0 0 0     -0.000000      0.000000     10.000000
 
     1   1 0 0      0.629393      0.000000      0.000000
     1   0 1 0      0.000000      0.000000      0.000000
     1   0 0 1      0.448114      0.000000      0.000000
 
     2   2 0 0     -4.034248      0.000000      2.730991
     2   1 1 0      0.000000      0.000000      0.000000
     2   1 0 1     -0.804314      0.000000     -1.266812
     2   0 2 0     -5.457615      0.000000      0.000000
     2   0 1 1     -0.000000      0.000000      0.000000
     2   0 0 2     -3.477211      0.000000      3.608337
 
                   NWChem Extensible Many-Electron Theory Module
                   ---------------------------------------------
 
              ======================================================
                   This portion of the program was automatically
                  generated by a Tensor Contraction Engine (TCE).
                  The development of this portion of the program
                 and TCE was supported by US Department of Energy,
                Office of Science, Office of Basic Energy Science.
                      TCE is a product of Battelle and PNNL.
              Please cite: S.Hirata, J.Phys.Chem.A 107, 9887 (2003).
              ======================================================
 
                                        H2O
 
 
            General Information
            -------------------
      Number of processors :     1
         Wavefunction type : Restricted Hartree-Fock
          No. of electrons :    10
           Alpha electrons :     5
            Beta electrons :     5
           No. of orbitals :   116
            Alpha orbitals :    58
             Beta orbitals :    58
        Alpha frozen cores :     0
         Beta frozen cores :     0
     Alpha frozen virtuals :     0
      Beta frozen virtuals :     0
         Spin multiplicity : singlet 
    Number of AO functions :    58
       Number of AO shells :    22
        Use of symmetry is : off
      Symmetry adaption is : off
         Schwarz screening : 0.10D-09
 
          Correlation Information
          -----------------------
          Calculation type : Coupled-cluster singles & doubles                           
   Perturbative correction : none                                                        
            Max iterations :      300
        Residual threshold : 0.10D-06
     T(0) DIIS level shift : 0.00D+00
     L(0) DIIS level shift : 0.00D+00
     T(1) DIIS level shift : 0.00D+00
     L(1) DIIS level shift : 0.00D+00
     T(R) DIIS level shift : 0.00D+00
     T(I) DIIS level shift : 0.00D+00
   CC-T/L Amplitude update :  5-th order DIIS
                I/O scheme : Global Array Library
        L-threshold :  0.10D-06
        EOM-threshold :  0.10D-06
 no EOMCCSD initial starts read in
 TCE RESTART OPTIONS
 READ_INT:   F
 WRITE_INT:  F
 READ_TA:    F
 WRITE_TA:   F
 READ_XA:    F
 WRITE_XA:   F
 READ_IN3:   F
 WRITE_IN3:  F
 SLICE:      F
 D4D5:       F
 quantumc:   F
 qrotation:  F
 pwtce:      F
 qducc:      T
 nacto:                          0
 nrotv:                          0
 nrot:                           0
 
            Memory Information
            ------------------
          Available GA space size is    1610609372 doubles
          Available MA space size is    1610609756 doubles
 
 Maximum block size        32 doubles

 tile_dim =     27

 Block   Spin    Irrep     Size     Offset   Alpha
 -------------------------------------------------
   1    alpha     a      5 doubles       0       1
   2    beta      a      5 doubles       5       1
   3    alpha     a     26 doubles      10       3
   4    alpha     a     27 doubles      36       4
   5    beta      a     26 doubles      63       3
   6    beta      a     27 doubles      89       4

 Global array virtual files algorithm will be used

 Parallel file system coherency ......... OK
 
 Fock matrix recomputed
 1-e file size   =             3364
 1-e file name   = ./H2O.f1
 Cpu & wall time / sec            0.2            0.2
 4-electron integrals stored in orbital form
 
 v2    file size   =          3631290
 4-index algorithm nr.  13 is used
 imaxsize =       30
 imaxsize ichop =        0
 Cpu & wall time / sec            1.4            1.4
 T1-number-of-tasks                     2
 
 t1 file size   =              265
 t1 file name   = ./H2O.t1
 t1 file handle =       -998
 T2-number-of-boxes                     7
 
 t2 file size   =           122900
 t2 file name   = ./H2O.t2
 t2 file handle =       -996
CCSD iterations
 ---------------------------------------------------------
 Iter          Residuum       Correlation     Cpu    Wall 
 ---------------------------------------------------------
NEW TASK SCHEDULING
CCSD_T1_NTS --- OK
CCSD_T2_NTS --- OK
    1   0.1388276732330  -0.2758967468510     0.2     0.2
    2   0.0305723440782  -0.2770280505836     0.2     0.2
    3   0.0103981079645  -0.2807741213833     0.2     0.2
    4   0.0041247968001  -0.2812055375192     0.2     0.2
    5   0.0017178441617  -0.2814720484162     0.2     0.2
 MICROCYCLE DIIS UPDATE:                     5                     5
    6   0.0003436243624  -0.2815958538232     0.2     0.2
    7   0.0001414088263  -0.2816084619187     0.2     0.2
    8   0.0000568683277  -0.2816078155304     0.2     0.2
    9   0.0000325174596  -0.2816080271326     0.2     0.2
   10   0.0000167074815  -0.2816083009877     0.2     0.2
 MICROCYCLE DIIS UPDATE:                    10                     5
   11   0.0000031316161  -0.2816088380047     0.2     0.2
   12   0.0000013790405  -0.2816086230808     0.2     0.2
   13   0.0000006427483  -0.2816086460297     0.2     0.2
   14   0.0000003753386  -0.2816086337685     0.3     0.3
   15   0.0000002031345  -0.2816086321801     0.2     0.2
 MICROCYCLE DIIS UPDATE:                    15                     5
   16   0.0000000355971  -0.2816086271986     0.3     0.3
 -----------------------------------------------------------------
 Iterations converged
 CCSD correlation energy / hartree =        -0.281608627198646
 CCSD total energy / hartree       =       -76.336422977450184

 Singles contributions

 Doubles contributions
     7a   (alpha)     7a   (beta ) ---     3a   (alpha)     3a   (beta )       -0.0200106392
     8a   (alpha)     8a   (beta ) ---     3a   (alpha)     3a   (beta )       -0.0272040634
     8a   (alpha)     8a   (beta ) ---     4a   (alpha)     4a   (beta )       -0.0220894493
     9a   (alpha)     9a   (beta ) ---     3a   (alpha)     3a   (beta )       -0.0273355717
    10a   (alpha)    10a   (beta ) ---     4a   (alpha)     4a   (beta )       -0.0307618445
    10a   (alpha)    11a   (beta ) ---     4a   (alpha)     5a   (beta )       -0.0264914297
    11a   (alpha)    10a   (beta ) ---     5a   (alpha)     4a   (beta )       -0.0264914297
    11a   (alpha)    11a   (beta ) ---     5a   (alpha)     5a   (beta )       -0.0478494239
    11a   (alpha)    12a   (beta ) ---     5a   (alpha)     3a   (beta )       -0.0221490191
    12a   (alpha)    11a   (beta ) ---     3a   (alpha)     5a   (beta )       -0.0221490191
    12a   (alpha)    12a   (beta ) ---     3a   (alpha)     3a   (beta )       -0.0224443896
 Ground state specification:
 exp(T)|Ref>~(1+T)|Ref>
 ------- a(p)+/a(q) strings ----------

 singles norm

 doubles norm

 Reference string
   1.00000000000000      :(1a)+ (2a)+ (3a)+ (4a)+ (5a)+ (1b)+ (2b)+ (3b)+ (4b)+ 
 (5b)+ |0>

 Singles strings

 Doubles strings
 -------------------------------------
 enrep_tce =    9.01234765320041     
  EHF(total)         =       -76.05481435
  Shift (HFtot-HFA)  =         0.00000000
 ALL OCCUPIED ORBITALS ARE ACTIVE IN DUCC --> NO SHIFT
 Number of active orbitals                     8
 Number of active alpha electrons                     5
 Number of active beta electrons                     5
  nos                     10
  nvs                    106
 noas                      5
 nobs                      5
 nvas                     53
 nvbs                     53
 nactv                      3
 DUCC MODEL =                      6
 NONHF =  T
 F-T1 correlation    =   1.075402239868414E-007
 V-T1-T1 correlation =   3.378952967988627E-005
 V-T2 correlation    =  -0.281642524268513     
 Total correlation   =  -0.281608627198610     
 F-T1(Ext) correlation         =   1.225467363927272E-007
 V-T1(Ext)-T1(Ext) correlation =   3.142858162995863E-005
 V-T2(Ext) correlation         =  -0.273876798143318     
 Total Ext correlation         =  -0.273845247014951     
1-BODY TIME =  290.962 SECONDS.
  HHHH TIME =  273.160 SECONDS.
  PPPP TIME =    3.011 SECONDS.
  HHHP TIME =   24.586 SECONDS.
  PPPH TIME =    5.991 SECONDS.
  HPHP TIME =   20.823 SECONDS.
  HHPP TIME =   12.809 SECONDS.
 ONE-BODY UNITARY CHECK
 TWO-BODY UNITARY CHECK
                     1                     3                     2
                     3 -1.311041553098136E-012
                     1                     3                     3
                     2  2.206498872503460E-012
                     1                     4                     2
                     4 -1.303721020029514E-012
                     1                     4                     4
                     2  1.611204225593355E-012
                     1                     5                     2
                     5 -1.095824819774549E-012
                     1                     6                     3
                     8  1.483122652468083E-012
                     1                     6                     5
                    10 -2.245256064403733E-012
                     1                     6                     7
                     4 -1.036629115880316E-012
                     1                     6                     8
                     3 -1.483150408043699E-012
                     1                     6                    10
                     5  2.245256064403733E-012
                     1                     7                     2
                     7 -1.562963300449915E-012
                     1                     7                     5
                    10 -2.573840446329356E-012
                     1                     7                     7
                     2  1.767235663363564E-012
                     1                     7                     9
                     4  1.107915842402107E-012
                     1                     7                    10
                     5  3.076500859622300E-012
                     1                     8                     2
                     8 -2.583754390994564E-012
                     1                     8                     3
                     7 -1.098534457844025E-012
                     1                     8                     7
                     3  1.272613958658297E-012
                     1                     8                     8
                     2  3.305139148479519E-012
                     1                     9                     2
                     9 -2.525398293262704E-012
                     1                     9                     3
                     8 -1.479713053476051E-012
                     1                     9                     7
                     2  1.097422500095924E-012
                     1                     9                     7
                     4  1.221679007956666E-012
                     1                     9                     8
                     3  1.601271632650780E-012
                     1                     9                     9
                     2  2.537190943452394E-012
                     1                    10                     2
                    10 -2.092300291356430E-012
                     1                    10                     5
                     7 -2.126517711920073E-012
                     1                    10                    10
                     2  2.991967784637950E-012
                     2                     2                     2
                     4  6.125567925738914E-012
                     2                     2                     4
                     2 -6.125574500249831E-012
                     2                     3                     1
                     3  1.311041553098136E-012
                     2                     3                     3
                     2 -2.460143200266884E-012
                     2                     3                     3
                     4  1.715385038875139E-011
                     2                     3                     4
                     3 -1.286252701571122E-011
                     2                     4                     1
                     4  1.303721020029514E-012
                     2                     4                     2
                     2 -6.125567925738914E-012
                     2                     4                     3
                     3  3.035643970295932E-012
                     2                     4                     4
                     2  1.498579038639036E-012
                     2                     4                     4
                     4  3.003779702400242E-012
                     2                     5                     1
                     5  1.095824819774549E-012
                     2                     5                     4
                     5 -1.271445535661053E-011
                     2                     5                     5
                     2  1.524702586408466E-011
                     2                     5                     5
                     4  1.957104096839135E-011
                     2                     6                     4
                     9 -1.337048527449980E-012
                     2                     6                     5
                    10 -2.664490156290000E-012
                     2                     6                    10
                     5  2.161829742997057E-012
                     2                     7                     1
                     7  1.562963300449915E-012
                     2                     7                     2
                     9  2.357627981730559E-012
                     2                     7                     3
                     8 -4.296146771665121E-012
                     2                     7                     4
                     6  1.092013632297828E-012
                     2                     7                     4
                     7 -9.259450844956163E-012
                     2                     7                     4
                     9 -9.122827493435182E-012
                     2                     7                     5
                    10 -4.470046555127283E-011
                     2                     7                     6
                     2 -1.767244336980944E-012
                     2                     7                     6
                     4 -1.097411224393330E-012
                     2                     7                     7
                     4  3.768020617744838E-012
                     2                     7                     8
                     3  4.296146771665121E-012
                     2                     7                     9
                     2  3.133767551011246E-012
                     2                     7                     9
                     4  9.122827493435182E-012
                     2                     7                    10
                     5  4.470046555127283E-011
                     2                     8                     1
                     8  2.583754390994564E-012
                     2                     8                     3
                     7 -3.110928181726536E-012
                     2                     8                     3
                     9 -7.188857148454630E-012
                     2                     8                     4
                     8 -1.896170200021974E-011
                     2                     8                     6
                     3 -1.272638244786961E-012
                     2                     8                     8
                     4  2.434283330465803E-011
                     2                     8                     9
                     3  6.099063962206053E-012
                     2                     9                     1
                     9  2.525398293262704E-012
                     2                     9                     2
                     7 -2.357627981730559E-012
                     2                     9                     3
                     8 -1.199075908009384E-011
                     2                     9                     4
                     7 -5.149616844057903E-012
                     2                     9                     4
                     9 -2.873479232334830E-011
                     2                     9                     5
                    10 -3.644327895013788E-012
                     2                     9                     6
                     1  1.036584013069941E-012
                     2                     9                     6
                     4 -1.221703294085330E-012
                     2                     9                     7
                     2 -3.767940820464943E-012
                     2                     9                     8
                     3  1.502636556849346E-011
                     2                     9                     9
                     2  6.647904449152975E-012
                     2                     9                     9
                     4  3.173816764956428E-011
                     2                     9                    10
                     5  3.990498903538864E-012
                     2                    10                     1
                    10  2.092300291356430E-012
                     2                    10                     4
                    10 -1.202390270682585E-011
                     2                    10                     5
                     6 -1.302676716496975E-012
                     2                    10                     5
                     7 -3.685232674577321E-011
                     2                    10                     5
                     9 -6.782269190708234E-012
                     2                    10                    10
                     2  5.210099018881920E-011
                     2                    10                    10
                     4  2.635396068040308E-011
                     3                     1                     3
                     2 -1.449826370070184E-012
                     3                     2                     1
                     3 -2.206498872503460E-012
                     3                     2                     2
                     3  2.460143200266884E-012
                     3                     2                     3
                     1  1.449826370070184E-012
                     3                     2                     3
                     4 -2.475279529956520E-012
                     3                     2                     4
                     3 -1.816046445168862E-012
                     3                     3                     2
                     4 -3.035643970295932E-012
                     3                     3                     4
                     2  3.035644870056680E-012
                     3                     4                     2
                     3 -1.715385038875139E-011
                     3                     4                     3
                     2  2.475279529956520E-012
                     3                     4                     4
                     3  2.148292654879924E-011
                     3                     5                     5
                     3  5.529698920980763E-011
                     3                     7                     1
                     8  1.098534457844025E-012
                     3                     7                     2
                     8  3.110928181726536E-012
                     3                     7                     3
                     9 -1.224888246387223E-012
                     3                     7                     4
                     8  2.340221766372608E-012
                     3                     7                     6
                     3 -3.305147822096899E-012
                     3                     7                     8
                     4 -1.250419906506650E-012
                     3                     7                     9
                     3 -4.156248262221496E-012
                     3                     8                     1
                     6 -1.483122652468083E-012
                     3                     8                     1
                     9  1.479713053476051E-012
                     3                     8                     2
                     7  4.296146771665121E-012
                     3                     8                     2
                     9  1.199075908009384E-011
                     3                     8                     4
                     6  1.623975259823496E-012
                     3                     8                     4
                     7  1.519808584538040E-011
                     3                     8                     4
                     9 -3.218099398072383E-012
                     3                     8                     5
                    10 -3.661724048975579E-011
                     3                     8                     6
                     1  1.483074080210756E-012
                     3                     8                     6
                     4 -1.601262959033400E-012
                     3                     8                     7
                     2 -4.296146771665121E-012
                     3                     8                     7
                     4 -1.502641414075079E-011
                     3                     8                     9
                     1 -1.502424920585277E-012
                     3                     8                     9
                     2 -1.216248282642773E-011
                     3                     8                     9
                     4  3.218071642496767E-012
                     3                     8                    10
                     5  3.661725089809664E-011
                     3                     9                     2
                     8  7.188857148454630E-012
                     3                     9                     3
                     7  1.224888246387223E-012
                     3                     9                     7
                     3 -2.434282116159370E-011
                     3                     9                     8
                     2  1.250510112127401E-012
                     3                     9                     9
                     3  2.235367446701275E-011
                     3                    10                     5
                     8 -2.566422074856689E-011
                     3                    10                    10
                     3  8.096123771395014E-011
                     4                     2                     1
                     4 -1.611204225593355E-012
                     4                     2                     2
                     2  6.125574500249831E-012
                     4                     2                     2
                     4 -1.498579038639036E-012
                     4                     2                     3
                     3 -3.035644870056680E-012
                     4                     2                     4
                     4 -3.003788888207858E-012
                     4                     3                     2
                     3  1.286252701571122E-011
                     4                     3                     3
                     2  1.816046445168862E-012
                     4                     3                     3
                     4 -2.148292654879924E-011
                     4                     4                     2
                     4 -3.003779702400242E-012
                     4                     4                     4
                     2  3.003788888207858E-012
                     4                     5                     2
                     5  1.271445535661053E-011
                     4                     5                     5
                     2  1.077764526929981E-011
                     4                     5                     5
                     4  4.240330309102092E-011
                     4                     6                     2
                     7 -1.092013632297828E-012
                     4                     6                     3
                     8 -1.623975259823496E-012
                     4                     6                     8
                     3  1.502416246967897E-012
                     4                     6                     9
                     4  1.138955249557760E-012
                     4                     7                     2
                     7  9.259450844956163E-012
                     4                     7                     2
                     9  5.149616844057903E-012
                     4                     7                     3
                     8 -1.519808584538040E-011
                     4                     7                     4
                     9  3.865630038291101E-012
                     4                     7                     5
                    10 -4.725855123899336E-012
                     4                     7                     6
                     4 -2.537199617069774E-012
                     4                     7                     7
                     2 -3.133887246931089E-012
                     4                     7                     7
                     4 -6.647904449152975E-012
                     4                     7                     8
                     3  1.216245160140517E-011
                     4                     7                     9
                     4 -6.869074753446114E-012
                     4                     7                    10
                     5  4.379691054268164E-012
                     4                     8                     2
                     8  1.896170200021974E-011
                     4                     8                     3
                     7 -2.340221766372608E-012
                     4                     8                     7
                     3 -6.099142024762472E-012
                     4                     8                     8
                     2  4.156249996944972E-012
                     4                     8                     8
                     4 -2.235367446701275E-011
                     4                     9                     2
                     6  1.337048527449980E-012
                     4                     9                     2
                     7  9.122827493435182E-012
                     4                     9                     2
                     9  2.873479232334830E-011
                     4                     9                     3
                     8  3.218099398072383E-012
                     4                     9                     4
                     7 -3.865630038291101E-012
                     4                     9                     5
                    10 -3.927103087164596E-011
                     4                     9                     6
                     2 -1.107905434061252E-012
                     4                     9                     7
                     2 -9.122827493435182E-012
                     4                     9                     7
                     4 -3.173822316071551E-011
                     4                     9                     8
                     3 -3.218113275860190E-012
                     4                     9                     9
                     1 -1.138885860618721E-012
                     4                     9                     9
                     2  6.869393942565694E-012
                     4                     9                    10
                     5  3.927105515777463E-011
                     4                    10                     2
                    10  1.202390270682585E-011
                     4                    10                     5
                     7 -4.491892968694344E-012
                     4                    10                     5
                     9 -2.000227761200790E-011
                     4                    10                    10
                     2  1.526889725766978E-011
                     4                    10                    10
                     4  6.240452599115542E-011
                     5                     2                     2
                     5 -1.524702586408466E-011
                     5                     2                     4
                     5 -1.077764526929981E-011
                     5                     2                     5
                     4  3.921068331136368E-012
                     5                     3                     3
                     5 -5.529698920980763E-011
                     5                     4                     2
                     5 -1.957104096839135E-011
                     5                     4                     4
                     5 -4.240330309102092E-011
                     5                     4                     5
                     2 -3.921068331136368E-012
                     5                     6                     2
                    10  1.302676716496975E-012
                     5                     7                     1
                    10  2.126517711920073E-012
                     5                     7                     2
                    10  3.685232674577321E-011
                     5                     7                     4
                    10  4.491892968694344E-012
                     5                     7                     6
                     5 -2.991964315190998E-012
                     5                     7                     7
                     5 -5.210099018881920E-011
                     5                     7                     9
                     5 -1.526893195213930E-011
                     5                     7                    10
                     4  2.981621893827224E-012
                     5                     8                     3
                    10  2.566422074856689E-011
                     5                     8                     8
                     5 -8.096123771395014E-011
                     5                     9                     2
                    10  6.782269190708234E-012
                     5                     9                     4
                    10  2.000227761200790E-011
                     5                     9                     7
                     5 -2.635389823035794E-011
                     5                     9                     9
                     5 -6.240452599115542E-011
                     5                     9                    10
                     2 -2.981632302168080E-012
                     5                    10                     1
                     6  2.245256064403733E-012
                     5                    10                     1
                     7  2.573840446329356E-012
                     5                    10                     2
                     6  2.664490156290000E-012
                     5                    10                     2
                     7  4.470046555127283E-011
                     5                    10                     2
                     9  3.644327895013788E-012
                     5                    10                     3
                     8  3.661724048975579E-011
                     5                    10                     4
                     7  4.725855123899336E-012
                     5                    10                     4
                     9  3.927103087164596E-011
                     5                    10                     6
                     1 -2.245256064403733E-012
                     5                    10                     6
                     2 -3.076521676304012E-012
                     5                    10                     7
                     1 -2.161808926315345E-012
                     5                    10                     7
                     2 -4.470046555127283E-011
                     5                    10                     7
                     4 -3.990564823030951E-012
                     5                    10                     8
                     3 -3.661730293980092E-011
                     5                    10                     9
                     2 -4.379625134776077E-012
                     5                    10                     9
                     4 -3.927104127998682E-011
                     6                     1                     2
                     9 -1.036584013069941E-012
                     6                     1                     3
                     8 -1.483074080210756E-012
                     6                     1                     5
                    10  2.245256064403733E-012
                     6                     1                     8
                     3  1.483101835786371E-012
                     6                     1                    10
                     5 -2.245256064403733E-012
                     6                     2                     2
                     7  1.767244336980944E-012
                     6                     2                     4
                     9  1.107905434061252E-012
                     6                     2                     5
                    10  3.076521676304012E-012
                     6                     2                     7
                     2 -1.562973708790771E-012
                     6                     2                    10
                     5 -2.573861263011068E-012
                     6                     3                     2
                     8  1.272638244786961E-012
                     6                     3                     3
                     7  3.305147822096899E-012
                     6                     3                     7
                     3 -2.583763064611944E-012
                     6                     3                     8
                     2 -1.098558743972688E-012
                     6                     4                     2
                     7  1.097411224393330E-012
                     6                     4                     2
                     9  1.221703294085330E-012
                     6                     4                     3
                     8  1.601262959033400E-012
                     6                     4                     4
                     7  2.537199617069774E-012
                     6                     4                     7
                     4 -2.525406966880084E-012
                     6                     4                     8
                     3 -1.479703946177802E-012
                     6                     5                     5
                     7  2.991964315190998E-012
                     6                     5                     7
                     5 -2.092296821909478E-012
                     6                     5                    10
                     2 -2.126528120260929E-012
                     6                     8                     7
                     8 -1.311045022545088E-012
                     6                     8                     8
                     7  2.206495403056508E-012
                     6                     9                     7
                     9 -1.303721020029514E-012
                     6                     9                     9
                     7  1.611204225593355E-012
                     6                    10                     7
                    10 -1.095824819774549E-012
                     7                     1                     5
                    10  2.161808926315345E-012
                     7                     1                     9
                     4 -1.337058935790836E-012
                     7                     1                    10
                     5 -2.664469339608289E-012
                     7                     2                     1
                     7 -1.767235663363564E-012
                     7                     2                     1
                     9 -1.097422500095924E-012
                     7                     2                     2
                     9  3.767940820464943E-012
                     7                     2                     3
                     8  4.296146771665121E-012
                     7                     2                     4
                     7  3.133887246931089E-012
                     7                     2                     4
                     9  9.122827493435182E-012
                     7                     2                     5
                    10  4.470046555127283E-011
                     7                     2                     6
                     2  1.562973708790771E-012
                     7                     2                     7
                     4  2.357534306662856E-012
                     7                     2                     8
                     3 -4.296146771665121E-012
                     7                     2                     9
                     1  1.092024908000422E-012
                     7                     2                     9
                     2 -9.259339822653700E-012
                     7                     2                     9
                     4 -9.122827493435182E-012
                     7                     2                    10
                     5 -4.470046555127283E-011
                     7                     3                     1
                     8 -1.272613958658297E-012
                     7                     3                     3
                     9  2.434282116159370E-011
                     7                     3                     4
                     8  6.099142024762472E-012
                     7                     3                     6
                     3  2.583763064611944E-012
                     7                     3                     8
                     2 -3.110650625970379E-012
                     7                     3                     8
                     4 -7.188943884628429E-012
                     7                     3                     9
                     3 -1.896168465298498E-011
                     7                     4                     1
                     6  1.036629115880316E-012
                     7                     4                     1
                     9 -1.221679007956666E-012
                     7                     4                     2
                     7 -3.768020617744838E-012
                     7                     4                     3
                     8  1.502641414075079E-011
                     7                     4                     4
                     7  6.647904449152975E-012
                     7                     4                     4
                     9  3.173822316071551E-011
                     7                     4                     5
                    10  3.990564823030951E-012
                     7                     4                     6
                     4  2.525406966880084E-012
                     7                     4                     7
                     2 -2.357534306662856E-012
                     7                     4                     8
                     3 -1.199079724401031E-011
                     7                     4                     9
                     2 -5.148964588030935E-012
                     7                     4                     9
                     4 -2.873486171228734E-011
                     7                     4                    10
                     5 -3.644386875611971E-012
                     7                     5                     5
                     7  5.210099018881920E-011
                     7                     5                     5
                     9  2.635389823035794E-011
                     7                     5                     6
                     5  2.092296821909478E-012
                     7                     5                     9
                     5 -1.202383331788681E-011
                     7                     5                    10
                     1 -1.302687124837831E-012
                     7                     5                    10
                     2 -3.685241001250006E-011
                     7                     5                    10
                     4 -6.782255312920427E-012
                     7                     7                     7
                     9  6.125564519095650E-012
                     7                     7                     9
                     7 -6.125576909281844E-012
                     7                     8                     6
                     8  1.311045022545088E-012
                     7                     8                     8
                     7 -2.466249426902323E-012
                     7                     8                     8
                     9  1.715384344985749E-011
                     7                     8                     9
                     8 -1.286252614834948E-011
                     7                     9                     6
                     9  1.303721020029514E-012
                     7                     9                     7
                     7 -6.125564519095650E-012
                     7                     9                     8
                     8  3.035644439600161E-012
                     7                     9                     9
                     7  1.498579038639036E-012
                     7                     9                     9
                     9  3.003769859788680E-012
                     7                    10                     6
                    10  1.095824819774549E-012
                     7                    10                     9
                    10 -1.271445362188706E-011
                     7                    10                    10
                     7  1.524702586408466E-011
                     7                    10                    10
                     9  1.957103923366788E-011
                     8                     2                     1
                     8 -3.305139148479519E-012
                     8                     2                     3
                     9 -1.250510112127401E-012
                     8                     2                     4
                     8 -4.156249996944972E-012
                     8                     2                     6
                     3  1.098558743972688E-012
                     8                     2                     7
                     3  3.110650625970379E-012
                     8                     2                     8
                     4 -1.224874368599416E-012
                     8                     2                     9
                     3  2.340303298375979E-012
                     8                     3                     1
                     6  1.483150408043699E-012
                     8                     3                     1
                     9 -1.601271632650780E-012
                     8                     3                     2
                     7 -4.296146771665121E-012
                     8                     3                     2
                     9 -1.502636556849346E-011
                     8                     3                     4
                     6 -1.502416246967897E-012
                     8                     3                     4
                     7 -1.216245160140517E-011
                     8                     3                     4
                     9  3.218113275860190E-012
                     8                     3                     5
                    10  3.661730293980092E-011
                     8                     3                     6
                     1 -1.483101835786371E-012
                     8                     3                     6
                     4  1.479703946177802E-012
                     8                     3                     7
                     2  4.296146771665121E-012
                     8                     3                     7
                     4  1.199079724401031E-011
                     8                     3                     9
                     1  1.623984367121745E-012
                     8                     3                     9
                     2  1.519814482597859E-011
                     8                     3                     9
                     4 -3.218078581390671E-012
                     8                     3                    10
                     5 -3.661731334814178E-011
                     8                     4                     2
                     8 -2.434283330465803E-011
                     8                     4                     3
                     7  1.250419906506650E-012
                     8                     4                     4
                     8  2.235367446701275E-011
                     8                     4                     7
                     3  7.188943884628429E-012
                     8                     4                     8
                     2  1.224874368599416E-012
                     8                     5                     5
                     8  8.096123771395014E-011
                     8                     5                    10
                     3 -2.566424156524860E-011
                     8                     6                     8
                     7 -1.449822900623232E-012
                     8                     7                     6
                     8 -2.206495403056508E-012
                     8                     7                     7
                     8  2.466249426902323E-012
                     8                     7                     8
                     6  1.449822900623232E-012
                     8                     7                     8
                     9 -2.475273458424354E-012
                     8                     7                     9
                     8 -1.816037771551482E-012
                     8                     8                     7
                     9 -3.035644439600161E-012
                     8                     8                     9
                     7  3.035647511153386E-012
                     8                     9                     7
                     8 -1.715384344985749E-011
                     8                     9                     8
                     7  2.475273458424354E-012
                     8                     9                     9
                     8  2.148292654879924E-011
                     8                    10                    10
                     8  5.529698920980763E-011
                     9                     1                     3
                     8  1.502424920585277E-012
                     9                     1                     4
                     9  1.138885860618721E-012
                     9                     1                     7
                     2 -1.092024908000422E-012
                     9                     1                     8
                     3 -1.623984367121745E-012
                     9                     2                     1
                     9 -2.537190943452394E-012
                     9                     2                     2
                     7 -3.133767551011246E-012
                     9                     2                     2
                     9 -6.647904449152975E-012
                     9                     2                     3
                     8  1.216248282642773E-011
                     9                     2                     4
                     9 -6.869393942565694E-012
                     9                     2                     5
                    10  4.379625134776077E-012
                     9                     2                     7
                     2  9.259339822653700E-012
                     9                     2                     7
                     4  5.148964588030935E-012
                     9                     2                     8
                     3 -1.519814482597859E-011
                     9                     2                     9
                     4  3.866004738561912E-012
                     9                     2                    10
                     5 -4.725796143301153E-012
                     9                     3                     2
                     8 -6.099063962206053E-012
                     9                     3                     3
                     7  4.156248262221496E-012
                     9                     3                     3
                     9 -2.235367446701275E-011
                     9                     3                     7
                     3  1.896168465298498E-011
                     9                     3                     8
                     2 -2.340303298375979E-012
                     9                     4                     1
                     7 -1.107915842402107E-012
                     9                     4                     2
                     7 -9.122827493435182E-012
                     9                     4                     2
                     9 -3.173816764956428E-011
                     9                     4                     3
                     8 -3.218071642496767E-012
                     9                     4                     4
                     6 -1.138955249557760E-012
                     9                     4                     4
                     7  6.869074753446114E-012
                     9                     4                     5
                    10  3.927104127998682E-011
                     9                     4                     7
                     1  1.337058935790836E-012
                     9                     4                     7
                     2  9.122827493435182E-012
                     9                     4                     7
                     4  2.873486171228734E-011
                     9                     4                     8
                     3  3.218078581390671E-012
                     9                     4                     9
                     2 -3.866004738561912E-012
                     9                     4                    10
                     5 -3.927106556611548E-011
                     9                     5                     5
                     7  1.526893195213930E-011
                     9                     5                     5
                     9  6.240452599115542E-011
                     9                     5                     7
                     5  1.202383331788681E-011
                     9                     5                    10
                     2 -4.491879090906536E-012
                     9                     5                    10
                     4 -2.000234006205304E-011
                     9                     7                     6
                     9 -1.611204225593355E-012
                     9                     7                     7
                     7  6.125576909281844E-012
                     9                     7                     7
                     9 -1.498579038639036E-012
                     9                     7                     8
                     8 -3.035647511153386E-012
                     9                     7                     9
                     9 -3.003786386010286E-012
                     9                     8                     7
                     8  1.286252614834948E-011
                     9                     8                     8
                     7  1.816037771551482E-012
                     9                     8                     8
                     9 -2.148292654879924E-011
                     9                     9                     7
                     9 -3.003769859788680E-012
                     9                     9                     9
                     7  3.003786386010286E-012
                     9                    10                     7
                    10  1.271445362188706E-011
                     9                    10                    10
                     7  1.077765220819371E-011
                     9                    10                    10
                     9  4.240330309102092E-011
                    10                     1                     7
                     5  1.302687124837831E-012
                    10                     2                     1
                    10 -2.991967784637950E-012
                    10                     2                     2
                    10 -5.210099018881920E-011
                    10                     2                     4
                    10 -1.526889725766978E-011
                    10                     2                     5
                     9  2.981632302168080E-012
                    10                     2                     6
                     5  2.126528120260929E-012
                    10                     2                     7
                     5  3.685241001250006E-011
                    10                     2                     9
                     5  4.491879090906536E-012
                    10                     3                     3
                    10 -8.096123771395014E-011
                    10                     3                     8
                     5  2.566424156524860E-011
                    10                     4                     2
                    10 -2.635396068040308E-011
                    10                     4                     4
                    10 -6.240452599115542E-011
                    10                     4                     5
                     7 -2.981621893827224E-012
                    10                     4                     7
                     5  6.782255312920427E-012
                    10                     4                     9
                     5  2.000234006205304E-011
                    10                     5                     1
                     6 -2.245256064403733E-012
                    10                     5                     1
                     7 -3.076500859622300E-012
                    10                     5                     2
                     6 -2.161829742997057E-012
                    10                     5                     2
                     7 -4.470046555127283E-011
                    10                     5                     2
                     9 -3.990498903538864E-012
                    10                     5                     3
                     8 -3.661725089809664E-011
                    10                     5                     4
                     7 -4.379691054268164E-012
                    10                     5                     4
                     9 -3.927105515777463E-011
                    10                     5                     6
                     1  2.245256064403733E-012
                    10                     5                     6
                     2  2.573861263011068E-012
                    10                     5                     7
                     1  2.664469339608289E-012
                    10                     5                     7
                     2  4.470046555127283E-011
                    10                     5                     7
                     4  3.644386875611971E-012
                    10                     5                     8
                     3  3.661731334814178E-011
                    10                     5                     9
                     2  4.725796143301153E-012
                    10                     5                     9
                     4  3.927106556611548E-011
                    10                     7                     7
                    10 -1.524702586408466E-011
                    10                     7                     9
                    10 -1.077765220819371E-011
                    10                     7                    10
                     9  3.921070065859844E-012
                    10                     8                     8
                    10 -5.529698920980763E-011
                    10                     9                     7
                    10 -1.957103923366788E-011
                    10                     9                     9
                    10 -4.240330309102092E-011
                    10                     9                    10
                     7 -3.921070065859844E-012
 TWO-BODY ANTISYMMETRY CHECK
 TRANSFORMED ~FOCK~ MATRIX
    1    1       -20.5494983888
    1    2        -0.0027615434
    1    4         0.0022253742
    1    6        -0.0027107272
    1    7        -0.0000000002
    1    8         0.0000000003
    2    1        -0.0027615434
    2    2        -1.3807888626
    2    4        -0.0038872110
    2    6        -0.0002841767
    3    3        -0.7784257279
    3    7         0.0036235630
[...]
    7    1    1    8        0.0037829697
    7    2    1    1       -0.0000000003
    7    2    1    3       -0.0081815946
    7    2    1    7        0.0036236268
    7    2    1    8        0.0031267140
    7    3    1    1       -0.1635354071
    7    3    1    2        0.0005698924
    7    3    1    4       -0.0003275266
    7    3    1    6        0.0004938686
    7    4    1    1       -0.0000000002
    7    4    1    3        0.0026571519
    7    4    1    7       -0.0012931312
    7    4    1    8       -0.0013526776
    7    6    1    1       -0.0000000001
    7    6    1    3       -0.0039383170
    7    6    1    7        0.0017127106
    7    6    1    8        0.0014210283
    7    7    1    1        0.3330261343
    7    7    1    2       -0.0014051325
    7    7    1    4        0.0013536038
    7    7    1    6       -0.0001467715
    7    8    1    1        0.1084248797
    7    8    1    2       -0.0014552283
    7    8    1    4       -0.0002067143
    7    8    1    6       -0.0004736893
    7    1    2    3       -0.0110139677
    7    1    2    7        0.0036236268
    7    1    2    8        0.0026663989
    7    2    2    2       -0.0000000002
    7    2    2    3       -0.0328055466
    7    2    2    7        0.0125526969
    7    2    2    8        0.0098637163
    7    3    2    1        0.0014220031
    7    3    2    2       -0.0946579020
    7    3    2    4        0.0128758077
    7    3    2    6       -0.0203894913
    7    4    2    2       -0.0000000001
    7    4    2    3        0.0143712974
    7    4    2    7       -0.0021856863
    7    4    2    8       -0.0025258091
    7    6    2    2       -0.0000000001
    7    6    2    3       -0.0422905510
    7    6    2    7       -0.0006186095
    7    6    2    8       -0.0059324300
    7    7    2    1       -0.0014051325
    7    7    2    2        0.2972962020
    7    7    2    3        0.0000000001
    7    7    2    4        0.0097519712
    7    7    2    6        0.0076209538
    7    8    2    1       -0.0014281300
    7    8    2    2        0.0730793093
    7    8    2    4       -0.0003876513
    7    8    2    6        0.0066795951
    7    1    3    1       -0.0093231289
    7    1    3    2       -0.0107924528
    7    1    3    4        0.0014658344
    7    1    3    6       -0.0017633098
    7    2    3    1       -0.0081094803
    7    2    3    2       -0.0332202524
    7    2    3    3       -0.0000000001
    7    2    3    4        0.0047880060
    7    2    3    6       -0.0075987036
    7    3    3    3       -0.0831048054
    7    3    3    7        0.0305024722
    7    3    3    8        0.0240602205
    7    4    3    1        0.0027722891
    7    4    3    2        0.0153584401
    7    4    3    4       -0.0058547361
    7    4    3    6       -0.0058671016
    7    5    3    5       -0.0087548492
    7    6    3    1       -0.0039271590
    7    6    3    2       -0.0423674734
    7    6    3    4       -0.0141353427
    7    6    3    6        0.0186518860
    7    7    3    2        0.0000000001
    7    7    3    3        0.3010110292
    7    7    3    7       -0.0061153716
    7    7    3    8        0.0084124014
    7    8    3    3        0.0721377219
    7    8    3    7       -0.0102693963
    7    8    3    8        0.0041117229
    7    1    4    3        0.0014957147
    7    1    4    7       -0.0012931312
    7    1    4    8       -0.0029572697
    7    2    4    3        0.0046397153
    7    2    4    4       -0.0000000001
    7    2    4    7       -0.0021856863
    7    2    4    8       -0.0079901781
    7    3    4    1       -0.0003530839
    7    3    4    2        0.0137412511
    7    3    4    4       -0.0838745510
    7    3    4    6       -0.0133320000
    7    4    4    3       -0.0066823850
    7    4    4    4       -0.0000000001
    7    4    4    7        0.0079561234
    7    4    4    8        0.0141273798
    7    6    4    3       -0.0139599346
    7    6    4    4       -0.0000000001
    7    6    4    7       -0.0121892733
    7    6    4    8       -0.0256966079
    7    7    4    1        0.0013536038
    7    7    4    2        0.0097519712
    7    7    4    4        0.2830988765
    7    7    4    6       -0.0035843030
    7    8    4    1       -0.0001009337
    7    8    4    2       -0.0000705797
    7    8    4    4        0.0699156036
    7    8    4    6       -0.0001202773
    7    2    5    5       -0.0000000002
    7    3    5    5       -0.0885972843
    7    5    5    3       -0.0089868760
    7    5    5    7        0.0043711944
    7    5    5    8        0.0037815296
    7    6    5    5       -0.0000000001
    7    7    5    5        0.2845745257
    7    8    5    5        0.0653155842
    7    1    6    3       -0.0021222439
    7    1    6    7        0.0017127106
    7    1    6    8        0.0005030518
    7    2    6    3       -0.0108731056
    7    2    6    7       -0.0006186095
    7    2    6    8       -0.0008785232
    7    3    6    1        0.0000600739
    7    3    6    2       -0.0232209703
    7    3    6    4       -0.0135951466
    7    3    6    6       -0.0083361916
    7    4    6    3       -0.0065563405
    7    4    6    7       -0.0121892733
    7    4    6    8       -0.0025408677
    7    6    6    3        0.0190968089
    7    6    6    6        0.0000000001
    7    6    6    7        0.0664265823
    7    6    6    8        0.0005299494
    7    7    6    1       -0.0001467715
    7    7    6    2        0.0076209538
    7    7    6    4       -0.0035843030
    7    7    6    6        0.2533989639
    7    7    6    7       -0.0000000002
    7    8    6    1       -0.0004603350
    7    8    6    2        0.0065843003
    7    8    6    4       -0.0007895948
    7    8    6    6        0.0252056578
    7    1    7    1        0.0046502757
    7    1    7    2        0.0039861194
    7    1    7    4       -0.0013783116
    7    1    7    6        0.0017065028
    7    2    7    1        0.0039861194
    7    2    7    2        0.0151822812
    7    2    7    4       -0.0025568779
    7    2    7    6       -0.0007416851
    7    3    7    3        0.0328368863
    7    3    7    7       -0.0061153716
    7    3    7    8       -0.0101026570
    7    4    7    1       -0.0013783116
    7    4    7    2       -0.0025568779
    7    4    7    4        0.0097040252
    7    4    7    6       -0.0122736932
    7    5    7    5        0.0060999653
    7    6    7    1        0.0017065028
    7    6    7    2       -0.0007416851
    7    6    7    4       -0.0122736932
    7    6    7    6        0.0664270323
    7    6    7    7       -0.0000000002
    7    7    7    3       -0.0061153716
    7    7    7    6       -0.0000000002
    7    7    7    7        0.2579911097
    7    7    7    8        0.0205075264
    7    8    7    3       -0.0101026570
    7    8    7    7        0.0205075264
    7    8    7    8        0.0193745543
    7    1    8    1        0.0040012933
    7    1    8    2        0.0029632809
    7    1    8    4       -0.0030801794
    7    1    8    6        0.0004863972
    7    2    8    1        0.0034078166
    7    2    8    2        0.0114316478
    7    2    8    4       -0.0084182769
    7    2    8    6       -0.0008394727
    7    3    8    3        0.0245398563
    7    3    8    7       -0.0102693963
    7    3    8    8       -0.0235767742
    7    4    8    1       -0.0014074484
    7    4    8    2       -0.0032753715
    7    4    8    4        0.0146163363
    7    4    8    6       -0.0021941412
    7    5    8    5        0.0044684308
    7    6    8    1        0.0014160869
    7    6    8    2       -0.0060748244
    7    6    8    4       -0.0261126663
    7    6    8    6        0.0005402512
    7    7    8    3        0.0084124014
    7    7    8    7        0.0205075264
    7    7    8    8        0.2670213382
    7    8    8    3        0.0052600371
    7    8    8    7        0.0194257183
    7    8    8    8        0.0456062654
    8    1    1    3       -0.0090728475
    8    1    1    7        0.0037829697
    8    1    1    8        0.0033270452
    8    2    1    3       -0.0061687861
    8    2    1    7        0.0026663989
    8    2    1    8        0.0024593108
    8    3    1    1       -0.1046269132
    8    3    1    2        0.0013453573
    8    3    1    4        0.0038291969
    8    3    1    6        0.0016292865
    8    4    1    1        0.0000000001
    8    4    1    3        0.0061707816
    8    4    1    7       -0.0029572697
    8    4    1    8       -0.0027817012
    8    6    1    1        0.0000000001
    8    6    1    3       -0.0011955755
    8    6    1    7        0.0005030518
    8    6    1    8        0.0003747255
    8    7    1    1        0.1084248797
    8    7    1    2       -0.0014281300
    8    7    1    4       -0.0001009337
    8    7    1    6       -0.0004603350
    8    8    1    1        0.4605312627
    8    8    1    2       -0.0013093101
    8    8    1    4        0.0000568975
    8    8    1    6       -0.0003590746
    8    1    2    3       -0.0094733958
    8    1    2    7        0.0031267140
    8    1    2    8        0.0024593108
    8    2    2    3       -0.0078116156
    8    2    2    7        0.0098637163
    8    2    2    8        0.0237903679
    8    3    2    1        0.0021524058
    8    3    2    2       -0.0267642716
    8    3    2    4        0.0478086551
    8    3    2    6       -0.0096920441
    8    4    2    3        0.0530483354
    8    4    2    7       -0.0079901781
    8    4    2    8        0.0021121637
    8    6    2    3       -0.0084132400
    8    6    2    7       -0.0008785232
    8    6    2    8       -0.0115342283
    8    7    2    1       -0.0014552283
    8    7    2    2        0.0730793093
    8    7    2    4       -0.0000705797
    8    7    2    6        0.0065843003
    8    8    2    1       -0.0013093101
    8    8    2    2        0.4288043814
    8    8    2    4        0.0076295697
    8    8    2    6        0.0135522797
    8    1    3    1       -0.0080899108
    8    1    3    2       -0.0091851468
    8    1    3    4        0.0018618895
    8    1    3    6       -0.0013792518
    8    2    3    1       -0.0058418882
    8    2    3    2       -0.0069985763
    8    2    3    4        0.0237185930
    8    2    3    6       -0.0070005928
    8    3    3    3       -0.0126630959
    8    3    3    7        0.0240602205
    8    3    3    8        0.0545851914
    8    4    3    1        0.0066978140
    8    4    3    2        0.0562037985
    8    4    3    4        0.0027681041
    8    4    3    6       -0.0115483650
    8    5    3    5       -0.0093993517
    8    6    3    1       -0.0010856691
    8    6    3    2       -0.0080259652
    8    6    3    4       -0.0113124024
    8    6    3    6        0.0011946014
    8    7    3    3        0.0721377219
    8    7    3    7       -0.0101026570
    8    7    3    8        0.0052600371
    8    8    3    3        0.4337733843
    8    8    3    7       -0.0235767742
    8    8    3    8        0.0173447289
    8    1    4    3        0.0018709701
    8    1    4    7       -0.0013526776
    8    1    4    8       -0.0027817012
    8    2    4    3        0.0233240391
    8    2    4    7       -0.0025258091
    8    2    4    8        0.0021121637
    8    3    4    1        0.0043190244
    8    3    4    2        0.0505948808
    8    3    4    4       -0.0415933249
    8    3    4    6       -0.0144716168
    8    4    4    3        0.0013314975
    8    4    4    7        0.0141273798
    8    4    4    8        0.0413735824
    8    6    4    3       -0.0113209916
    8    6    4    7       -0.0025408677
    8    6    4    8       -0.0054738867
    8    7    4    1       -0.0002067143
    8    7    4    2       -0.0003876513
    8    7    4    4        0.0699156036
    8    7    4    6       -0.0007895948
    8    8    4    1        0.0000568975
    8    8    4    2        0.0076295697
    8    8    4    4        0.4175176411
    8    8    4    6        0.0053043294
    8    3    5    5       -0.0440418912
    8    5    5    3       -0.0093678676
    8    5    5    7        0.0037815296
    8    5    5    8        0.0075826721
    8    7    5    5        0.0653155842
    8    8    5    5        0.4009694864
    8    1    6    3       -0.0017748555
    8    1    6    7        0.0014210283
    8    1    6    8        0.0003747255
    8    2    6    3       -0.0102425065
    8    2    6    7       -0.0059324300
    8    2    6    8       -0.0115342283
    8    3    6    1        0.0013393703
    8    3    6    2       -0.0118628197
    8    3    6    4       -0.0147357053
    8    3    6    6        0.0125636456
    8    4    6    3       -0.0126700251
    8    4    6    7       -0.0256966079
    8    4    6    8       -0.0054738867
    8    6    6    3        0.0007636683
    8    6    6    7        0.0005299494
    8    6    6    8        0.0180944139
    8    7    6    1       -0.0004736893
    8    7    6    2        0.0066795951
    8    7    6    4       -0.0001202773
    8    7    6    6        0.0252056578
    8    8    6    1       -0.0003590746
    8    8    6    2        0.0135522797
    8    8    6    4        0.0053043294
    8    8    6    6        0.2854044018
    8    1    7    1        0.0040012933
    8    1    7    2        0.0034078166
    8    1    7    4       -0.0014074484
    8    1    7    6        0.0014160869
    8    2    7    1        0.0029632809
    8    2    7    2        0.0114316478
    8    2    7    4       -0.0032753715
    8    2    7    6       -0.0060748244
    8    3    7    3        0.0245398563
    8    3    7    7        0.0084124014
    8    3    7    8        0.0052600371
    8    4    7    1       -0.0030801794
    8    4    7    2       -0.0084182769
    8    4    7    4        0.0146163363
    8    4    7    6       -0.0261126663
    8    5    7    5        0.0044684308
    8    6    7    1        0.0004863972
    8    6    7    2       -0.0008394727
    8    6    7    4       -0.0021941412
    8    6    7    6        0.0005402512
    8    7    7    3       -0.0102693963
    8    7    7    7        0.0205075264
    8    7    7    8        0.0194257183
    8    8    7    3       -0.0235767742
    8    8    7    7        0.2670213382
    8    8    7    8        0.0456062654
    8    1    8    1        0.0034155698
    8    1    8    2        0.0027569829
    8    1    8    4       -0.0027559619
    8    1    8    6        0.0003788737
    8    2    8    1        0.0027569829
    8    2    8    2        0.0260684349
    8    2    8    4        0.0027562349
    8    2    8    6       -0.0106903269
    8    3    8    3        0.0553948123
    8    3    8    7        0.0041117229
    8    3    8    8        0.0173447289
    8    4    8    1       -0.0027559619
    8    4    8    2        0.0027562349
    8    4    8    4        0.0407562209
    8    4    8    6       -0.0047563832
    8    5    8    5        0.0070795790
    8    6    8    1        0.0003788737
    8    6    8    2       -0.0106903269
    8    6    8    4       -0.0047563832
    8    6    8    6        0.0180764442
    8    7    8    3        0.0041117229
    8    7    8    7        0.0193745543
    8    7    8    8        0.0456062654
    8    8    8    3        0.0173447289
    8    8    8    7        0.0456062654
    8    8    8    8        0.3731092395
 end_two_electron_integrals

 Task  times  cpu:      667.9s     wall:      667.9s
 
 
                                NWChem Input Module
                                -------------------
 
 
 Summary of allocated global arrays
-----------------------------------
  No active global arrays


MA_summarize_allocated_blocks: starting scan ...
MA_summarize_allocated_blocks: scan completed: 0 heap blocks, 0 stack blocks
MA usage statistics:

	allocation statistics:
					      heap	     stack
					      ----	     -----
	current number of blocks	         0	         0
	maximum number of blocks	        16	        42
	current total bytes		         0	         0
	maximum total bytes		     80104	4725685704
	maximum total K-bytes		        81	   4725686
	maximum total M-bytes		         1	      4726
 
 
                                     CITATION
                                     --------
                Please cite the following reference when publishing
                           results obtained with NWChem:
 
          E. Apra, E. J. Bylaska, W. A. de Jong, N. Govind, K. Kowalski,
       T. P. Straatsma, M. Valiev, H. J. J. van Dam, Y. Alexeev, J. Anchell,
       V. Anisimov, F. W. Aquino, R. Atta-Fynn, J. Autschbach, N. P. Bauman,
     J. C. Becca, D. E. Bernholdt, K. Bhaskaran-Nair, S. Bogatko, P. Borowski,
         J. Boschen, J. Brabec, A. Bruner, E. Cauet, Y. Chen, G. N. Chuev,
      C. J. Cramer, J. Daily, M. J. O. Deegan, T. H. Dunning Jr., M. Dupuis,
   K. G. Dyall, G. I. Fann, S. A. Fischer, A. Fonari, H. Fruchtl, L. Gagliardi,
      J. Garza, N. Gawande, S. Ghosh, K. Glaesemann, A. W. Gotz, J. Hammond,
       V. Helms, E. D. Hermes, K. Hirao, S. Hirata, M. Jacquelin, L. Jensen,
   B. G. Johnson, H. Jonsson, R. A. Kendall, M. Klemm, R. Kobayashi, V. Konkov,
      S. Krishnamoorthy, M. Krishnan, Z. Lin, R. D. Lins, R. J. Littlefield,
      A. J. Logsdail, K. Lopata, W. Ma, A. V. Marenich, J. Martin del Campo,
   D. Mejia-Rodriguez, J. E. Moore, J. M. Mullin, T. Nakajima, D. R. Nascimento,
    J. A. Nichols, P. J. Nichols, J. Nieplocha, A. Otero-de-la-Roza, B. Palmer,
    A. Panyala, T. Pirojsirikul, B. Peng, R. Peverati, J. Pittner, L. Pollack,
   R. M. Richard, P. Sadayappan, G. C. Schatz, W. A. Shelton, D. W. Silverstein,
   D. M. A. Smith, T. A. Soares, D. Song, M. Swart, H. L. Taylor, G. S. Thomas,
            V. Tipparaju, D. G. Truhlar, K. Tsemekhman, T. Van Voorhis,
      A. Vazquez-Mayagoitia, P. Verma, O. Villa, A. Vishnu, K. D. Vogiatzis,
        D. Wang, J. H. Weare, M. J. Williamson, T. L. Windus, K. Wolinski,
        A. T. Wong, Q. Wu, C. Yang, Q. Yu, M. Zacharias, Z. Zhang, Y. Zhao,
                                and R. J. Harrison
                        "NWChem: Past, present, and future
                         J. Chem. Phys. 152, 184102 (2020)
                               doi:10.1063/5.0004997
 
                                      AUTHORS
                                      -------
  E. Apra, E. J. Bylaska, N. Govind, K. Kowalski, M. Valiev, D. Mejia-Rodriguez,
       A. Kunitsa, N. P. Bauman, A. Panyala, W. A. de Jong, T. P. Straatsma,
   H. J. J. van Dam, D. Wang, T. L. Windus, J. Hammond, J. Autschbach, A. Woods,
    K. Bhaskaran-Nair, J. Brabec, K. Lopata, S. A. Fischer, S. Krishnamoorthy,
     M. Jacquelin, W. Ma, M. Klemm, O. Villa, Y. Chen, V. Anisimov, F. Aquino,
     S. Hirata, M. T. Hackler, E. Hermes, L. Jensen, J. E. Moore, J. C. Becca,
      V. Konjkov, T. Risthaus, M. Malagoli, A. Marenich, A. Otero-de-la-Roza,
        J. Mullin, P. Nichols, R. Peverati, J. Pittner, Y. Zhao, P.-D. Fan,
        A. Fonari, M. J. Williamson, R. J. Harrison, J. R. Rehr, M. Dupuis,
     D. Silverstein, D. M. A. Smith, J. Nieplocha, V. Tipparaju, M. Krishnan,
     B. E. Van Kuiken, A. Vazquez-Mayagoitia, M. Swart, Q. Wu, T. Van Voorhis,
     A. A. Auer, M. Nooijen, L. D. Crosby, E. Brown, G. Cisneros, G. I. Fann,
   H. Fruchtl, J. Garza, K. Hirao, R. A. Kendall, J. A. Nichols, K. Tsemekhman,
    K. Wolinski, J. Anchell, D. E. Bernholdt, P. Borowski, T. Clark, D. Clerc,
   H. Dachsel, M. J. O. Deegan, K. Dyall, D. Elwood, E. Glendening, M. Gutowski,
   A. C. Hess, J. Jaffe, B. G. Johnson, J. Ju, R. Kobayashi, R. Kutteh, Z. Lin,
   R. Littlefield, X. Long, B. Meng, T. Nakajima, S. Niu, L. Pollack, M. Rosing,
   K. Glaesemann, G. Sandrone, M. Stave, H. Taylor, G. Thomas, J. H. van Lenthe,
                               A. T. Wong, Z. Zhang.

 Total times  cpu:      668.3s     wall:      668.3s
