 argument  1 = input.nw
  NWChem w/ OpenMP: maximum threads =    1



============================== echo of input deck ==============================
 echo
 start H2
 title "H2"

 memory total 24 gb

 geometry units bohr
 symmetry c1
        H  0.00000000  0.00000000  0.00000000
        H  0.00000000  3.60  0.00000000
 end

 basis
   * library cc-pVQZ
 end

 mcscf
   active  10
   actelec 2
   multiplicity 1
   maxiter 40
   vectors input H2.mos
   vectors output H2.mos
 end

 task mcscf

 scf
   vectors input H2.mos
   vectors output H2-3.60.mos
   noscf
 end

 tce
   2eorb
   2emet 13
   ccsd
   maxiter 300
 end

 set tce:print_integrals T
 set tce:qorb 10
 set tce:qela 1
 set tce:qelb 1

# set tce:qducc T
# set tce:nactv 1
# set tce:nonhf T
# set tce:ducc_model 6

 set tce:printtol 0.02

 task tce
================================================================================


                                         
                                         


             Northwest Computational Chemistry Package (NWChem) 7.0.1
             --------------------------------------------------------


                    Environmental Molecular Sciences Laboratory
                       Pacific Northwest National Laboratory
                                Richland, WA 99352

                              Copyright (c) 1994-2020
                       Pacific Northwest National Laboratory
                            Battelle Memorial Institute

             NWChem is an open-source computational chemistry package
                        distributed under the terms of the
                      Educational Community License (ECL) 2.0
             A copy of the license is included with this distribution
                              in the LICENSE.TXT file

                                  ACKNOWLEDGMENT
                                  --------------

            This software and its documentation were developed at the
            EMSL at Pacific Northwest National Laboratory, a multiprogram
            national laboratory, operated for the U.S. Department of Energy
            by Battelle under Contract Number DE-AC05-76RL01830. Support
            for this work was provided by the Department of Energy Office
            of Biological and Environmental Research, Office of Basic
            Energy Sciences, and the Office of Advanced Scientific Computing.


           Job information
           ---------------

    hostname        = WE46210
    program         = /home/baum612/code/nwchem/bin/LINUX64/nwchem
    date            = Thu Nov  9 16:03:34 2023

    compiled        = Mon_Nov_06_10:06:57_2023
    source          = /home/baum612/code/nwchem
    nwchem branch   = 7.0.0
    nwchem revision = nwchem_on_git-4191-g39d87d64de
    ga revision     = 5.8.1
    use scalapack   = F
    input           = input.nw
    prefix          = H2.
    data base       = ./H2.db
    status          = startup
    nproc           =        1
    time left       =     -1s



           Memory information
           ------------------

    heap     =  805306362 doubles =   6144.0 Mbytes
    stack    =  805306367 doubles =   6144.0 Mbytes
    global   = 1610612736 doubles =  12288.0 Mbytes (distinct from heap & stack)
    total    = 3221225465 doubles =  24576.0 Mbytes
    verify   = yes
    hardfail = no 


           Directory information
           ---------------------

  0 permanent = .
  0 scratch   = .




                                NWChem Input Module
                                -------------------


                                        H2
                                        --
 Turning off AUTOSYM since
 SYMMETRY directive was detected!


          ------
          auto-z
          ------
     1 autoz failed with cvr_scaling = 1.2 changing to 1.3
     2 autoz failed with cvr_scaling = 1.3 changing to 1.4
     3 autoz failed with cvr_scaling = 1.4 changing to 1.5
     4 autoz failed with cvr_scaling = 1.5 changing to 1.6
     5 autoz failed with cvr_scaling = 1.6 changing to 1.7

 AUTOZ failed to generate good internal coordinates.
 Cartesian coordinates will be used in optimizations.



                             Geometry "geometry" -> ""
                             -------------------------

 Output coordinates in a.u. (scale by  1.000000000 to convert to a.u.)

  No.       Tag          Charge          X              Y              Z
 ---- ---------------- ---------- -------------- -------------- --------------
    1 H                    1.0000     0.00000000    -1.80000000     0.00000000
    2 H                    1.0000     0.00000000     1.80000000     0.00000000

      Atomic Mass 
      ----------- 

      H                  1.007825


 Effective nuclear repulsion energy (a.u.)       0.2777777778

            Nuclear Dipole moment (a.u.) 
            ----------------------------
        X                 Y               Z
 ---------------- ---------------- ----------------
     0.0000000000     0.0000000000     0.0000000000


            XYZ format geometry
            -------------------
     2
 geometry
 H                     0.00000000    -0.95251905     0.00000000
 H                     0.00000000     0.95251905     0.00000000



 Summary of "ao basis" -> "" (cartesian)
 ------------------------------------------------------------------------------
       Tag                 Description            Shells   Functions and Types
 ---------------- ------------------------------  ------  ---------------------
 *                          cc-pVQZ                   on all atoms 


                      Basis "ao basis" -> "ao basis" (cartesian)
                      -----
  H (Hydrogen)
  ------------
            Exponent  Coefficients 
       -------------- ---------------------------------------------------------
  1 S  8.26400000E+01  0.002006
  1 S  1.24100000E+01  0.015343
  1 S  2.82400000E+00  0.075579

  2 S  7.97700000E-01  1.000000

  3 S  2.58100000E-01  1.000000

  4 S  8.98900000E-02  1.000000

  5 P  2.29200000E+00  1.000000

  6 P  8.38000000E-01  1.000000

  7 P  2.92000000E-01  1.000000

  8 D  2.06200000E+00  1.000000

  9 D  6.62000000E-01  1.000000

 10 F  1.39700000E+00  1.000000



 Summary of "ao basis" -> "ao basis" (cartesian)
 ------------------------------------------------------------------------------
       Tag                 Description            Shells   Functions and Types
 ---------------- ------------------------------  ------  ---------------------
 H                          cc-pVQZ                 10       35   4s3p2d1f



                            NWChem Direct MCSCF Module
                            --------------------------


                                        H2


     -----------------------------------
       Basis functions:             70
       Inactive shells:              0
       Active shells:               10
       Active electrons:             2
       Symmetry:                    a       
       Multiplicity:                 1
       Orbital rotations:          600
     -----------------------------------

     -----------------------------------
       E2 extrapolation:             F
       Conjugacy:                    T
       Micro CI relax:               T
       Canonical orbitals:           T
       Maximum iterations:          40
       Converge threshold:    1.00E-04
       Conjugacy resets:            20
       Initial levelshift:        0.10
     -----------------------------------

 Loading old vectors from job with title :

H2


   input molecular orbitals = ./H2.mos
  output molecular orbtials = ./H2.mos

       No. of determinants:           100


  Starting Orbital Energies
    -0.395180    -0.105762    -0.001278    -0.000914    -0.000914    -0.000118
    -0.000060    -0.000060    -0.000060    -0.000028     0.478515     0.807589
     1.022936     1.401899     1.401899     1.724773     1.724773     1.820286
     1.876624     1.876624     2.044178     2.044178     2.135175     2.135175
     2.200800     2.405986     2.405986     2.938570     2.964288     3.152945
     4.398444     4.398444     4.437585     4.453489     4.453489     4.673978
     5.894493     5.951644     5.951644     6.039668     6.039668     6.063986
     6.063986     6.067703     6.067703     6.093967     6.093967     6.225232
     6.225232     6.624777     8.041974     8.041974     8.104941     8.104941
     8.164991     8.164991     8.208495     8.379238     8.379238     9.011331
     9.621247     9.686452     9.694965     9.694965     9.741501     9.741501
     9.902354     9.956745    22.530555    23.108660

  Orbital Symmetry Irreps
a    a    a    a    a    a    a    a    a    a    a    a    a    a    a   
a    a    a    a    a    a    a    a    a    a    a    a    a    a    a   
a    a    a    a    a    a    a    a    a    a    a    a    a    a    a   
a    a    a    a    a    a    a    a    a    a    a    a    a    a    a   
a    a    a    a    a    a    a    a    a    a   

 Integral file          = ./H2.aoints.0
 Record size in doubles =  65536        No. of integs per rec  =  43688
 Max. records in memory =     99        Max. records in file   = 280220
 No. of bits per label  =      8        No. of bits per value  =     64


 #quartets = 2.209D+04 #integrals = 8.299D+05 #direct =  0.0% #cached =100.0%




          %%%%% MacroIteration   1 %%%%%


          Number of sigma calls:       13
                       o<<<<< (aa):             0.00
                       o<<<<< (bb):             0.00
                       o<<<<< (ab):             0.01
                       o<<<<< (total)           0.01
                       o<<<<< (aa) ff           0.00
                       o<<<<< (aa) gop          0.00
                       o<<<<< (aa) dot          0.00
                       o<<<<< (ab) str          0.00
                       o<<<<< (ab) gath         0.00
                       o<<<<< (ab) dotab        0.00
                       o<<<<< (ab) scat         0.00
                       o<<<<< (ab) sync         0.00
                       o<<<<< Density           0.00
                       o<<<<< Density one       0.00
                       o<<<<< Density two       0.00
                       o<<<<< Density ab        0.00
                       o<<<<< Spin adapt        0.00
                       o<<<<< Symm adapt        0.00

                       o<<<<< (ab) max sync:      0.00

           >>>| Valence CI:             -1.304848629444
           >>>| MCSCF energy:           -1.027070851666
           >>>| Gradient norm:          0.276840727D-02
     --- Warning:  456 Hessian diagonals < 0.05 ---

                              ----- Line search ------

        step       energy         lsg     num-lsg   num-lsh   lsrat    time
      ------- ---------------- --------- --------- --------- ------- --------
       0.0000      -1.02707085 -1.39D-06  0.00D+00  0.00D+00 0.0D+00      0.5

          Number of sigma calls:       12
                       o<<<<< (aa):             0.00
                       o<<<<< (bb):             0.00
                       o<<<<< (ab):             0.01
                       o<<<<< (total)           0.01
                       o<<<<< (aa) ff           0.00
                       o<<<<< (aa) gop          0.00
                       o<<<<< (aa) dot          0.00
                       o<<<<< (ab) str          0.00
                       o<<<<< (ab) gath         0.00
                       o<<<<< (ab) dotab        0.00
                       o<<<<< (ab) scat         0.00
                       o<<<<< (ab) sync         0.00
                       o<<<<< Density           0.00
                       o<<<<< Density one       0.00
                       o<<<<< Density two       0.00
                       o<<<<< Density ab        0.00
                       o<<<<< Spin adapt        0.00
                       o<<<<< Symm adapt        0.00

                       o<<<<< (ab) max sync:      0.00
       1.0000      -1.02707175 -3.98D-07 -3.98D-07  9.93D-07 2.9D-01      0.7

          Number of sigma calls:       11
                       o<<<<< (aa):             0.00
                       o<<<<< (bb):             0.00
                       o<<<<< (ab):             0.00
                       o<<<<< (total)           0.00
                       o<<<<< (aa) ff           0.00
                       o<<<<< (aa) gop          0.00
                       o<<<<< (aa) dot          0.00
                       o<<<<< (ab) str          0.00
                       o<<<<< (ab) gath         0.00
                       o<<<<< (ab) dotab        0.00
                       o<<<<< (ab) scat         0.00
                       o<<<<< (ab) sync         0.00
                       o<<<<< Density           0.00
                       o<<<<< Density one       0.00
                       o<<<<< Density two       0.00
                       o<<<<< Density ab        0.00
                       o<<<<< Spin adapt        0.00
                       o<<<<< Symm adapt        0.00

                       o<<<<< (ab) max sync:      0.00
       1.4009      -1.02707183  3.08D-10  2.94D-10  9.93D-07 2.2D-04      0.8
     --- Orbitals canonicalized ---



          %%%%% MacroIteration   2 %%%%%


          Number of sigma calls:       13
                       o<<<<< (aa):             0.00
                       o<<<<< (bb):             0.00
                       o<<<<< (ab):             0.00
                       o<<<<< (total)           0.00
                       o<<<<< (aa) ff           0.00
                       o<<<<< (aa) gop          0.00
                       o<<<<< (aa) dot          0.00
                       o<<<<< (ab) str          0.00
                       o<<<<< (ab) gath         0.00
                       o<<<<< (ab) dotab        0.00
                       o<<<<< (ab) scat         0.00
                       o<<<<< (ab) sync         0.00
                       o<<<<< Density           0.00
                       o<<<<< Density one       0.00
                       o<<<<< Density two       0.00
                       o<<<<< Density ab        0.00
                       o<<<<< Spin adapt        0.00
                       o<<<<< Symm adapt        0.00

                       o<<<<< (ab) max sync:      0.00

           >>>| Valence CI:             -1.304849603519
           >>>| MCSCF energy:           -1.027071825742
           >>>| Gradient norm:          0.849486890D-03
     --- Warning:  456 Hessian diagonals < 0.05 ---
     --- Conjugacy reset ---

                              ----- Line search ------

        step       energy         lsg     num-lsg   num-lsh   lsrat    time
      ------- ---------------- --------- --------- --------- ------- --------
       0.0000      -1.02707183 -1.32D-07  0.00D+00  0.00D+00 0.0D+00      1.1

          Number of sigma calls:       10
                       o<<<<< (aa):             0.00
                       o<<<<< (bb):             0.00
                       o<<<<< (ab):             0.01
                       o<<<<< (total)           0.01
                       o<<<<< (aa) ff           0.00
                       o<<<<< (aa) gop          0.00
                       o<<<<< (aa) dot          0.00
                       o<<<<< (ab) str          0.00
                       o<<<<< (ab) gath         0.00
                       o<<<<< (ab) dotab        0.00
                       o<<<<< (ab) scat         0.00
                       o<<<<< (ab) sync         0.00
                       o<<<<< Density           0.00
                       o<<<<< Density one       0.00
                       o<<<<< Density two       0.00
                       o<<<<< Density ab        0.00
                       o<<<<< Spin adapt        0.00
                       o<<<<< Symm adapt        0.00

                       o<<<<< (ab) max sync:      0.00
       1.0000      -1.02707191 -4.28D-08 -4.28D-08  8.90D-08 3.2D-01      1.3

          Number of sigma calls:        9
                       o<<<<< (aa):             0.00
                       o<<<<< (bb):             0.00
                       o<<<<< (ab):             0.01
                       o<<<<< (total)           0.01
                       o<<<<< (aa) ff           0.00
                       o<<<<< (aa) gop          0.00
                       o<<<<< (aa) dot          0.00
                       o<<<<< (ab) str          0.00
                       o<<<<< (ab) gath         0.00
                       o<<<<< (ab) dotab        0.00
                       o<<<<< (ab) scat         0.00
                       o<<<<< (ab) sync         0.00
                       o<<<<< Density           0.00
                       o<<<<< Density one       0.00
                       o<<<<< Density two       0.00
                       o<<<<< Density ab        0.00
                       o<<<<< Spin adapt        0.00
                       o<<<<< Symm adapt        0.00

                       o<<<<< (ab) max sync:      0.00
       1.4805      -1.02707192  2.60D-11  2.43D-11  8.90D-08 2.0D-04      1.4



          %%%%% MacroIteration   3 %%%%%


          Number of sigma calls:        1
                       o<<<<< (aa):             0.00
                       o<<<<< (bb):             0.00
                       o<<<<< (ab):             0.00
                       o<<<<< (total)           0.00
                       o<<<<< (aa) ff           0.00
                       o<<<<< (aa) gop          0.00
                       o<<<<< (aa) dot          0.00
                       o<<<<< (ab) str          0.00
                       o<<<<< (ab) gath         0.00
                       o<<<<< (ab) dotab        0.00
                       o<<<<< (ab) scat         0.00
                       o<<<<< (ab) sync         0.00
                       o<<<<< Density           0.00
                       o<<<<< Density one       0.00
                       o<<<<< Density two       0.00
                       o<<<<< Density ab        0.00
                       o<<<<< Spin adapt        0.00
                       o<<<<< Symm adapt        0.00

                       o<<<<< (ab) max sync:      0.00

           >>>| Valence CI:             -1.304849701048
           >>>| MCSCF energy:           -1.027071923270
           >>>| Gradient norm:          0.390953552D-03
     --- Warning:  456 Hessian diagonals < 0.05 ---

                              ----- Line search ------

        step       energy         lsg     num-lsg   num-lsh   lsrat    time
      ------- ---------------- --------- --------- --------- ------- --------
       0.0000      -1.02707192 -1.52D-08  0.00D+00  0.00D+00 0.0D+00      1.6

          Number of sigma calls:        8
                       o<<<<< (aa):             0.00
                       o<<<<< (bb):             0.00
                       o<<<<< (ab):             0.01
                       o<<<<< (total)           0.01
                       o<<<<< (aa) ff           0.00
                       o<<<<< (aa) gop          0.00
                       o<<<<< (aa) dot          0.00
                       o<<<<< (ab) str          0.00
                       o<<<<< (ab) gath         0.00
                       o<<<<< (ab) dotab        0.00
                       o<<<<< (ab) scat         0.00
                       o<<<<< (ab) sync         0.00
                       o<<<<< Density           0.00
                       o<<<<< Density one       0.00
                       o<<<<< Density two       0.00
                       o<<<<< Density ab        0.00
                       o<<<<< Spin adapt        0.00
                       o<<<<< Symm adapt        0.00

                       o<<<<< (ab) max sync:      0.00
       1.0000      -1.02707193 -4.90D-09 -4.90D-09  1.03D-08 3.2D-01      1.7

          Number of sigma calls:        8
                       o<<<<< (aa):             0.00
                       o<<<<< (bb):             0.00
                       o<<<<< (ab):             0.00
                       o<<<<< (total)           0.00
                       o<<<<< (aa) ff           0.00
                       o<<<<< (aa) gop          0.00
                       o<<<<< (aa) dot          0.00
                       o<<<<< (ab) str          0.00
                       o<<<<< (ab) gath         0.00
                       o<<<<< (ab) dotab        0.00
                       o<<<<< (ab) scat         0.00
                       o<<<<< (ab) sync         0.00
                       o<<<<< Density           0.00
                       o<<<<< Density one       0.00
                       o<<<<< Density two       0.00
                       o<<<<< Density ab        0.00
                       o<<<<< Spin adapt        0.00
                       o<<<<< Symm adapt        0.00

                       o<<<<< (ab) max sync:      0.00
       1.4756      -1.02707193  1.06D-13  1.12D-13  1.03D-08 7.0D-06      1.9



          %%%%% MacroIteration   4 %%%%%


          Number of sigma calls:        1
                       o<<<<< (aa):             0.00
                       o<<<<< (bb):             0.00
                       o<<<<< (ab):             0.00
                       o<<<<< (total)           0.00
                       o<<<<< (aa) ff           0.00
                       o<<<<< (aa) gop          0.00
                       o<<<<< (aa) dot          0.00
                       o<<<<< (ab) str          0.00
                       o<<<<< (ab) gath         0.00
                       o<<<<< (ab) dotab        0.00
                       o<<<<< (ab) scat         0.00
                       o<<<<< (ab) sync         0.00
                       o<<<<< Density           0.00
                       o<<<<< Density one       0.00
                       o<<<<< Density two       0.00
                       o<<<<< Density ab        0.00
                       o<<<<< Spin adapt        0.00
                       o<<<<< Symm adapt        0.00

                       o<<<<< (ab) max sync:      0.00

           >>>| Valence CI:             -1.304849712269
           >>>| MCSCF energy:           -1.027071934491
           >>>| Gradient norm:          0.189176358D-03
     --- Warning:  456 Hessian diagonals < 0.05 ---

                              ----- Line search ------

        step       energy         lsg     num-lsg   num-lsh   lsrat    time
      ------- ---------------- --------- --------- --------- ------- --------
       0.0000      -1.02707193 -3.17D-08  0.00D+00  0.00D+00 0.0D+00      2.1

          Number of sigma calls:        9
                       o<<<<< (aa):             0.00
                       o<<<<< (bb):             0.00
                       o<<<<< (ab):             0.01
                       o<<<<< (total)           0.01
                       o<<<<< (aa) ff           0.00
                       o<<<<< (aa) gop          0.00
                       o<<<<< (aa) dot          0.00
                       o<<<<< (ab) str          0.00
                       o<<<<< (ab) gath         0.00
                       o<<<<< (ab) dotab        0.00
                       o<<<<< (ab) scat         0.00
                       o<<<<< (ab) sync         0.00
                       o<<<<< Density           0.00
                       o<<<<< Density one       0.00
                       o<<<<< Density two       0.00
                       o<<<<< Density ab        0.00
                       o<<<<< Spin adapt        0.00
                       o<<<<< Symm adapt        0.00

                       o<<<<< (ab) max sync:      0.00
       1.0000      -1.02707196 -2.22D-08 -2.22D-08  9.52D-09 7.0D-01      2.3

          Number of sigma calls:        9
                       o<<<<< (aa):             0.00
                       o<<<<< (bb):             0.00
                       o<<<<< (ab):             0.01
                       o<<<<< (total)           0.01
                       o<<<<< (aa) ff           0.00
                       o<<<<< (aa) gop          0.00
                       o<<<<< (aa) dot          0.00
                       o<<<<< (ab) str          0.00
                       o<<<<< (ab) gath         0.00
                       o<<<<< (ab) dotab        0.00
                       o<<<<< (ab) scat         0.00
                       o<<<<< (ab) sync         0.00
                       o<<<<< Density           0.00
                       o<<<<< Density one       0.00
                       o<<<<< Density two       0.00
                       o<<<<< Density ab        0.00
                       o<<<<< Spin adapt        0.00
                       o<<<<< Symm adapt        0.00

                       o<<<<< (ab) max sync:      0.00
       3.3276      -1.02707199  5.13D-11  4.56D-11  9.55D-09 1.6D-03      2.4



          %%%%% MacroIteration   5 %%%%%


          Number of sigma calls:        1
                       o<<<<< (aa):             0.00
                       o<<<<< (bb):             0.00
                       o<<<<< (ab):             0.00
                       o<<<<< (total)           0.00
                       o<<<<< (aa) ff           0.00
                       o<<<<< (aa) gop          0.00
                       o<<<<< (aa) dot          0.00
                       o<<<<< (ab) str          0.00
                       o<<<<< (ab) gath         0.00
                       o<<<<< (ab) dotab        0.00
                       o<<<<< (ab) scat         0.00
                       o<<<<< (ab) sync         0.00
                       o<<<<< Density           0.00
                       o<<<<< Density one       0.00
                       o<<<<< Density two       0.00
                       o<<<<< Density ab        0.00
                       o<<<<< Spin adapt        0.00
                       o<<<<< Symm adapt        0.00

                       o<<<<< (ab) max sync:      0.00

           >>>| Valence CI:             -1.304849764947
           >>>| MCSCF energy:           -1.027071987170
           >>>| Gradient norm:          0.143942665D-03
     --- Warning:  456 Hessian diagonals < 0.05 ---

                              ----- Line search ------

        step       energy         lsg     num-lsg   num-lsh   lsrat    time
      ------- ---------------- --------- --------- --------- ------- --------
       0.0000      -1.02707199 -2.24D-08  0.00D+00  0.00D+00 0.0D+00      2.7

          Number of sigma calls:        8
                       o<<<<< (aa):             0.00
                       o<<<<< (bb):             0.00
                       o<<<<< (ab):             0.00
                       o<<<<< (total)           0.00
                       o<<<<< (aa) ff           0.00
                       o<<<<< (aa) gop          0.00
                       o<<<<< (aa) dot          0.00
                       o<<<<< (ab) str          0.00
                       o<<<<< (ab) gath         0.00
                       o<<<<< (ab) dotab        0.00
                       o<<<<< (ab) scat         0.00
                       o<<<<< (ab) sync         0.00
                       o<<<<< Density           0.00
                       o<<<<< Density one       0.00
                       o<<<<< Density two       0.00
                       o<<<<< Density ab        0.00
                       o<<<<< Spin adapt        0.00
                       o<<<<< Symm adapt        0.00

                       o<<<<< (ab) max sync:      0.00
       1.0000      -1.02707200 -1.26D-08 -1.26D-08  9.86D-09 5.6D-01      2.8

          Number of sigma calls:        9
                       o<<<<< (aa):             0.00
                       o<<<<< (bb):             0.00
                       o<<<<< (ab):             0.01
                       o<<<<< (total)           0.01
                       o<<<<< (aa) ff           0.00
                       o<<<<< (aa) gop          0.00
                       o<<<<< (aa) dot          0.00
                       o<<<<< (ab) str          0.00
                       o<<<<< (ab) gath         0.00
                       o<<<<< (ab) dotab        0.00
                       o<<<<< (ab) scat         0.00
                       o<<<<< (ab) sync         0.00
                       o<<<<< Density           0.00
                       o<<<<< Density one       0.00
                       o<<<<< Density two       0.00
                       o<<<<< Density ab        0.00
                       o<<<<< Spin adapt        0.00
                       o<<<<< Symm adapt        0.00

                       o<<<<< (ab) max sync:      0.00
       2.2765      -1.02707201 -2.17D-12 -1.93D-12  9.86D-09 9.7D-05      3.0



          %%%%% MacroIteration   6 %%%%%


          Number of sigma calls:        1
                       o<<<<< (aa):             0.00
                       o<<<<< (bb):             0.00
                       o<<<<< (ab):             0.00
                       o<<<<< (total)           0.00
                       o<<<<< (aa) ff           0.00
                       o<<<<< (aa) gop          0.00
                       o<<<<< (aa) dot          0.00
                       o<<<<< (ab) str          0.00
                       o<<<<< (ab) gath         0.00
                       o<<<<< (ab) dotab        0.00
                       o<<<<< (ab) scat         0.00
                       o<<<<< (ab) sync         0.00
                       o<<<<< Density           0.00
                       o<<<<< Density one       0.00
                       o<<<<< Density two       0.00
                       o<<<<< Density ab        0.00
                       o<<<<< Spin adapt        0.00
                       o<<<<< Symm adapt        0.00

                       o<<<<< (ab) max sync:      0.00

           >>>| Valence CI:             -1.304849790496
           >>>| MCSCF energy:           -1.027072012718
           >>>| Gradient norm:          0.335369277D-04




     ==============================
            MCSCF Converged
     ==============================



          Canonical Eigenvalues

              1      
    1   -0.3912
    2   -0.1094
    3   -0.0012
    4   -0.0009
    5   -0.0009
    6   -0.0001
    7   -0.0001
    8   -0.0001
    9   -0.0001
   10   -0.0000
   11    0.4789
   12    0.8075
   13    1.0200
   14    1.4015
   15    1.4015
   16    1.7371
   17    1.7371
   18    1.8129
   19    1.8750
   20    1.8750
   21    2.0477
   22    2.0477
   23    2.1311
   24    2.1311
   25    2.1893
   26    2.3899
   27    2.3899
   28    2.9413
   29    2.9561
   30    3.1268
   31    4.4008
   32    4.4008
   33    4.4073
   34    4.4528
   35    4.4528
   36    4.6827
   37    5.9038
   38    5.9656
   39    5.9656
   40    6.0440
   41    6.0440
   42    6.0642
   43    6.0642
   44    6.0672
   45    6.0672
   46    6.0891
   47    6.0891
   48    6.2018
   49    6.2018
   50    6.5567
   51    8.0398
   52    8.0398
   53    8.1069
   54    8.1069
   55    8.1623
   56    8.1623
   57    8.1788
   58    8.3642
   59    8.3642
   60    8.9746
   61    9.6195
   62    9.6849
   63    9.6931
   64    9.6931
   65    9.7420
   66    9.7420
   67    9.8790
   68    9.9552
   69   22.4783
   70   23.1012


          Converged CI vector

   Index           Coefficient          Config. Occupation
         1          0.90351093          1  1
        12         -0.42525204          2  2
        23         -0.03276005          3  3
        34         -0.02739840          4  4
        45         -0.02739840          5  5

          Number of sigma calls:        1
                       o<<<<< (aa):             0.00
                       o<<<<< (bb):             0.00
                       o<<<<< (ab):             0.00
                       o<<<<< (total)           0.00
                       o<<<<< (aa) ff           0.00
                       o<<<<< (aa) gop          0.00
                       o<<<<< (aa) dot          0.00
                       o<<<<< (ab) str          0.00
                       o<<<<< (ab) gath         0.00
                       o<<<<< (ab) dotab        0.00
                       o<<<<< (ab) scat         0.00
                       o<<<<< (ab) sync         0.00
                       o<<<<< Density           0.00
                       o<<<<< Density one       0.00
                       o<<<<< Density two       0.00
                       o<<<<< Density ab        0.00
                       o<<<<< Spin adapt        0.00
                       o<<<<< Symm adapt        0.00

                       o<<<<< (ab) max sync:      0.00



          Natural orbital occupation numbers

              1      
    1    1.6328
    2    0.3617
    3    0.0022
    4    0.0015
    5    0.0015
    6    0.0002
    7    0.0001
    8    0.0001
    9    0.0001
   10    0.0000


          Number of sigma calls:       13
                       o<<<<< (aa):             0.00
                       o<<<<< (bb):             0.00
                       o<<<<< (ab):             0.01
                       o<<<<< (total)           0.01
                       o<<<<< (aa) ff           0.00
                       o<<<<< (aa) gop          0.00
                       o<<<<< (aa) dot          0.00
                       o<<<<< (ab) str          0.00
                       o<<<<< (ab) gath         0.00
                       o<<<<< (ab) dotab        0.00
                       o<<<<< (ab) scat         0.00
                       o<<<<< (ab) sync         0.00
                       o<<<<< Density           0.00
                       o<<<<< Density one       0.00
                       o<<<<< Density two       0.00
                       o<<<<< Density ab        0.00
                       o<<<<< Spin adapt        0.00
                       o<<<<< Symm adapt        0.00

                       o<<<<< (ab) max sync:      0.00


       Final MCSCF results 
       ------------------- 

       Total MCSCF energy =     -1.027072012718
            Gradient norm =      3.4D-05

    CPU time for solution =      3.3s
   Wall time for solution =      3.8s



                        Analysis of MCSCF natural orbitals
                        ----------------------------------

 Vector    1  Occ=1.632782D+00  E=-3.912323D-01  Symmetry=a
              MO Center=  1.5D-15,  1.1D-12, -1.0D-15, r^2= 1.7D+00
   Bfn.  Coefficient  Atom+Function         Bfn.  Coefficient  Atom+Function  
  ----- ------------  ---------------      ----- ------------  ---------------
     3      0.300967  1 H  s                 38      0.300967  2 H  s          
     4      0.198219  1 H  s                 39      0.198219  2 H  s          
     2      0.157514  1 H  s                 37      0.157514  2 H  s          

 Vector    2  Occ=3.616786D-01  E=-1.093622D-01  Symmetry=a
              MO Center=  3.8D-16, -1.3D-12, -1.3D-15, r^2= 1.8D+00
   Bfn.  Coefficient  Atom+Function         Bfn.  Coefficient  Atom+Function  
  ----- ------------  ---------------      ----- ------------  ---------------
     3      0.425532  1 H  s                 38     -0.425532  2 H  s          
     2      0.217706  1 H  s                 37     -0.217706  2 H  s          
     4      0.192497  1 H  s                 39     -0.192497  2 H  s          

 Vector    3  Occ=2.153373D-03  E=-1.222202D-03  Symmetry=a
              MO Center= -3.5D-14,  4.2D-11,  2.3D-14, r^2= 2.5D+00
   Bfn.  Coefficient  Atom+Function         Bfn.  Coefficient  Atom+Function  
  ----- ------------  ---------------      ----- ------------  ---------------
     4      0.500499  1 H  s                 39      0.500499  2 H  s          
     9     -0.410097  1 H  py                44      0.410097  2 H  py         
    12     -0.375458  1 H  py                47      0.375458  2 H  py         
     3     -0.320979  1 H  s                 38     -0.320979  2 H  s          
    27      0.151501  1 H  fxxy              34      0.151501  1 H  fyzz       

 Vector    4  Occ=1.501344D-03  E=-8.605648D-04  Symmetry=a
              MO Center=  7.9D-14,  1.6D-11, -4.9D-15, r^2= 1.7D+00
   Bfn.  Coefficient  Atom+Function         Bfn.  Coefficient  Atom+Function  
  ----- ------------  ---------------      ----- ------------  ---------------
    11      0.693700  1 H  px                46      0.693700  2 H  px         
     8     -0.566779  1 H  px                43     -0.566779  2 H  px         
    29      0.302248  1 H  fxyy              64      0.302248  2 H  fxyy       
    21      0.282011  1 H  dxy               56     -0.282011  2 H  dxy        
    26      0.247811  1 H  fxxx              31      0.247811  1 H  fxzz       

 Vector    5  Occ=1.501344D-03  E=-8.605648D-04  Symmetry=a
              MO Center= -1.9D-15,  1.6D-11, -4.0D-14, r^2= 1.7D+00
   Bfn.  Coefficient  Atom+Function         Bfn.  Coefficient  Atom+Function  
  ----- ------------  ---------------      ----- ------------  ---------------
    13      0.693700  1 H  pz                48      0.693700  2 H  pz         
    10     -0.566779  1 H  pz                45     -0.566779  2 H  pz         
    33      0.302248  1 H  fyyz              68      0.302248  2 H  fyyz       
    24      0.282011  1 H  dyz               59     -0.282011  2 H  dyz        
    28      0.247811  1 H  fxxz              35      0.247811  1 H  fzzz       

 Vector    6  Occ=1.621405D-04  E=-1.096891D-04  Symmetry=a
              MO Center= -3.3D-14,  1.0D-10,  1.9D-14, r^2= 1.6D+00
   Bfn.  Coefficient  Atom+Function         Bfn.  Coefficient  Atom+Function  
  ----- ------------  ---------------      ----- ------------  ---------------
     2      0.717595  1 H  s                 37      0.717595  2 H  s          
     9      0.538583  1 H  py                44     -0.538583  2 H  py         
    12     -0.343183  1 H  py                47      0.343183  2 H  py         
     3     -0.315841  1 H  s                 38     -0.315841  2 H  s          
     4     -0.301209  1 H  s                 39     -0.301209  2 H  s          

 Vector    7  Occ=6.656054D-05  E=-5.553085D-05  Symmetry=a
              MO Center=  2.7D-13, -6.0D-12,  4.0D-12, r^2= 1.4D+00
   Bfn.  Coefficient  Atom+Function         Bfn.  Coefficient  Atom+Function  
  ----- ------------  ---------------      ----- ------------  ---------------
    10      0.762943  1 H  pz                45     -0.762943  2 H  pz         
    13      0.352802  1 H  pz                48     -0.352802  2 H  pz         
    24      0.234586  1 H  dyz               59      0.234586  2 H  dyz        
    28     -0.197024  1 H  fxxz              35     -0.197024  1 H  fzzz       
    63      0.197024  2 H  fxxz              70      0.197024  2 H  fzzz       

 Vector    8  Occ=6.656054D-05  E=-5.553085D-05  Symmetry=a
              MO Center= -7.7D-12, -6.2D-12,  5.1D-13, r^2= 1.4D+00
   Bfn.  Coefficient  Atom+Function         Bfn.  Coefficient  Atom+Function  
  ----- ------------  ---------------      ----- ------------  ---------------
     8      0.762943  1 H  px                43     -0.762943  2 H  px         
    11      0.352802  1 H  px                46     -0.352802  2 H  px         
    21      0.234586  1 H  dxy               56      0.234586  2 H  dxy        
    26     -0.197024  1 H  fxxx              31     -0.197024  1 H  fxzz       
    61      0.197024  2 H  fxxx              66      0.197024  2 H  fxzz       

 Vector    9  Occ=6.349194D-05  E=-5.548734D-05  Symmetry=a
              MO Center=  9.5D-12,  3.4D-10, -5.8D-12, r^2= 1.9D+00
   Bfn.  Coefficient  Atom+Function         Bfn.  Coefficient  Atom+Function  
  ----- ------------  ---------------      ----- ------------  ---------------
     9      0.726820  1 H  py                44      0.726820  2 H  py         
     2      0.656830  1 H  s                 37     -0.656830  2 H  s          
     3     -0.553394  1 H  s                 38      0.553394  2 H  s          
     4     -0.273239  1 H  s                 39      0.273239  2 H  s          
    27     -0.186878  1 H  fxxy              34     -0.186878  1 H  fyzz       

 Vector   10  Occ=2.466162D-05  E=-2.629990D-05  Symmetry=a
              MO Center=  9.4D-15,  1.9D-09, -5.1D-15, r^2= 2.4D+00
   Bfn.  Coefficient  Atom+Function         Bfn.  Coefficient  Atom+Function  
  ----- ------------  ---------------      ----- ------------  ---------------
     9      3.544100  1 H  py                44     -3.544100  2 H  py         
    27     -1.533991  1 H  fxxy              34     -1.533991  1 H  fyzz       
    62      1.533991  2 H  fxxy              69      1.533991  2 H  fyzz       
     3     -1.381930  1 H  s                 38     -1.381930  2 H  s          
    32     -1.209290  1 H  fyyy              67      1.209290  2 H  fyyy       

 Vector   11  Occ=0.000000D+00  E= 4.788725D-01  Symmetry=a
              MO Center=  3.8D-13,  1.8D-10, -2.2D-13, r^2= 7.6D+00
   Bfn.  Coefficient  Atom+Function         Bfn.  Coefficient  Atom+Function  
  ----- ------------  ---------------      ----- ------------  ---------------
     3      2.754824  1 H  s                 38     -2.754824  2 H  s          
     4     -2.465442  1 H  s                 39      2.465442  2 H  s          
     2     -0.670884  1 H  s                 37      0.670884  2 H  s          
     9      0.656547  1 H  py                44      0.656547  2 H  py         
    12     -0.616599  1 H  py                47     -0.616599  2 H  py         

 Vector   12  Occ=0.000000D+00  E= 8.075361D-01  Symmetry=a
              MO Center= -2.1D-15, -1.8D-10,  1.8D-15, r^2= 5.4D+00
   Bfn.  Coefficient  Atom+Function         Bfn.  Coefficient  Atom+Function  
  ----- ------------  ---------------      ----- ------------  ---------------
     3      3.765481  1 H  s                 38      3.765481  2 H  s          
     4     -1.449516  1 H  s                 39     -1.449516  2 H  s          
     2     -1.187209  1 H  s                 37     -1.187209  2 H  s          
     9      0.748800  1 H  py                44     -0.748800  2 H  py         
    20     -0.583104  1 H  dxx               23     -0.582432  1 H  dyy        

 Vector   13  Occ=0.000000D+00  E= 1.020007D+00  Symmetry=a
              MO Center= -3.3D-12, -2.7D-09,  2.0D-12, r^2= 2.9D+00
   Bfn.  Coefficient  Atom+Function         Bfn.  Coefficient  Atom+Function  
  ----- ------------  ---------------      ----- ------------  ---------------
     9     -2.966879  1 H  py                44     -2.966879  2 H  py         
     3      2.817845  1 H  s                 38     -2.817845  2 H  s          
    12      1.902500  1 H  py                47      1.902500  2 H  py         
    32      1.155642  1 H  fyyy              67      1.155642  2 H  fyyy       
    27      1.113004  1 H  fxxy              34      1.113004  1 H  fyzz       

 Vector   14  Occ=0.000000D+00  E= 1.401528D+00  Symmetry=a
              MO Center= -3.0D-14, -5.5D-11, -5.1D-13, r^2= 3.2D+00
   Bfn.  Coefficient  Atom+Function         Bfn.  Coefficient  Atom+Function  
  ----- ------------  ---------------      ----- ------------  ---------------
    10      5.633505  1 H  pz                45     -5.633505  2 H  pz         
    33     -2.190526  1 H  fyyz              68      2.190526  2 H  fyyz       
    28     -2.172147  1 H  fxxz              35     -2.172147  1 H  fzzz       
    63      2.172147  2 H  fxxz              70      2.172147  2 H  fzzz       
    13     -1.647006  1 H  pz                48      1.647006  2 H  pz         

 Vector   15  Occ=0.000000D+00  E= 1.401528D+00  Symmetry=a
              MO Center=  1.0D-12, -5.5D-11, -5.8D-14, r^2= 3.2D+00
   Bfn.  Coefficient  Atom+Function         Bfn.  Coefficient  Atom+Function  
  ----- ------------  ---------------      ----- ------------  ---------------
     8      5.633505  1 H  px                43     -5.633505  2 H  px         
    29     -2.190526  1 H  fxyy              64      2.190526  2 H  fxyy       
    26     -2.172147  1 H  fxxx              31     -2.172147  1 H  fxzz       
    61      2.172147  2 H  fxxx              66      2.172147  2 H  fxzz       
    11     -1.647006  1 H  px                46      1.647006  2 H  px         

 Vector   16  Occ=0.000000D+00  E= 1.737069D+00  Symmetry=a
              MO Center=  1.1D-15,  3.4D-11,  1.4D-14, r^2= 2.3D+00
   Bfn.  Coefficient  Atom+Function         Bfn.  Coefficient  Atom+Function  
  ----- ------------  ---------------      ----- ------------  ---------------
    10      5.566910  1 H  pz                45      5.566910  2 H  pz         
    28     -2.196013  1 H  fxxz              35     -2.196013  1 H  fzzz       
    63     -2.196013  2 H  fxxz              70     -2.196013  2 H  fzzz       
    33     -2.149398  1 H  fyyz              68     -2.149398  2 H  fyyz       
     7     -1.479484  1 H  pz                42     -1.479484  2 H  pz         

 Vector   17  Occ=0.000000D+00  E= 1.737069D+00  Symmetry=a
              MO Center= -2.5D-14,  3.4D-11,  1.9D-15, r^2= 2.3D+00
   Bfn.  Coefficient  Atom+Function         Bfn.  Coefficient  Atom+Function  
  ----- ------------  ---------------      ----- ------------  ---------------
     8      5.566910  1 H  px                43      5.566910  2 H  px         
    26     -2.196013  1 H  fxxx              31     -2.196013  1 H  fxzz       
    61     -2.196013  2 H  fxxx              66     -2.196013  2 H  fxzz       
    29     -2.149398  1 H  fxyy              64     -2.149398  2 H  fxyy       
     5     -1.479484  1 H  px                40     -1.479484  2 H  px         

 Vector   18  Occ=0.000000D+00  E= 1.812891D+00  Symmetry=a
              MO Center=  2.3D-13,  1.1D-09, -1.5D-13, r^2= 3.7D+00
   Bfn.  Coefficient  Atom+Function         Bfn.  Coefficient  Atom+Function  
  ----- ------------  ---------------      ----- ------------  ---------------
     9      5.476152  1 H  py                44      5.476152  2 H  py         
     3      2.141851  1 H  s                 38     -2.141851  2 H  s          
    32     -2.086189  1 H  fyyy              67     -2.086189  2 H  fyyy       
    27     -2.050402  1 H  fxxy              34     -2.050402  1 H  fyzz       
    62     -2.050402  2 H  fxxy              69     -2.050402  2 H  fyzz       

 Vector   19  Occ=0.000000D+00  E= 1.875023D+00  Symmetry=a
              MO Center= -7.3D-15,  1.1D-11,  1.5D-16, r^2= 2.1D+00
   Bfn.  Coefficient  Atom+Function         Bfn.  Coefficient  Atom+Function  
  ----- ------------  ---------------      ----- ------------  ---------------
     8      2.848913  1 H  px                43      2.848913  2 H  px         
    29     -1.123207  1 H  fxyy              64     -1.123207  2 H  fxyy       
    26     -1.102144  1 H  fxxx              31     -1.102144  1 H  fxzz       
    61     -1.102144  2 H  fxxx              66     -1.102144  2 H  fxzz       
    21     -1.024234  1 H  dxy               56      1.024234  2 H  dxy        

 Vector   20  Occ=0.000000D+00  E= 1.875023D+00  Symmetry=a
              MO Center= -1.5D-15,  1.1D-11, -1.2D-16, r^2= 2.1D+00
   Bfn.  Coefficient  Atom+Function         Bfn.  Coefficient  Atom+Function  
  ----- ------------  ---------------      ----- ------------  ---------------
    10      2.848913  1 H  pz                45      2.848913  2 H  pz         
    33     -1.123207  1 H  fyyz              68     -1.123207  2 H  fyyz       
    28     -1.102144  1 H  fxxz              35     -1.102144  1 H  fzzz       
    63     -1.102144  2 H  fxxz              70     -1.102144  2 H  fzzz       
    24     -1.024234  1 H  dyz               59      1.024234  2 H  dyz        


 Wrote Lagrangian and 1- and 2-particle density matrices to ./H2.mcpdm


     Multipole analysis of the density
     ---------------------------------

     L   x y z        total        nuclear
     -   - - -        -----        -------
     0   0 0 0     -0.000000      2.000000

     1   1 0 0     -0.000000      0.000000
     1   0 1 0     -0.000000      0.000000
     1   0 0 1      0.000000      0.000000

     2   2 0 0     -2.111291      0.000000
     2   1 1 0      0.000000      0.000000
     2   1 0 1     -0.000000      0.000000
     2   0 2 0     -1.308200      6.480000
     2   0 1 1     -0.000000      0.000000
     2   0 0 2     -2.111291      0.000000


  Mulliken analysis of the total density
  --------------------------------------

    Atom       Charge   Shell Charges
 -----------   ------   -------------------------------------------------------
    1 H    1     1.00   0.04  0.20  0.47  0.28  0.00 -0.00  0.01  0.00  0.00  0.00
    2 H    1     1.00   0.04  0.20  0.47  0.28  0.00 -0.00  0.01  0.00  0.00  0.00

    Mulliken analysis of the active space density
    ---------------------------------------------

    Atom       Charge   Shell Charges
 -----------   ------   -------------------------------------------------------
    1 H    1     1.00   0.04  0.20  0.47  0.28  0.00 -0.00  0.01  0.00  0.00  0.00
    2 H    1     1.00   0.04  0.20  0.47  0.28  0.00 -0.00  0.01  0.00  0.00  0.00

 Parallel integral file used      19 records with       0 large values


 Task  times  cpu:        3.3s     wall:        3.8s


                                NWChem Input Module
                                -------------------


                                 NWChem SCF Module
                                 -----------------


                                        H2



  ao basis        = "ao basis"
  functions       =    70
  atoms           =     2
  closed shells   =     1
  open shells     =     0
  charge          =   0.00
  wavefunction    = RHF 
  input vectors   = ./H2.mos
  output vectors  = ./H2-3.60.mos
  use symmetry    = F
  symmetry adapt  = F


 Summary of "ao basis" -> "ao basis" (cartesian)
 ------------------------------------------------------------------------------
       Tag                 Description            Shells   Functions and Types
 ---------------- ------------------------------  ------  ---------------------
 H                          cc-pVQZ                 10       35   4s3p2d1f



 Forming initial guess at       3.9s


 Loading old vectors from job with title :

H2


 Starting SCF solution at       3.9s



 ----------------------------------------------
         Quadratically convergent ROHF

 Convergence threshold     :          1.000E-04
 Maximum no. of iterations :           30
 Final Fock-matrix accuracy:          1.000E-07
 ----------------------------------------------


 Integral file          = ./H2.aoints.0
 Record size in doubles =  65536        No. of integs per rec  =  43688
 Max. records in memory =     99        Max. records in file   = 280272
 No. of bits per label  =      8        No. of bits per value  =     64


 #quartets = 2.181D+04 #integrals = 7.538D+05 #direct =  0.0% #cached =100.0%



       Final RHF  results 
       ------------------ 

         Total SCF energy =     -0.931202490115
      One-electron energy =     -1.651288406735
      Two-electron energy =      0.442308138842
 Nuclear repulsion energy =      0.277777777778

        Time for solution =      0.0s


             Final eigenvalues
             -----------------

              1      
    1   -0.3912
    2   -0.1094
    3   -0.0012
    4   -0.0009
    5   -0.0009
    6   -0.0001
    7   -0.0001
    8   -0.0001
    9   -0.0001
   10   -0.0000
   11    0.4789

                       ROHF Final Molecular Orbital Analysis
                       -------------------------------------

 Vector    1  Occ=2.000000D+00  E=-3.912323D-01
              MO Center=  1.5D-15,  1.1D-12, -1.0D-15, r^2= 1.7D+00
   Bfn.  Coefficient  Atom+Function         Bfn.  Coefficient  Atom+Function  
  ----- ------------  ---------------      ----- ------------  ---------------
     3      0.300967  1 H  s                 38      0.300967  2 H  s          
     4      0.198219  1 H  s                 39      0.198219  2 H  s          
     2      0.157514  1 H  s                 37      0.157514  2 H  s          

 Vector    2  Occ=0.000000D+00  E=-1.093622D-01
              MO Center=  3.8D-16, -1.3D-12, -1.3D-15, r^2= 1.8D+00
   Bfn.  Coefficient  Atom+Function         Bfn.  Coefficient  Atom+Function  
  ----- ------------  ---------------      ----- ------------  ---------------
     3      0.425532  1 H  s                 38     -0.425532  2 H  s          
     2      0.217706  1 H  s                 37     -0.217706  2 H  s          
     4      0.192497  1 H  s                 39     -0.192497  2 H  s          

 Vector    3  Occ=0.000000D+00  E=-1.222202D-03
              MO Center= -3.5D-14,  4.2D-11,  2.3D-14, r^2= 2.5D+00
   Bfn.  Coefficient  Atom+Function         Bfn.  Coefficient  Atom+Function  
  ----- ------------  ---------------      ----- ------------  ---------------
     4      0.500499  1 H  s                 39      0.500499  2 H  s          
     9     -0.410097  1 H  py                44      0.410097  2 H  py         
    12     -0.375458  1 H  py                47      0.375458  2 H  py         
     3     -0.320979  1 H  s                 38     -0.320979  2 H  s          
    27      0.151501  1 H  fxxy              34      0.151501  1 H  fyzz       

 Vector    4  Occ=0.000000D+00  E=-8.605648D-04
              MO Center=  7.9D-14,  1.6D-11, -4.9D-15, r^2= 1.7D+00
   Bfn.  Coefficient  Atom+Function         Bfn.  Coefficient  Atom+Function  
  ----- ------------  ---------------      ----- ------------  ---------------
    11      0.693700  1 H  px                46      0.693700  2 H  px         
     8     -0.566779  1 H  px                43     -0.566779  2 H  px         
    29      0.302248  1 H  fxyy              64      0.302248  2 H  fxyy       
    21      0.282011  1 H  dxy               56     -0.282011  2 H  dxy        
    26      0.247811  1 H  fxxx              31      0.247811  1 H  fxzz       

 Vector    5  Occ=0.000000D+00  E=-8.605648D-04
              MO Center= -1.9D-15,  1.6D-11, -4.0D-14, r^2= 1.7D+00
   Bfn.  Coefficient  Atom+Function         Bfn.  Coefficient  Atom+Function  
  ----- ------------  ---------------      ----- ------------  ---------------
    13      0.693700  1 H  pz                48      0.693700  2 H  pz         
    10     -0.566779  1 H  pz                45     -0.566779  2 H  pz         
    33      0.302248  1 H  fyyz              68      0.302248  2 H  fyyz       
    24      0.282011  1 H  dyz               59     -0.282011  2 H  dyz        
    28      0.247811  1 H  fxxz              35      0.247811  1 H  fzzz       

 Vector    6  Occ=0.000000D+00  E=-1.096891D-04
              MO Center= -3.3D-14,  1.0D-10,  1.9D-14, r^2= 1.6D+00
   Bfn.  Coefficient  Atom+Function         Bfn.  Coefficient  Atom+Function  
  ----- ------------  ---------------      ----- ------------  ---------------
     2      0.717595  1 H  s                 37      0.717595  2 H  s          
     9      0.538583  1 H  py                44     -0.538583  2 H  py         
    12     -0.343183  1 H  py                47      0.343183  2 H  py         
     3     -0.315841  1 H  s                 38     -0.315841  2 H  s          
     4     -0.301209  1 H  s                 39     -0.301209  2 H  s          

 Vector    7  Occ=0.000000D+00  E=-5.553085D-05
              MO Center=  2.7D-13, -6.0D-12,  4.0D-12, r^2= 1.4D+00
   Bfn.  Coefficient  Atom+Function         Bfn.  Coefficient  Atom+Function  
  ----- ------------  ---------------      ----- ------------  ---------------
    10      0.762943  1 H  pz                45     -0.762943  2 H  pz         
    13      0.352802  1 H  pz                48     -0.352802  2 H  pz         
    24      0.234586  1 H  dyz               59      0.234586  2 H  dyz        
    28     -0.197024  1 H  fxxz              35     -0.197024  1 H  fzzz       
    63      0.197024  2 H  fxxz              70      0.197024  2 H  fzzz       

 Vector    8  Occ=0.000000D+00  E=-5.553085D-05
              MO Center= -7.7D-12, -6.2D-12,  5.1D-13, r^2= 1.4D+00
   Bfn.  Coefficient  Atom+Function         Bfn.  Coefficient  Atom+Function  
  ----- ------------  ---------------      ----- ------------  ---------------
     8      0.762943  1 H  px                43     -0.762943  2 H  px         
    11      0.352802  1 H  px                46     -0.352802  2 H  px         
    21      0.234586  1 H  dxy               56      0.234586  2 H  dxy        
    26     -0.197024  1 H  fxxx              31     -0.197024  1 H  fxzz       
    61      0.197024  2 H  fxxx              66      0.197024  2 H  fxzz       

 Vector    9  Occ=0.000000D+00  E=-5.548734D-05
              MO Center=  9.5D-12,  3.4D-10, -5.8D-12, r^2= 1.9D+00
   Bfn.  Coefficient  Atom+Function         Bfn.  Coefficient  Atom+Function  
  ----- ------------  ---------------      ----- ------------  ---------------
     9      0.726820  1 H  py                44      0.726820  2 H  py         
     2      0.656830  1 H  s                 37     -0.656830  2 H  s          
     3     -0.553394  1 H  s                 38      0.553394  2 H  s          
     4     -0.273239  1 H  s                 39      0.273239  2 H  s          
    27     -0.186878  1 H  fxxy              34     -0.186878  1 H  fyzz       

 Vector   10  Occ=0.000000D+00  E=-2.629990D-05
              MO Center=  9.4D-15,  1.9D-09, -5.1D-15, r^2= 2.4D+00
   Bfn.  Coefficient  Atom+Function         Bfn.  Coefficient  Atom+Function  
  ----- ------------  ---------------      ----- ------------  ---------------
     9      3.544100  1 H  py                44     -3.544100  2 H  py         
    27     -1.533991  1 H  fxxy              34     -1.533991  1 H  fyzz       
    62      1.533991  2 H  fxxy              69      1.533991  2 H  fyzz       
     3     -1.381930  1 H  s                 38     -1.381930  2 H  s          
    32     -1.209290  1 H  fyyy              67      1.209290  2 H  fyyy       

 Vector   11  Occ=0.000000D+00  E= 4.788725D-01
              MO Center=  3.8D-13,  1.8D-10, -2.2D-13, r^2= 7.6D+00
   Bfn.  Coefficient  Atom+Function         Bfn.  Coefficient  Atom+Function  
  ----- ------------  ---------------      ----- ------------  ---------------
     3      2.754824  1 H  s                 38     -2.754824  2 H  s          
     4     -2.465442  1 H  s                 39      2.465442  2 H  s          
     2     -0.670884  1 H  s                 37      0.670884  2 H  s          
     9      0.656547  1 H  py                44      0.656547  2 H  py         
    12     -0.616599  1 H  py                47     -0.616599  2 H  py         

 Vector   12  Occ=0.000000D+00  E= 8.075361D-01
              MO Center= -2.1D-15, -1.8D-10,  1.8D-15, r^2= 5.4D+00
   Bfn.  Coefficient  Atom+Function         Bfn.  Coefficient  Atom+Function  
  ----- ------------  ---------------      ----- ------------  ---------------
     3      3.765481  1 H  s                 38      3.765481  2 H  s          
     4     -1.449516  1 H  s                 39     -1.449516  2 H  s          
     2     -1.187209  1 H  s                 37     -1.187209  2 H  s          
     9      0.748800  1 H  py                44     -0.748800  2 H  py         
    20     -0.583104  1 H  dxx               23     -0.582432  1 H  dyy        


 center of mass
 --------------
 x =   0.00000000 y =   0.00000000 z =   0.00000000

 moments of inertia (a.u.)
 ------------------
           6.530706000000           0.000000000000           0.000000000000
           0.000000000000           0.000000000000           0.000000000000
           0.000000000000           0.000000000000           6.530706000000

  Mulliken analysis of the total density
  --------------------------------------

    Atom       Charge   Shell Charges
 -----------   ------   -------------------------------------------------------
    1 H    1     1.00   0.04  0.19  0.45  0.31  0.00 -0.00  0.00  0.00  0.00  0.00
    2 H    1     1.00   0.04  0.19  0.45  0.31  0.00 -0.00  0.00  0.00  0.00  0.00

       Multipole analysis of the density wrt the origin
       ------------------------------------------------

     L   x y z        total         open         nuclear
     -   - - -        -----         ----         -------
     0   0 0 0     -0.000000      0.000000      2.000000

     1   1 0 0     -0.000000      0.000000      0.000000
     1   0 1 0     -0.000000      0.000000      0.000000
     1   0 0 1      0.000000      0.000000      0.000000

     2   2 0 0     -2.222171      0.000000      0.000000
     2   1 1 0      0.000000      0.000000      0.000000
     2   1 0 1     -0.000000      0.000000      0.000000
     2   0 2 0     -0.935156      0.000000      6.480000
     2   0 1 1      0.000000      0.000000      0.000000
     2   0 0 2     -2.222171      0.000000      0.000000


 Parallel integral file used      18 records with       0 large values

 ------------------------------------
     Number of active orbitals     10
     Number of active alpha electrons      1
     Number of active beta electrons       1
 ------------------------------------
                   NWChem Extensible Many-Electron Theory Module
                   ---------------------------------------------

              ======================================================
                   This portion of the program was automatically
                  generated by a Tensor Contraction Engine (TCE).
                  The development of this portion of the program
                 and TCE was supported by US Department of Energy,
                Office of Science, Office of Basic Energy Science.
                      TCE is a product of Battelle and PNNL.
              Please cite: S.Hirata, J.Phys.Chem.A 107, 9887 (2003).
              ======================================================

                                        H2


            General Information
            -------------------
      Number of processors :     1
         Wavefunction type : Restricted Hartree-Fock
          No. of electrons :     2
           Alpha electrons :     1
            Beta electrons :     1
           No. of orbitals :   140
            Alpha orbitals :    70
             Beta orbitals :    70
        Alpha frozen cores :     0
         Beta frozen cores :     0
     Alpha frozen virtuals :    60
      Beta frozen virtuals :    60
         Spin multiplicity : singlet 
    Number of AO functions :    70
       Number of AO shells :    20
        Use of symmetry is : off
      Symmetry adaption is : off
         Schwarz screening : 0.10D-09

          Correlation Information
          -----------------------
          Calculation type : Coupled-cluster singles & doubles                           
   Perturbative correction : none                                                        
            Max iterations :      300
        Residual threshold : 0.10D-06
     T(0) DIIS level shift : 0.00D+00
     L(0) DIIS level shift : 0.00D+00
     T(1) DIIS level shift : 0.00D+00
     L(1) DIIS level shift : 0.00D+00
     T(R) DIIS level shift : 0.00D+00
     T(I) DIIS level shift : 0.00D+00
   CC-T/L Amplitude update :  5-th order DIIS
                I/O scheme : Global Array Library
        L-threshold :  0.10D-06
        EOM-threshold :  0.10D-06
 no EOMCCSD initial starts read in
 TCE RESTART OPTIONS
 READ_INT:   F
 WRITE_INT:  F
 READ_TA:    F
 WRITE_TA:   F
 READ_XA:    F
 WRITE_XA:   F
 READ_IN3:   F
 WRITE_IN3:  F
 SLICE:      F
 D4D5:       F
 quantumc:   T
 qrotation:  F
 pwtce:      F
 qducc:      F
 nacto:                         0
 nrotv:                         0
 nrot:                          0

            Memory Information
            ------------------
          Available GA space size is    1610607836 doubles
          Available MA space size is    1610610644 doubles

 Maximum block size supplied by input
 Maximum block size         1 doubles

 tile_dim =      1

 Block   Spin    Irrep     Size     Offset   Alpha
 -------------------------------------------------
   1    alpha     a      1 doubles       0       1
   2    beta      a      1 doubles       1       1
   3    alpha     a      1 doubles       2       3
   4    alpha     a      1 doubles       3       4
   5    alpha     a      1 doubles       4       5
   6    alpha     a      1 doubles       5       6
   7    alpha     a      1 doubles       6       7
   8    alpha     a      1 doubles       7       8
   9    alpha     a      1 doubles       8       9
  10    alpha     a      1 doubles       9      10
  11    alpha     a      1 doubles      10      11
  12    beta      a      1 doubles      11       3
  13    beta      a      1 doubles      12       4
  14    beta      a      1 doubles      13       5
  15    beta      a      1 doubles      14       6
  16    beta      a      1 doubles      15       7
  17    beta      a      1 doubles      16       8
  18    beta      a      1 doubles      17       9
  19    beta      a      1 doubles      18      10
  20    beta      a      1 doubles      19      11

 Global array virtual files algorithm will be used

 Parallel file system coherency ......... OK

 Integral file          = ./H2.aoints.0
 Record size in doubles =  65536        No. of integs per rec  =  43688
 Max. records in memory =     99        Max. records in file   = 280272
 No. of bits per label  =      8        No. of bits per value  =     64


 #quartets = 2.209D+04 #integrals = 8.358D+05 #direct =  0.0% #cached =100.0%


 Fock matrix recomputed
 1-e file size   =              100
 1-e file name   = ./H2.f1
 Cpu & wall time / sec            0.1            0.1
 4-electron integrals stored in orbital form

 v2    file size   =             1540
 4-index algorithm nr.  13 is used
 imaxsize =       30
 imaxsize ichop =        0
 begin_one_electron_integrals
    1    1        -0.8256442034
    3    1         0.0774986022
    6    1        -0.0064481662
   10    1        -0.0015942580
    2    2        -0.7001021347
    9    2         0.0046223925
    1    3         0.0774986022
    3    3        -0.1577116290
    6    3        -0.0049807217
   10    3        -0.2708689961
    4    4        -0.1573003173
    5    5        -0.1573003173
    1    6        -0.0064481662
    3    6        -0.0049807217
    6    6         0.0480332372
   10    6        -0.0248984229
    7    7         0.3660173327
    8    8         0.3660173327
    2    9         0.0046223925
    9    9         0.4436981630
   10    9        -0.0000000004
    1   10        -0.0015942580
    3   10        -0.2708689961
    6   10        -0.0248984229
    9   10        -0.0000000004
   10   10         0.9003833022
 end_one_electron_integrals
 begin_two_electron_integrals
    1    1    1    1        0.4423081390
    2    1    2    1        0.1866693339
    3    1    1    1       -0.0758074642
    3    1    3    1        0.0679360248
    3    1    2    2       -0.0596751333
    4    1    4    1        0.0603323371
    5    1    5    1        0.0603323371
    6    1    1    1        0.0635500392
    6    1    3    1        0.0020392315
    6    1    6    1        0.0716747767
    6    1    2    2        0.0932299587
    6    1    3    3        0.0211543349
    6    1    4    4        0.0138465872
    6    1    5    5        0.0138465872
    7    1    7    1        0.0538596646
    7    1    4    2        0.0006468573
    7    1    5    2        0.0411098444
    8    1    8    1        0.0538596646
    8    1    4    2        0.0411098444
    8    1    5    2       -0.0006468573
    9    1    2    1        0.0454083235
    9    1    9    1        0.0615252107
    9    1    3    2       -0.0360559664
    9    1    6    2        0.0434732690
    9    1    7    4        0.0004311679
    9    1    8    4        0.0274020929
    9    1    7    5        0.0274020929
    9    1    8    5       -0.0004311679
   10    1    1    1       -0.0077118514
   10    1    3    1       -0.0157685221
   10    1    6    1       -0.0100919404
   10    1   10    1        0.0262410819
   10    1    2    2       -0.0156882043
   10    1    9    2        0.0050118368
   10    1    3    3        0.0243904949
   10    1    6    3        0.0069768233
   10    1    4    4       -0.0094545580
   10    1    5    5       -0.0094545580
   10    1    6    6       -0.0175308690
   10    1    7    7       -0.0156093391
   10    1    8    8       -0.0156093391
   10    1    9    9        0.0093941988
    2    2    1    1        0.4532453237
    2    2    2    2        0.4800748083
    3    2    2    1        0.0073746959
    3    2    3    2        0.0308768424
    4    2    4    2        0.0320900160
    5    2    5    2        0.0320900160
    6    2    2    1        0.1243662253
    6    2    3    2        0.0003019741
    6    2    6    2        0.1058751286
    7    2    4    1        0.0009294324
    7    2    5    1        0.0590683955
    7    2    7    2        0.0699071616
    7    2    4    3       -0.0001296799
    7    2    5    3       -0.0082415703
    7    2    6    4       -0.0002446683
    7    2    6    5       -0.0155494484
    8    2    4    1        0.0590683955
    8    2    5    1       -0.0009294324
    8    2    8    2        0.0699071616
    8    2    4    3       -0.0082415703
    8    2    5    3        0.0001296799
    8    2    6    4       -0.0155494484
    8    2    6    5        0.0002446683
    9    2    1    1        0.0891100293
    9    2    3    1       -0.0620483734
    9    2    6    1        0.0343047422
    9    2    2    2        0.0887479425
    9    2    9    2        0.0837987731
    9    2    3    3        0.0766072315
    9    2    6    3        0.0025784519
    9    2    4    4        0.0643152403
    9    2    5    5        0.0643152403
    9    2    6    6        0.0992155275
    9    2    7    7        0.0834179140
    9    2    8    8        0.0834179140
   10    2    2    1       -0.0223423913
   10    2    9    1       -0.0048808718
   10    2    3    2       -0.0005206753
   10    2    6    2       -0.0200083787
   10    2   10    2        0.0162778871
   10    2    9    3       -0.0011498683
   10    2    7    4       -0.0002656516
   10    2    8    4       -0.0168830035
   10    2    7    5       -0.0168830035
   10    2    8    5        0.0002656516
   10    2    9    6       -0.0120841662
    3    3    1    1        0.3995253341
    3    3    3    1       -0.0910837584
    3    3    2    2        0.3891272407
    3    3    3    3        0.4107000105
    4    3    4    1       -0.0134299448
    4    3    4    3        0.0201790352
    5    3    5    1       -0.0134299448
    5    3    5    3        0.0201790352
    6    3    1    1        0.0304876668
    6    3    3    1       -0.0184716744
    6    3    6    1       -0.0092410770
    6    3    2    2        0.0227377531
    6    3    3    3        0.0425309530
    6    3    6    3        0.0193116314
    6    3    4    4        0.0339932519
    6    3    5    5        0.0339932519
    7    3    7    1       -0.0050145115
    7    3    4    2       -0.0000403943
    7    3    5    2       -0.0025671840
    7    3    7    3        0.0119336758
    8    3    8    1       -0.0050145115
    8    3    4    2       -0.0025671840
    8    3    5    2        0.0000403943
    8    3    8    3        0.0119336758
    9    3    2    1       -0.1214563356
    9    3    9    1       -0.0355111362
    9    3    3    2        0.0004254796
    9    3    6    2       -0.0705931508
    9    3    9    3        0.1003139495
    9    3    7    4       -0.0013698135
    9    3    8    4       -0.0870560131
    9    3    7    5       -0.0870560131
    9    3    8    5        0.0013698135
   10    3    1    1       -0.0867088290
   10    3    3    1        0.0719682001
   10    3    6    1        0.0024024207
   10    3   10    1       -0.0242785494
   10    3    2    2       -0.0695677057
   10    3    9    2       -0.0587001531
   10    3    3    3       -0.1116996112
   10    3    6    3       -0.0244254446
   10    3   10    3        0.0934027559
   10    3    4    4       -0.0805989439
   10    3    5    5       -0.0805989439
   10    3    6    6       -0.0825979052
   10    3    7    7       -0.0814160487
   10    3    8    8       -0.0814160487
   10    3    9    9       -0.1013531076
    4    4    1    1        0.4005765540
    4    4    3    1       -0.0735533613
    4    4    2    2        0.3920530777
    4    4    3    3        0.3774541512
    4    4    4    4        0.4157597712
    5    4    5    4        0.0185308565
    6    4    4    1       -0.0300773937
    6    4    4    3        0.0097546620
    6    4    6    4        0.0318301782
    7    4    2    1        0.0020275207
    7    4    3    2        0.0000370972
    7    4    6    2        0.0010740130
    7    4    7    4        0.0128789927
    8    4    2    1        0.1288554070
    8    4    3    2        0.0023576455
    8    4    6    2        0.0682569501
    8    4    7    4        0.0016749201
    8    4    8    4        0.1192991488
    8    4    7    5        0.0935938726
    9    4    7    1        0.0000224085
    9    4    8    1        0.0014241314
    9    4    4    2       -0.0010785736
    9    4    7    3       -0.0001743979
    9    4    8    3       -0.0110835401
    9    4    9    4        0.0123053398
    9    4    7    6        0.0000649192
    9    4    8    6        0.0041258193
   10    4    4    1       -0.0201555157
   10    4    7    2       -0.0003026565
   10    4    8    2       -0.0192347852
   10    4    4    3       -0.0000581317
   10    4    6    4        0.0129291976
   10    4   10    4        0.0159072763
   10    4    9    7        0.0000350153
   10    4    9    8        0.0022253319
    5    5    1    1        0.4005765540
    5    5    3    1       -0.0735533613
    5    5    2    2        0.3920530777
    5    5    3    3        0.3774541512
    5    5    4    4        0.3786980582
    5    5    5    5        0.4157597712
    6    5    5    1       -0.0300773937
    6    5    5    3        0.0097546620
    6    5    6    5        0.0318301782
    7    5    2    1        0.1288554070
    7    5    3    2        0.0023576455
    7    5    6    2        0.0682569501
    7    5    7    4        0.0016749201
    7    5    7    5        0.1192991488
    8    5    2    1       -0.0020275207
    8    5    3    2       -0.0000370972
    8    5    6    2       -0.0010740130
    8    5    7    4        0.0128262835
    8    5    8    4       -0.0016749201
    8    5    7    5       -0.0016749201
    8    5    8    5        0.0128789927
    9    5    7    1        0.0014241314
    9    5    8    1       -0.0000224085
    9    5    5    2       -0.0010785736
    9    5    7    3       -0.0110835401
    9    5    8    3        0.0001743979
    9    5    9    5        0.0123053398
    9    5    7    6        0.0041258193
    9    5    8    6       -0.0000649192
   10    5    5    1       -0.0201555157
   10    5    7    2       -0.0192347852
   10    5    8    2        0.0003026565
   10    5    5    3       -0.0000581317
   10    5    6    5        0.0129291976
   10    5   10    5        0.0159072763
   10    5    9    7        0.0022253319
   10    5    9    8       -0.0000350153
    6    6    1    1        0.4440803388
    6    6    3    1       -0.0763530028
    6    6    6    1        0.0721851471
    6    6    2    2        0.4570713332
    6    6    3    3        0.3897488689
    6    6    6    3        0.0285071410
    6    6    4    4        0.3980457408
    6    6    5    5        0.3980457408
    6    6    6    6        0.4659592349
    7    6    7    1        0.0123211626
    7    6    4    2        0.0001118320
    7    6    5    2        0.0071072777
    7    6    7    3       -0.0004141111
    7    6    7    6        0.0147850500
    8    6    8    1        0.0123211626
    8    6    4    2        0.0071072777
    8    6    5    2       -0.0001118320
    8    6    8    3       -0.0004141111
    8    6    8    6        0.0147850500
    9    6    2    1        0.0814167940
    9    6    9    1        0.0434981573
    9    6    3    2       -0.0121750710
    9    6    6    2        0.0640402388
    9    6    9    3       -0.0531798058
    9    6    7    4        0.0008061191
    9    6    8    4        0.0512314422
    9    6    7    5        0.0512314422
    9    6    8    5       -0.0008061191
    9    6    9    6        0.0567308398
   10    6    1    1       -0.0172452655
   10    6    2    1       -0.0000000002
   10    6    3    1        0.0056408359
   10    6    6    1       -0.0233144798
   10    6   10    1       -0.0050807724
   10    6    2    2       -0.0252824482
   10    6    6    2       -0.0000000001
   10    6    9    2       -0.0129189296
   10    6    3    3       -0.0143199264
   10    6    6    3       -0.0022361002
   10    6    9    3        0.0000000001
   10    6   10    3        0.0114040688
   10    6    4    4        0.0021825025
   10    6    8    4       -0.0000000001
   10    6    5    5        0.0021825025
   10    6    7    5       -0.0000000001
   10    6    6    6       -0.0177852375
   10    6   10    6        0.0172038959
   10    6    7    7       -0.0123109753
   10    6    8    8       -0.0123109753
   10    6    9    9       -0.0205656820
    7    7    1    1        0.4437735121
    7    7    3    1       -0.0732078581
    7    7    6    1        0.0559039909
    7    7    2    2        0.4533933638
    7    7    3    3        0.3938973300
    7    7    6    3        0.0284676478
    7    7    4    4        0.3955488605
    7    7    5    4        0.0005198925
    7    7    5    5        0.4285815062
    7    7    6    6        0.4360329272
    7    7    7    7        0.4804259120
    8    7    4    4        0.0005198925
    8    7    5    4        0.0165163228
    8    7    5    5       -0.0005198925
    8    7    8    7        0.0208215154
    9    7    4    1        0.0000979726
    9    7    5    1        0.0062264681
    9    7    7    2        0.0086716550
    9    7    4    3       -0.0002310826
    9    7    5    3       -0.0146860332
    9    7    6    4        0.0000410300
    9    7    6    5        0.0026075864
    9    7    9    7        0.0198814425
   10    7    7    1       -0.0164498941
   10    7    4    2       -0.0002005177
   10    7    5    2       -0.0127435416
   10    7    7    3       -0.0013443800
   10    7    9    4        0.0000425314
   10    7    9    5        0.0027030072
   10    7    7    6       -0.0033614131
   10    7   10    7        0.0102392462
    8    8    1    1        0.4437735121
    8    8    3    1       -0.0732078581
    8    8    6    1        0.0559039909
    8    8    2    2        0.4533933638
    8    8    3    3        0.3938973300
    8    8    6    3        0.0284676478
    8    8    4    4        0.4285815062
    8    8    5    4       -0.0005198925
    8    8    5    5        0.3955488605
    8    8    6    6        0.4360329272
    8    8    7    7        0.4387828812
    8    8    8    8        0.4804259120
    9    8    4    1        0.0062264681
    9    8    5    1       -0.0000979726
    9    8    8    2        0.0086716550
    9    8    4    3       -0.0146860332
    9    8    5    3        0.0002310826
    9    8    6    4        0.0026075864
    9    8    6    5       -0.0000410300
    9    8    9    8        0.0198814425
   10    8    8    1       -0.0164498941
   10    8    4    2       -0.0127435416
   10    8    5    2        0.0002005177
   10    8    8    3       -0.0013443800
   10    8    9    4        0.0027030072
   10    8    9    5       -0.0000425314
   10    8    8    6       -0.0033614131
   10    8   10    8        0.0102392462
    9    9    1    1        0.4511201381
    9    9    3    1       -0.0903979281
    9    9    6    1        0.0769069722
    9    9    2    2        0.4639653992
    9    9    9    2        0.1154322662
    9    9    3    3        0.4181173315
    9    9    6    3        0.0216551603
    9    9    4    4        0.3950919651
    9    9    5    5        0.3950919651
    9    9    6    6        0.4487738055
    9    9    7    7        0.4444672681
    9    9    8    8        0.4444672681
    9    9    9    9        0.4940914832
   10    9    2    1        0.0016935462
   10    9    9    1        0.0275403327
   10    9    3    2       -0.0242894132
   10    9    6    2       -0.0029251154
   10    9   10    2        0.0041347386
   10    9    9    3       -0.0131931043
   10    9    7    4        0.0001158794
   10    9    8    4        0.0073645060
   10    9    7    5        0.0073645060
   10    9    8    5       -0.0001158794
   10    9    9    6        0.0068153016
   10    9   10    9        0.0322524694
   10   10    1    1        0.4012262033
   10   10    2    1       -0.0000000001
   10   10    3    1       -0.0930500035
   10   10    6    1        0.0196528791
   10   10   10    1        0.0244303155
   10   10    2    2        0.3895601299
   10   10    9    2        0.0783118042
   10   10    3    3        0.4132599500
   10   10    6    3        0.0425506389
   10   10   10    3       -0.1163638217
   10   10    4    4        0.3798613636
   10   10    8    4       -0.0000000001
   10   10    5    5        0.3798613636
   10   10    7    5       -0.0000000001
   10   10    6    6        0.3936220482
   10   10   10    6       -0.0127519442
   10   10    7    7        0.3948086511
   10   10    8    8        0.3948086511
   10   10    9    9        0.4188573358
   10   10   10   10        0.4246191351
 end_two_electron_integrals
 enrep_tce =   0.27777777777777773     
  EHF(A)             =        -0.93120249
  EHF(total)         =        -0.93120249
  Shift (HFtot-HFA)  =        -0.00000000
 Cpu & wall time / sec            1.7            1.7
 T1-number-of-tasks                    9

 t1 file size   =                9
 t1 file name   = ./H2.t1
 t1 file handle =       -998
 T2-number-of-boxes                  126

 t2 file size   =              126
 t2 file name   = ./H2.t2
 t2 file handle =       -996
CCSD iterations
 ---------------------------------------------------------
 Iter          Residuum       Correlation     Cpu    Wall 
 ---------------------------------------------------------
NEW TASK SCHEDULING
CCSD_T1_NTS --- OK
CCSD_T2_NTS --- OK
    1   0.4431099813550  -0.1062537618152     0.4     0.6
    2   1.1527115757570  -0.0027494771194     0.5     0.6
    3   3.7841542747019  -0.2975607835241     0.4     0.5
    4  11.9612752420001   0.6564463955152     0.5     0.5
    5  59.7471241571228  -1.2409212563656     0.4     0.5
 MICROCYCLE DIIS UPDATE:                    5                    5
    6   0.0543176299849  -0.0828539855006     0.4     0.5
    7   0.1525175385818  -0.0897588858686     0.4     0.5
    8   0.5532864979561  -0.1023081001341     0.4     0.5
    9   2.0799323558841  -0.0393201001062     0.4     0.5
   10   8.5731497437813  -0.0557233189273     0.5     0.5
 MICROCYCLE DIIS UPDATE:                   10                    5
   11   0.0064256906126  -0.0949387061058     0.5     0.5
   12   0.0087831975590  -0.0953900878221     0.4     0.5
   13   0.0243594792007  -0.0959855594049     0.4     0.5
   14   0.0941594474710  -0.0953561864367     0.4     0.5
   15   0.3920677353252  -0.0951643860960     0.5     0.5
 MICROCYCLE DIIS UPDATE:                   15                    5
   16   0.0002150099645  -0.0958744688602     0.4     0.5
   17   0.0005019448368  -0.0958647928702     0.2     0.5
   18   0.0014115322656  -0.0958826569707     0.5     0.5
   19   0.0045776356203  -0.0958485280967     0.5     0.5
   20   0.0165235846306  -0.0958706812658     0.4     0.5
 MICROCYCLE DIIS UPDATE:                   20                    5
   21   0.0000028238432  -0.0958704021557     0.4     0.6
   22   0.0000030948285  -0.0958697663656     0.2     0.6
   23   0.0000075077588  -0.0958697113468     0.4     0.5
   24   0.0000203072764  -0.0958691085244     0.4     0.5
   25   0.0000803874539  -0.0958713484190     0.4     0.5
 MICROCYCLE DIIS UPDATE:                   25                    5
   26   0.0000001785780  -0.0958695400644     0.5     0.5
   27   0.0000004703516  -0.0958695362502     0.5     0.5
   28   0.0000017335514  -0.0958694979848     0.3     0.5
   29   0.0000066346560  -0.0958696222257     0.5     0.5
   30   0.0000256720316  -0.0958691445945     0.4     0.5
 MICROCYCLE DIIS UPDATE:                   30                    5
   31   0.0000000069778  -0.0958695248009     0.5     0.5
 -----------------------------------------------------------------
 Iterations converged
 CCSD correlation energy / hartree =        -0.095869524800868
 CCSD total energy / hartree       =        -1.027072014915904

 Singles contributions

 Doubles contributions
     2a   (alpha)     2a   (beta ) ---     1a   (alpha)     1a   (beta )       -0.4706492105
     3a   (alpha)     3a   (beta ) ---     1a   (alpha)     1a   (beta )       -0.0363157888
     4a   (alpha)     4a   (beta ) ---     1a   (alpha)     1a   (beta )       -0.0303232713
     5a   (alpha)     5a   (beta ) ---     1a   (alpha)     1a   (beta )       -0.0303232713
 Ground state specification:
 exp(T)|Ref>~(1+T)|Ref>
 ------- a(p)+/a(q) strings ----------

 singles norm

 doubles norm

 Reference string
  0.90479744569758369      :(1a)+ (1b)+ |0>

 Singles strings

 Doubles strings
 -0.42584220347345547      :(2a)+ (2b)+ (1b)  (1a)  (1a)+ (1b)+ |0>
 -------------------------------------

 Parallel integral file used      20 records with       0 large values


 Task  times  cpu:       15.0s     wall:       19.0s


                                NWChem Input Module
                                -------------------


 Summary of allocated global arrays
-----------------------------------
  No active global arrays


MA_summarize_allocated_blocks: starting scan ...
MA_summarize_allocated_blocks: scan completed: 0 heap blocks, 0 stack blocks
MA usage statistics:

	allocation statistics:
					      heap	     stack
					      ----	     -----
	current number of blocks	         0	         0
	maximum number of blocks	        18	        42
	current total bytes		         0	         0
	maximum total bytes		  51983048	  61995224
	maximum total K-bytes		     51984	     61996
	maximum total M-bytes		        52	        62


                                     CITATION
                                     --------
                Please cite the following reference when publishing
                           results obtained with NWChem:

          E. Apra, E. J. Bylaska, W. A. de Jong, N. Govind, K. Kowalski,
       T. P. Straatsma, M. Valiev, H. J. J. van Dam, Y. Alexeev, J. Anchell,
       V. Anisimov, F. W. Aquino, R. Atta-Fynn, J. Autschbach, N. P. Bauman,
     J. C. Becca, D. E. Bernholdt, K. Bhaskaran-Nair, S. Bogatko, P. Borowski,
         J. Boschen, J. Brabec, A. Bruner, E. Cauet, Y. Chen, G. N. Chuev,
      C. J. Cramer, J. Daily, M. J. O. Deegan, T. H. Dunning Jr., M. Dupuis,
   K. G. Dyall, G. I. Fann, S. A. Fischer, A. Fonari, H. Fruchtl, L. Gagliardi,
      J. Garza, N. Gawande, S. Ghosh, K. Glaesemann, A. W. Gotz, J. Hammond,
       V. Helms, E. D. Hermes, K. Hirao, S. Hirata, M. Jacquelin, L. Jensen,
   B. G. Johnson, H. Jonsson, R. A. Kendall, M. Klemm, R. Kobayashi, V. Konkov,
      S. Krishnamoorthy, M. Krishnan, Z. Lin, R. D. Lins, R. J. Littlefield,
      A. J. Logsdail, K. Lopata, W. Ma, A. V. Marenich, J. Martin del Campo,
   D. Mejia-Rodriguez, J. E. Moore, J. M. Mullin, T. Nakajima, D. R. Nascimento,
    J. A. Nichols, P. J. Nichols, J. Nieplocha, A. Otero-de-la-Roza, B. Palmer,
    A. Panyala, T. Pirojsirikul, B. Peng, R. Peverati, J. Pittner, L. Pollack,
   R. M. Richard, P. Sadayappan, G. C. Schatz, W. A. Shelton, D. W. Silverstein,
   D. M. A. Smith, T. A. Soares, D. Song, M. Swart, H. L. Taylor, G. S. Thomas,
            V. Tipparaju, D. G. Truhlar, K. Tsemekhman, T. Van Voorhis,
      A. Vazquez-Mayagoitia, P. Verma, O. Villa, A. Vishnu, K. D. Vogiatzis,
        D. Wang, J. H. Weare, M. J. Williamson, T. L. Windus, K. Wolinski,
        A. T. Wong, Q. Wu, C. Yang, Q. Yu, M. Zacharias, Z. Zhang, Y. Zhao,
                                and R. J. Harrison
                        "NWChem: Past, present, and future
                         J. Chem. Phys. 152, 184102 (2020)
                               doi:10.1063/5.0004997

                                      AUTHORS
                                      -------
  E. Apra, E. J. Bylaska, N. Govind, K. Kowalski, M. Valiev, D. Mejia-Rodriguez,
       A. Kunitsa, N. P. Bauman, A. Panyala, W. A. de Jong, T. P. Straatsma,
        H. J. J. van Dam, D. Wang, T. L. Windus, J. Hammond, J. Autschbach,
    K. Bhaskaran-Nair, J. Brabec, K. Lopata, S. A. Fischer, S. Krishnamoorthy,
     M. Jacquelin, W. Ma, M. Klemm, O. Villa, Y. Chen, V. Anisimov, F. Aquino,
    S. Hirata, M. T. Hackler, Eric Hermes, L. Jensen, J. E. Moore, J. C. Becca,
      V. Konjkov, T. Risthaus, M. Malagoli, A. Marenich, A. Otero-de-la-Roza,
        J. Mullin, P. Nichols, R. Peverati, J. Pittner, Y. Zhao, P.-D. Fan,
        A. Fonari, M. J. Williamson, R. J. Harrison, J. R. Rehr, M. Dupuis,
     D. Silverstein, D. M. A. Smith, J. Nieplocha, V. Tipparaju, M. Krishnan,
     B. E. Van Kuiken, A. Vazquez-Mayagoitia, M. Swart, Q. Wu, T. Van Voorhis,
     A. A. Auer, M. Nooijen, L. D. Crosby, E. Brown, G. Cisneros, G. I. Fann,
   H. Fruchtl, J. Garza, K. Hirao, R. A. Kendall, J. A. Nichols, K. Tsemekhman,
    K. Wolinski, J. Anchell, D. E. Bernholdt, P. Borowski, T. Clark, D. Clerc,
   H. Dachsel, M. J. O. Deegan, K. Dyall, D. Elwood, E. Glendening, M. Gutowski,
   A. C. Hess, J. Jaffe, B. G. Johnson, J. Ju, R. Kobayashi, R. Kutteh, Z. Lin,
   R. Littlefield, X. Long, B. Meng, T. Nakajima, S. Niu, L. Pollack, M. Rosing,
   K. Glaesemann, G. Sandrone, M. Stave, H. Taylor, G. Thomas, J. H. van Lenthe,
                               A. T. Wong, Z. Zhang.

 Total times  cpu:       18.3s     wall:       22.8s
