 argument  1 = input.nw
  NWChem w/ OpenMP: maximum threads =    1



============================== echo of input deck ==============================
 echo
 start H2
 title "H2"

 memory total 24 gb

 geometry units bohr
 symmetry c1
        H  0.00000000  0.00000000  0.00000000
        H  0.00000000  4.80  0.00000000
 end

 basis
   * library cc-pVQZ
 end

 mcscf
   active  10
   actelec 2
   multiplicity 1
   maxiter 40
   vectors input H2.mos
   vectors output H2.mos
 end

 task mcscf

 scf
   vectors input H2.mos
   vectors output H2-4.80.mos
   noscf
 end

 tce
   2eorb
   2emet 13
   ccsd
   maxiter 300
 end

 set tce:print_integrals T
 set tce:qorb 10
 set tce:qela 1
 set tce:qelb 1

# set tce:qducc T
# set tce:nactv 1
# set tce:nonhf T
# set tce:ducc_model 6

 set tce:printtol 0.02

 task tce
================================================================================


                                         
                                         


             Northwest Computational Chemistry Package (NWChem) 7.0.1
             --------------------------------------------------------


                    Environmental Molecular Sciences Laboratory
                       Pacific Northwest National Laboratory
                                Richland, WA 99352

                              Copyright (c) 1994-2020
                       Pacific Northwest National Laboratory
                            Battelle Memorial Institute

             NWChem is an open-source computational chemistry package
                        distributed under the terms of the
                      Educational Community License (ECL) 2.0
             A copy of the license is included with this distribution
                              in the LICENSE.TXT file

                                  ACKNOWLEDGMENT
                                  --------------

            This software and its documentation were developed at the
            EMSL at Pacific Northwest National Laboratory, a multiprogram
            national laboratory, operated for the U.S. Department of Energy
            by Battelle under Contract Number DE-AC05-76RL01830. Support
            for this work was provided by the Department of Energy Office
            of Biological and Environmental Research, Office of Basic
            Energy Sciences, and the Office of Advanced Scientific Computing.


           Job information
           ---------------

    hostname        = WE46210
    program         = /home/baum612/code/nwchem/bin/LINUX64/nwchem
    date            = Thu Nov  9 16:14:30 2023

    compiled        = Mon_Nov_06_10:06:57_2023
    source          = /home/baum612/code/nwchem
    nwchem branch   = 7.0.0
    nwchem revision = nwchem_on_git-4191-g39d87d64de
    ga revision     = 5.8.1
    use scalapack   = F
    input           = input.nw
    prefix          = H2.
    data base       = ./H2.db
    status          = startup
    nproc           =        1
    time left       =     -1s



           Memory information
           ------------------

    heap     =  805306362 doubles =   6144.0 Mbytes
    stack    =  805306367 doubles =   6144.0 Mbytes
    global   = 1610612736 doubles =  12288.0 Mbytes (distinct from heap & stack)
    total    = 3221225465 doubles =  24576.0 Mbytes
    verify   = yes
    hardfail = no 


           Directory information
           ---------------------

  0 permanent = .
  0 scratch   = .




                                NWChem Input Module
                                -------------------


                                        H2
                                        --
 Turning off AUTOSYM since
 SYMMETRY directive was detected!


          ------
          auto-z
          ------
     1 autoz failed with cvr_scaling = 1.2 changing to 1.3
     2 autoz failed with cvr_scaling = 1.3 changing to 1.4
     3 autoz failed with cvr_scaling = 1.4 changing to 1.5
     4 autoz failed with cvr_scaling = 1.5 changing to 1.6
     5 autoz failed with cvr_scaling = 1.6 changing to 1.7

 AUTOZ failed to generate good internal coordinates.
 Cartesian coordinates will be used in optimizations.



                             Geometry "geometry" -> ""
                             -------------------------

 Output coordinates in a.u. (scale by  1.000000000 to convert to a.u.)

  No.       Tag          Charge          X              Y              Z
 ---- ---------------- ---------- -------------- -------------- --------------
    1 H                    1.0000     0.00000000    -2.40000000     0.00000000
    2 H                    1.0000     0.00000000     2.40000000     0.00000000

      Atomic Mass 
      ----------- 

      H                  1.007825


 Effective nuclear repulsion energy (a.u.)       0.2083333333

            Nuclear Dipole moment (a.u.) 
            ----------------------------
        X                 Y               Z
 ---------------- ---------------- ----------------
     0.0000000000     0.0000000000     0.0000000000


            XYZ format geometry
            -------------------
     2
 geometry
 H                     0.00000000    -1.27002540     0.00000000
 H                     0.00000000     1.27002540     0.00000000



 Summary of "ao basis" -> "" (cartesian)
 ------------------------------------------------------------------------------
       Tag                 Description            Shells   Functions and Types
 ---------------- ------------------------------  ------  ---------------------
 *                          cc-pVQZ                   on all atoms 


                      Basis "ao basis" -> "ao basis" (cartesian)
                      -----
  H (Hydrogen)
  ------------
            Exponent  Coefficients 
       -------------- ---------------------------------------------------------
  1 S  8.26400000E+01  0.002006
  1 S  1.24100000E+01  0.015343
  1 S  2.82400000E+00  0.075579

  2 S  7.97700000E-01  1.000000

  3 S  2.58100000E-01  1.000000

  4 S  8.98900000E-02  1.000000

  5 P  2.29200000E+00  1.000000

  6 P  8.38000000E-01  1.000000

  7 P  2.92000000E-01  1.000000

  8 D  2.06200000E+00  1.000000

  9 D  6.62000000E-01  1.000000

 10 F  1.39700000E+00  1.000000



 Summary of "ao basis" -> "ao basis" (cartesian)
 ------------------------------------------------------------------------------
       Tag                 Description            Shells   Functions and Types
 ---------------- ------------------------------  ------  ---------------------
 H                          cc-pVQZ                 10       35   4s3p2d1f



                            NWChem Direct MCSCF Module
                            --------------------------


                                        H2


     -----------------------------------
       Basis functions:             70
       Inactive shells:              0
       Active shells:               10
       Active electrons:             2
       Symmetry:                    a       
       Multiplicity:                 1
       Orbital rotations:          600
     -----------------------------------

     -----------------------------------
       E2 extrapolation:             F
       Conjugacy:                    T
       Micro CI relax:               T
       Canonical orbitals:           T
       Maximum iterations:          40
       Converge threshold:    1.00E-04
       Conjugacy resets:            20
       Initial levelshift:        0.10
     -----------------------------------

 Loading old vectors from job with title :

H2


   input molecular orbitals = ./H2.mos
  output molecular orbtials = ./H2.mos

       No. of determinants:           100


  Starting Orbital Energies
    -0.316202    -0.183110    -0.000377    -0.000166    -0.000166    -0.000012
    -0.000005    -0.000005    -0.000005    -0.000003     0.440248     0.750735
     0.801043     1.188711     1.188711     1.716968     1.799460     1.799460
     1.926758     1.998395     1.998395     2.085653     2.085653     2.092129
     2.092129     2.133705     2.133705     2.466909     2.904760     2.933636
     4.396527     4.396527     4.435238     4.435238     4.504587     4.540999
     5.939587     6.057163     6.057163     6.066376     6.066376     6.067544
     6.067544     6.067554     6.067554     6.067705     6.067705     6.067917
     6.067917     6.084476     8.061596     8.116345     8.116345     8.135956
     8.135956     8.139991     8.139991     8.161558     8.161558     8.340580
     9.647961     9.659245     9.711348     9.711348     9.721244     9.721244
     9.760220     9.792579    22.535077    22.631969

  Orbital Symmetry Irreps
a    a    a    a    a    a    a    a    a    a    a    a    a    a    a   
a    a    a    a    a    a    a    a    a    a    a    a    a    a    a   
a    a    a    a    a    a    a    a    a    a    a    a    a    a    a   
a    a    a    a    a    a    a    a    a    a    a    a    a    a    a   
a    a    a    a    a    a    a    a    a    a   

 Integral file          = ./H2.aoints.0
 Record size in doubles =  65536        No. of integs per rec  =  43688
 Max. records in memory =     99        Max. records in file   = 280220
 No. of bits per label  =      8        No. of bits per value  =     64


 #quartets = 2.052D+04 #integrals = 6.130D+05 #direct =  0.0% #cached =100.0%




          %%%%% MacroIteration   1 %%%%%


          Number of sigma calls:       15
                       o<<<<< (aa):             0.00
                       o<<<<< (bb):             0.00
                       o<<<<< (ab):             0.01
                       o<<<<< (total)           0.02
                       o<<<<< (aa) ff           0.00
                       o<<<<< (aa) gop          0.00
                       o<<<<< (aa) dot          0.00
                       o<<<<< (ab) str          0.00
                       o<<<<< (ab) gath         0.00
                       o<<<<< (ab) dotab        0.00
                       o<<<<< (ab) scat         0.00
                       o<<<<< (ab) sync         0.00
                       o<<<<< Density           0.00
                       o<<<<< Density one       0.00
                       o<<<<< Density two       0.00
                       o<<<<< Density ab        0.00
                       o<<<<< Spin adapt        0.00
                       o<<<<< Symm adapt        0.00

                       o<<<<< (ab) max sync:      0.00

           >>>| Valence CI:             -1.212994648639
           >>>| MCSCF energy:           -1.004661315306
           >>>| Gradient norm:          0.119381599D-02
     --- Warning:  480 Hessian diagonals < 0.05 ---

                              ----- Line search ------

        step       energy         lsg     num-lsg   num-lsh   lsrat    time
      ------- ---------------- --------- --------- --------- ------- --------
       0.0000      -1.00466132 -2.89D-07  0.00D+00  0.00D+00 0.0D+00      0.4

          Number of sigma calls:       11
                       o<<<<< (aa):             0.00
                       o<<<<< (bb):             0.00
                       o<<<<< (ab):             0.01
                       o<<<<< (total)           0.01
                       o<<<<< (aa) ff           0.00
                       o<<<<< (aa) gop          0.00
                       o<<<<< (aa) dot          0.00
                       o<<<<< (ab) str          0.00
                       o<<<<< (ab) gath         0.00
                       o<<<<< (ab) dotab        0.00
                       o<<<<< (ab) scat         0.00
                       o<<<<< (ab) sync         0.00
                       o<<<<< Density           0.00
                       o<<<<< Density one       0.00
                       o<<<<< Density two       0.00
                       o<<<<< Density ab        0.00
                       o<<<<< Spin adapt        0.00
                       o<<<<< Symm adapt        0.00

                       o<<<<< (ab) max sync:      0.00
       1.0000      -1.00466150 -7.74D-08 -7.74D-08  2.11D-07 2.7D-01      0.6

          Number of sigma calls:       10
                       o<<<<< (aa):             0.00
                       o<<<<< (bb):             0.00
                       o<<<<< (ab):             0.01
                       o<<<<< (total)           0.01
                       o<<<<< (aa) ff           0.00
                       o<<<<< (aa) gop          0.00
                       o<<<<< (aa) dot          0.00
                       o<<<<< (ab) str          0.00
                       o<<<<< (ab) gath         0.00
                       o<<<<< (ab) dotab        0.00
                       o<<<<< (ab) scat         0.00
                       o<<<<< (ab) sync         0.00
                       o<<<<< Density           0.00
                       o<<<<< Density one       0.00
                       o<<<<< Density two       0.00
                       o<<<<< Density ab        0.00
                       o<<<<< Spin adapt        0.00
                       o<<<<< Symm adapt        0.00

                       o<<<<< (ab) max sync:      0.00
       1.3661      -1.00466151  1.31D-11  1.24D-11  2.11D-07 4.5D-05      0.8
     --- Orbitals canonicalized ---



          %%%%% MacroIteration   2 %%%%%


          Number of sigma calls:       15
                       o<<<<< (aa):             0.00
                       o<<<<< (bb):             0.00
                       o<<<<< (ab):             0.00
                       o<<<<< (total)           0.00
                       o<<<<< (aa) ff           0.00
                       o<<<<< (aa) gop          0.00
                       o<<<<< (aa) dot          0.00
                       o<<<<< (ab) str          0.00
                       o<<<<< (ab) gath         0.00
                       o<<<<< (ab) dotab        0.00
                       o<<<<< (ab) scat         0.00
                       o<<<<< (ab) sync         0.00
                       o<<<<< Density           0.00
                       o<<<<< Density one       0.00
                       o<<<<< Density two       0.00
                       o<<<<< Density ab        0.00
                       o<<<<< Spin adapt        0.00
                       o<<<<< Symm adapt        0.00

                       o<<<<< (ab) max sync:      0.00

           >>>| Valence CI:             -1.212994845853
           >>>| MCSCF energy:           -1.004661512519
           >>>| Gradient norm:          0.220421059D-03
     --- Warning:  480 Hessian diagonals < 0.05 ---
     --- Conjugacy reset ---

                              ----- Line search ------

        step       energy         lsg     num-lsg   num-lsh   lsrat    time
      ------- ---------------- --------- --------- --------- ------- --------
       0.0000      -1.00466151 -6.29D-08  0.00D+00  0.00D+00 0.0D+00      1.0

          Number of sigma calls:        9
                       o<<<<< (aa):             0.00
                       o<<<<< (bb):             0.00
                       o<<<<< (ab):             0.00
                       o<<<<< (total)           0.00
                       o<<<<< (aa) ff           0.00
                       o<<<<< (aa) gop          0.00
                       o<<<<< (aa) dot          0.00
                       o<<<<< (ab) str          0.00
                       o<<<<< (ab) gath         0.00
                       o<<<<< (ab) dotab        0.00
                       o<<<<< (ab) scat         0.00
                       o<<<<< (ab) sync         0.00
                       o<<<<< Density           0.00
                       o<<<<< Density one       0.00
                       o<<<<< Density two       0.00
                       o<<<<< Density ab        0.00
                       o<<<<< Spin adapt        0.00
                       o<<<<< Symm adapt        0.00

                       o<<<<< (ab) max sync:      0.00
       1.0000      -1.00466155 -1.35D-08 -1.35D-08  4.95D-08 2.1D-01      1.1

          Number of sigma calls:        8
                       o<<<<< (aa):             0.00
                       o<<<<< (bb):             0.00
                       o<<<<< (ab):             0.01
                       o<<<<< (total)           0.01
                       o<<<<< (aa) ff           0.00
                       o<<<<< (aa) gop          0.00
                       o<<<<< (aa) dot          0.00
                       o<<<<< (ab) str          0.00
                       o<<<<< (ab) gath         0.00
                       o<<<<< (ab) dotab        0.00
                       o<<<<< (ab) scat         0.00
                       o<<<<< (ab) sync         0.00
                       o<<<<< Density           0.00
                       o<<<<< Density one       0.00
                       o<<<<< Density two       0.00
                       o<<<<< Density ab        0.00
                       o<<<<< Spin adapt        0.00
                       o<<<<< Symm adapt        0.00

                       o<<<<< (ab) max sync:      0.00
       1.2724      -1.00466155 -5.26D-12 -4.97D-12  4.95D-08 8.4D-05      1.3



          %%%%% MacroIteration   3 %%%%%


          Number of sigma calls:        1
                       o<<<<< (aa):             0.00
                       o<<<<< (bb):             0.00
                       o<<<<< (ab):             0.00
                       o<<<<< (total)           0.00
                       o<<<<< (aa) ff           0.00
                       o<<<<< (aa) gop          0.00
                       o<<<<< (aa) dot          0.00
                       o<<<<< (ab) str          0.00
                       o<<<<< (ab) gath         0.00
                       o<<<<< (ab) dotab        0.00
                       o<<<<< (ab) scat         0.00
                       o<<<<< (ab) sync         0.00
                       o<<<<< Density           0.00
                       o<<<<< Density one       0.00
                       o<<<<< Density two       0.00
                       o<<<<< Density ab        0.00
                       o<<<<< Spin adapt        0.00
                       o<<<<< Symm adapt        0.00

                       o<<<<< (ab) max sync:      0.00

           >>>| Valence CI:             -1.212994885902
           >>>| MCSCF energy:           -1.004661552569
           >>>| Gradient norm:          0.583221028D-04




     ==============================
            MCSCF Converged
     ==============================



          Canonical Eigenvalues

              1      
    1   -0.3138
    2   -0.1855
    3   -0.0004
    4   -0.0002
    5   -0.0002
    6   -0.0000
    7   -0.0000
    8   -0.0000
    9   -0.0000
   10   -0.0000
   11    0.4412
   12    0.7452
   13    0.8000
   14    1.1897
   15    1.1897
   16    1.7148
   17    1.7992
   18    1.7992
   19    1.9194
   20    2.0016
   21    2.0016
   22    2.0861
   23    2.0861
   24    2.0918
   25    2.0918
   26    2.1280
   27    2.1280
   28    2.4484
   29    2.9003
   30    2.9358
   31    4.3966
   32    4.3966
   33    4.4346
   34    4.4346
   35    4.4953
   36    4.5485
   37    5.9396
   38    6.0569
   39    6.0569
   40    6.0666
   41    6.0666
   42    6.0677
   43    6.0677
   44    6.0677
   45    6.0677
   46    6.0679
   47    6.0679
   48    6.0680
   49    6.0680
   50    6.0820
   51    8.0677
   52    8.1189
   53    8.1189
   54    8.1365
   55    8.1365
   56    8.1400
   57    8.1400
   58    8.1584
   59    8.1584
   60    8.3235
   61    9.6472
   62    9.6594
   63    9.7114
   64    9.7114
   65    9.7212
   66    9.7212
   67    9.7670
   68    9.7855
   69   22.5398
   70   22.6146


          Converged CI vector

   Index           Coefficient          Config. Occupation
         1          0.80670944          1  1
        12         -0.59040951          2  2

          Number of sigma calls:        1
                       o<<<<< (aa):             0.00
                       o<<<<< (bb):             0.00
                       o<<<<< (ab):             0.00
                       o<<<<< (total)           0.00
                       o<<<<< (aa) ff           0.00
                       o<<<<< (aa) gop          0.00
                       o<<<<< (aa) dot          0.00
                       o<<<<< (ab) str          0.00
                       o<<<<< (ab) gath         0.00
                       o<<<<< (ab) dotab        0.00
                       o<<<<< (ab) scat         0.00
                       o<<<<< (ab) sync         0.00
                       o<<<<< Density           0.00
                       o<<<<< Density one       0.00
                       o<<<<< Density two       0.00
                       o<<<<< Density ab        0.00
                       o<<<<< Spin adapt        0.00
                       o<<<<< Symm adapt        0.00

                       o<<<<< (ab) max sync:      0.00



          Natural orbital occupation numbers

              1      
    1    1.3016
    2    0.6972
    3    0.0007
    4    0.0003
    5    0.0003
    6    0.0000
    7    0.0000
    8    0.0000
    9    0.0000
   10    0.0000


          Number of sigma calls:       15
                       o<<<<< (aa):             0.00
                       o<<<<< (bb):             0.00
                       o<<<<< (ab):             0.00
                       o<<<<< (total)           0.00
                       o<<<<< (aa) ff           0.00
                       o<<<<< (aa) gop          0.00
                       o<<<<< (aa) dot          0.00
                       o<<<<< (ab) str          0.00
                       o<<<<< (ab) gath         0.00
                       o<<<<< (ab) dotab        0.00
                       o<<<<< (ab) scat         0.00
                       o<<<<< (ab) sync         0.00
                       o<<<<< Density           0.00
                       o<<<<< Density one       0.00
                       o<<<<< Density two       0.00
                       o<<<<< Density ab        0.00
                       o<<<<< Spin adapt        0.00
                       o<<<<< Symm adapt        0.00

                       o<<<<< (ab) max sync:      0.00


       Final MCSCF results 
       ------------------- 

       Total MCSCF energy =     -1.004661552568
            Gradient norm =      5.8D-05

    CPU time for solution =      1.7s
   Wall time for solution =      2.0s



                        Analysis of MCSCF natural orbitals
                        ----------------------------------

 Vector    1  Occ=1.301576D+00  E=-3.138103D-01  Symmetry=a
              MO Center=  4.4D-15,  4.0D-12, -2.8D-15, r^2= 2.4D+00
   Bfn.  Coefficient  Atom+Function         Bfn.  Coefficient  Atom+Function  
  ----- ------------  ---------------      ----- ------------  ---------------
     3      0.323291  1 H  s                 38      0.323291  2 H  s          
     4      0.208683  1 H  s                 39      0.208683  2 H  s          
     2      0.168337  1 H  s                 37      0.168337  2 H  s          

 Vector    2  Occ=6.971668D-01  E=-1.855357D-01  Symmetry=a
              MO Center=  1.9D-14, -3.4D-12, -1.3D-14, r^2= 2.5D+00
   Bfn.  Coefficient  Atom+Function         Bfn.  Coefficient  Atom+Function  
  ----- ------------  ---------------      ----- ------------  ---------------
     3      0.382118  1 H  s                 38     -0.382118  2 H  s          
     4      0.207690  1 H  s                 39     -0.207690  2 H  s          
     2      0.192951  1 H  s                 37     -0.192951  2 H  s          

 Vector    3  Occ=6.806195D-04  E=-3.554531D-04  Symmetry=a
              MO Center= -2.5D-14,  7.5D-10,  1.4D-14, r^2= 2.9D+00
   Bfn.  Coefficient  Atom+Function         Bfn.  Coefficient  Atom+Function  
  ----- ------------  ---------------      ----- ------------  ---------------
    12      0.710242  1 H  py                47     -0.710242  2 H  py         
     3      0.681082  1 H  s                 38      0.681082  2 H  s          
     9     -0.578526  1 H  py                44      0.578526  2 H  py         
     4     -0.455727  1 H  s                 39     -0.455727  2 H  s          
    32      0.256680  1 H  fyyy              67     -0.256680  2 H  fyyy       

 Vector    4  Occ=2.709966D-04  E=-1.530104D-04  Symmetry=a
              MO Center=  2.0D-13,  2.5D-12,  4.9D-15, r^2= 2.5D+00
   Bfn.  Coefficient  Atom+Function         Bfn.  Coefficient  Atom+Function  
  ----- ------------  ---------------      ----- ------------  ---------------
     8      1.253511  1 H  px                43      1.253511  2 H  px         
    11     -0.877288  1 H  px                46     -0.877288  2 H  px         
    29     -0.570698  1 H  fxyy              64     -0.570698  2 H  fxyy       
    26     -0.527767  1 H  fxxx              31     -0.527767  1 H  fxzz       
    61     -0.527767  2 H  fxxx              66     -0.527767  2 H  fxzz       

 Vector    5  Occ=2.709966D-04  E=-1.530104D-04  Symmetry=a
              MO Center=  3.3D-15,  1.7D-12, -1.2D-13, r^2= 2.5D+00
   Bfn.  Coefficient  Atom+Function         Bfn.  Coefficient  Atom+Function  
  ----- ------------  ---------------      ----- ------------  ---------------
    10      1.253511  1 H  pz                45      1.253511  2 H  pz         
    13     -0.877288  1 H  pz                48     -0.877288  2 H  pz         
    33     -0.570698  1 H  fyyz              68     -0.570698  2 H  fyyz       
    28     -0.527767  1 H  fxxz              35     -0.527767  1 H  fzzz       
    63     -0.527767  2 H  fxxz              70     -0.527767  2 H  fzzz       

 Vector    6  Occ=1.716019D-05  E=-1.089680D-05  Symmetry=a
              MO Center= -1.5D-13, -8.2D-10,  1.0D-13, r^2= 2.4D+00
   Bfn.  Coefficient  Atom+Function         Bfn.  Coefficient  Atom+Function  
  ----- ------------  ---------------      ----- ------------  ---------------
     9      0.926493  1 H  py                44     -0.926493  2 H  py         
     2      0.643140  1 H  s                 37      0.643140  2 H  s          
     4     -0.447625  1 H  s                 39     -0.447625  2 H  s          
    27     -0.376296  1 H  fxxy              34     -0.376296  1 H  fyzz       
    62      0.376296  2 H  fxxy              69      0.376296  2 H  fyzz       

 Vector    7  Occ=5.245951D-06  E=-4.685879D-06  Symmetry=a
              MO Center= -3.7D-12, -8.8D-12,  2.3D-13, r^2= 1.7D+00
   Bfn.  Coefficient  Atom+Function         Bfn.  Coefficient  Atom+Function  
  ----- ------------  ---------------      ----- ------------  ---------------
     8      1.342004  1 H  px                43     -1.342004  2 H  px         
    26     -0.432311  1 H  fxxx              31     -0.432311  1 H  fxzz       
    61      0.432311  2 H  fxxx              66      0.432311  2 H  fxzz       
    21      0.376705  1 H  dxy               56      0.376705  2 H  dxy        
    29     -0.318730  1 H  fxyy              64      0.318730  2 H  fxyy       

 Vector    8  Occ=5.245951D-06  E=-4.685879D-06  Symmetry=a
              MO Center=  1.2D-13, -8.4D-12,  1.9D-12, r^2= 1.7D+00
   Bfn.  Coefficient  Atom+Function         Bfn.  Coefficient  Atom+Function  
  ----- ------------  ---------------      ----- ------------  ---------------
    10      1.342004  1 H  pz                45     -1.342004  2 H  pz         
    28     -0.432311  1 H  fxxz              35     -0.432311  1 H  fzzz       
    63      0.432311  2 H  fxxz              70      0.432311  2 H  fzzz       
    24      0.376705  1 H  dyz               59      0.376705  2 H  dyz        
    33     -0.318730  1 H  fyyz              68      0.318730  2 H  fyyz       

 Vector    9  Occ=4.679500D-06  E=-4.488224D-06  Symmetry=a
              MO Center=  3.8D-12,  3.9D-09, -2.4D-12, r^2= 2.1D+00
   Bfn.  Coefficient  Atom+Function         Bfn.  Coefficient  Atom+Function  
  ----- ------------  ---------------      ----- ------------  ---------------
     9      1.501926  1 H  py                44      1.501926  2 H  py         
     3     -0.993010  1 H  s                 38      0.993010  2 H  s          
     2      0.876284  1 H  s                 37     -0.876284  2 H  s          
    27     -0.544479  1 H  fxxy              34     -0.544479  1 H  fyzz       
    62     -0.544479  2 H  fxxy              69     -0.544479  2 H  fyzz       

 Vector   10  Occ=1.976157D-06  E=-2.583645D-06  Symmetry=a
              MO Center=  3.2D-15,  3.1D-09, -1.3D-14, r^2= 2.6D+00
   Bfn.  Coefficient  Atom+Function         Bfn.  Coefficient  Atom+Function  
  ----- ------------  ---------------      ----- ------------  ---------------
     9      3.387106  1 H  py                44     -3.387106  2 H  py         
    27     -1.488345  1 H  fxxy              34     -1.488345  1 H  fyzz       
    62      1.488345  2 H  fxxy              69      1.488345  2 H  fyzz       
    32     -1.165704  1 H  fyyy              67      1.165704  2 H  fyyy       
     6     -0.839629  1 H  py                41      0.839629  2 H  py         

 Vector   11  Occ=0.000000D+00  E= 4.412349D-01  Symmetry=a
              MO Center=  1.9D-12,  7.8D-09, -1.2D-12, r^2= 8.5D+00
   Bfn.  Coefficient  Atom+Function         Bfn.  Coefficient  Atom+Function  
  ----- ------------  ---------------      ----- ------------  ---------------
     3      3.121865  1 H  s                 38     -3.121865  2 H  s          
     4     -2.114484  1 H  s                 39      2.114484  2 H  s          
     2     -0.772704  1 H  s                 37      0.772704  2 H  s          
     9     -0.570481  1 H  py                44     -0.570481  2 H  py         
    23     -0.476034  1 H  dyy               58      0.476034  2 H  dyy        

 Vector   12  Occ=0.000000D+00  E= 7.452352D-01  Symmetry=a
              MO Center= -3.0D-12, -2.1D-08,  1.8D-12, r^2= 3.7D+00
   Bfn.  Coefficient  Atom+Function         Bfn.  Coefficient  Atom+Function  
  ----- ------------  ---------------      ----- ------------  ---------------
     9      2.310852  1 H  py                44      2.310852  2 H  py         
    12     -1.364507  1 H  py                47     -1.364507  2 H  py         
    27     -0.920347  1 H  fxxy              32     -0.916104  1 H  fyyy       
    34     -0.920347  1 H  fyzz              62     -0.920347  2 H  fxxy       
    67     -0.916104  2 H  fyyy              69     -0.920347  2 H  fyzz       

 Vector   13  Occ=0.000000D+00  E= 8.000298D-01  Symmetry=a
              MO Center= -5.9D-15,  2.7D-09,  4.6D-15, r^2= 6.0D+00
   Bfn.  Coefficient  Atom+Function         Bfn.  Coefficient  Atom+Function  
  ----- ------------  ---------------      ----- ------------  ---------------
     3      3.863846  1 H  s                 38      3.863846  2 H  s          
     4     -1.529836  1 H  s                 39     -1.529836  2 H  s          
     2     -1.208109  1 H  s                 37     -1.208109  2 H  s          
    23     -0.633479  1 H  dyy               58     -0.633479  2 H  dyy        
    20     -0.588214  1 H  dxx               25     -0.588214  1 H  dzz        

 Vector   14  Occ=0.000000D+00  E= 1.189721D+00  Symmetry=a
              MO Center=  5.6D-13, -2.2D-11, -1.5D-12, r^2= 4.0D+00
   Bfn.  Coefficient  Atom+Function         Bfn.  Coefficient  Atom+Function  
  ----- ------------  ---------------      ----- ------------  ---------------
    10      4.720338  1 H  pz                45     -4.720338  2 H  pz         
    28     -1.835817  1 H  fxxz              35     -1.835817  1 H  fzzz       
    63      1.835817  2 H  fxxz              70      1.835817  2 H  fzzz       
    33     -1.816162  1 H  fyyz              68      1.816162  2 H  fyyz       
     8     -1.708275  1 H  px                43      1.708275  2 H  px         

 Vector   15  Occ=0.000000D+00  E= 1.189721D+00  Symmetry=a
              MO Center=  1.3D-12, -2.3D-11,  4.6D-13, r^2= 4.0D+00
   Bfn.  Coefficient  Atom+Function         Bfn.  Coefficient  Atom+Function  
  ----- ------------  ---------------      ----- ------------  ---------------
     8      4.720338  1 H  px                43     -4.720338  2 H  px         
    26     -1.835817  1 H  fxxx              31     -1.835817  1 H  fxzz       
    61      1.835817  2 H  fxxx              66      1.835817  2 H  fxzz       
    29     -1.816162  1 H  fxyy              64      1.816162  2 H  fxyy       
    10      1.708275  1 H  pz                45     -1.708275  2 H  pz         

 Vector   16  Occ=0.000000D+00  E= 1.714779D+00  Symmetry=a
              MO Center= -1.1D-12,  3.3D-09,  6.7D-13, r^2= 3.6D+00
   Bfn.  Coefficient  Atom+Function         Bfn.  Coefficient  Atom+Function  
  ----- ------------  ---------------      ----- ------------  ---------------
     9      4.953720  1 H  py                44      4.953720  2 H  py         
     3      2.156784  1 H  s                 38     -2.156784  2 H  s          
    27     -1.911131  1 H  fxxy              32     -1.904661  1 H  fyyy       
    34     -1.911131  1 H  fyzz              62     -1.911131  2 H  fxxy       
    67     -1.904661  2 H  fyyy              69     -1.911131  2 H  fyzz       

 Vector   17  Occ=0.000000D+00  E= 1.799195D+00  Symmetry=a
              MO Center=  1.4D-15,  4.7D-11,  3.0D-14, r^2= 2.9D+00
   Bfn.  Coefficient  Atom+Function         Bfn.  Coefficient  Atom+Function  
  ----- ------------  ---------------      ----- ------------  ---------------
    10      6.102414  1 H  pz                45      6.102414  2 H  pz         
    28     -2.382530  1 H  fxxz              33     -2.387518  1 H  fyyz       
    35     -2.382530  1 H  fzzz              63     -2.382530  2 H  fxxz       
    68     -2.387518  2 H  fyyz              70     -2.382530  2 H  fzzz       
     7     -1.613305  1 H  pz                42     -1.613305  2 H  pz         

 Vector   18  Occ=0.000000D+00  E= 1.799195D+00  Symmetry=a
              MO Center= -5.0D-14,  4.7D-11,  5.8D-15, r^2= 2.9D+00
   Bfn.  Coefficient  Atom+Function         Bfn.  Coefficient  Atom+Function  
  ----- ------------  ---------------      ----- ------------  ---------------
     8      6.102414  1 H  px                43      6.102414  2 H  px         
    26     -2.382530  1 H  fxxx              29     -2.387518  1 H  fxyy       
    31     -2.382530  1 H  fxzz              61     -2.382530  2 H  fxxx       
    64     -2.387518  2 H  fxyy              66     -2.382530  2 H  fxzz       
     5     -1.613305  1 H  px                40     -1.613305  2 H  px         

 Vector   19  Occ=0.000000D+00  E= 1.919420D+00  Symmetry=a
              MO Center= -8.0D-15, -6.0D-10,  6.2D-15, r^2= 3.1D+00
   Bfn.  Coefficient  Atom+Function         Bfn.  Coefficient  Atom+Function  
  ----- ------------  ---------------      ----- ------------  ---------------
     9      4.307440  1 H  py                44     -4.307440  2 H  py         
    32     -1.667359  1 H  fyyy              67      1.667359  2 H  fyyy       
    27     -1.657765  1 H  fxxy              34     -1.657765  1 H  fyzz       
    62      1.657765  2 H  fxxy              69      1.657765  2 H  fyzz       
     6     -1.129017  1 H  py                41      1.129017  2 H  py         

 Vector   20  Occ=0.000000D+00  E= 2.001589D+00  Symmetry=a
              MO Center= -8.3D-16, -1.1D-10,  5.3D-15, r^2= 2.8D+00
   Bfn.  Coefficient  Atom+Function         Bfn.  Coefficient  Atom+Function  
  ----- ------------  ---------------      ----- ------------  ---------------
    21      1.128221  1 H  dxy               56     -1.128221  2 H  dxy        
    24      0.627939  1 H  dyz               59     -0.627939  2 H  dyz        
     8      0.362628  1 H  px                43      0.362628  2 H  px         
    11     -0.218257  1 H  px                46     -0.218257  2 H  px         
    10      0.201829  1 H  pz                45      0.201829  2 H  pz         


 Wrote Lagrangian and 1- and 2-particle density matrices to ./H2.mcpdm


     Multipole analysis of the density
     ---------------------------------

     L   x y z        total        nuclear
     -   - - -        -----        -------
     0   0 0 0     -0.000000      2.000000

     1   1 0 0     -0.000000      0.000000
     1   0 1 0     -0.000000      0.000000
     1   0 0 1      0.000000      0.000000

     2   2 0 0     -2.043531      0.000000
     2   1 1 0      0.000000      0.000000
     2   1 0 1     -0.000000      0.000000
     2   0 2 0     -1.732044     11.520000
     2   0 1 1     -0.000000      0.000000
     2   0 0 2     -2.043531      0.000000


  Mulliken analysis of the total density
  --------------------------------------

    Atom       Charge   Shell Charges
 -----------   ------   -------------------------------------------------------
    1 H    1     1.00   0.04  0.21  0.48  0.26  0.00 -0.00  0.00  0.00  0.00  0.00
    2 H    1     1.00   0.04  0.21  0.48  0.26  0.00 -0.00  0.00  0.00  0.00  0.00

    Mulliken analysis of the active space density
    ---------------------------------------------

    Atom       Charge   Shell Charges
 -----------   ------   -------------------------------------------------------
    1 H    1     1.00   0.04  0.21  0.48  0.26  0.00 -0.00  0.00  0.00  0.00  0.00
    2 H    1     1.00   0.04  0.21  0.48  0.26  0.00 -0.00  0.00  0.00  0.00  0.00

 Parallel integral file used      15 records with       0 large values


 Task  times  cpu:        1.7s     wall:        2.1s


                                NWChem Input Module
                                -------------------


                                 NWChem SCF Module
                                 -----------------


                                        H2



  ao basis        = "ao basis"
  functions       =    70
  atoms           =     2
  closed shells   =     1
  open shells     =     0
  charge          =   0.00
  wavefunction    = RHF 
  input vectors   = ./H2.mos
  output vectors  = ./H2-4.80.mos
  use symmetry    = F
  symmetry adapt  = F


 Summary of "ao basis" -> "ao basis" (cartesian)
 ------------------------------------------------------------------------------
       Tag                 Description            Shells   Functions and Types
 ---------------- ------------------------------  ------  ---------------------
 H                          cc-pVQZ                 10       35   4s3p2d1f



 Forming initial guess at       2.1s


 Loading old vectors from job with title :

H2


 Starting SCF solution at       2.1s



 ----------------------------------------------
         Quadratically convergent ROHF

 Convergence threshold     :          1.000E-04
 Maximum no. of iterations :           30
 Final Fock-matrix accuracy:          1.000E-07
 ----------------------------------------------


 Integral file          = ./H2.aoints.0
 Record size in doubles =  65536        No. of integs per rec  =  43688
 Max. records in memory =     99        Max. records in file   = 280266
 No. of bits per label  =      8        No. of bits per value  =     64


 #quartets = 1.958D+04 #integrals = 5.076D+05 #direct =  0.0% #cached =100.0%



       Final RHF  results 
       ------------------ 

         Total SCF energy =     -0.847666548229
      One-electron energy =     -1.461591622961
      Two-electron energy =      0.405591741399
 Nuclear repulsion energy =      0.208333333333

        Time for solution =      0.0s


             Final eigenvalues
             -----------------

              1      
    1   -0.3138
    2   -0.1855
    3   -0.0004
    4   -0.0002
    5   -0.0002
    6   -0.0000
    7   -0.0000
    8   -0.0000
    9   -0.0000
   10   -0.0000
   11    0.4412

                       ROHF Final Molecular Orbital Analysis
                       -------------------------------------

 Vector    1  Occ=2.000000D+00  E=-3.138103D-01
              MO Center=  4.4D-15,  4.0D-12, -2.8D-15, r^2= 2.4D+00
   Bfn.  Coefficient  Atom+Function         Bfn.  Coefficient  Atom+Function  
  ----- ------------  ---------------      ----- ------------  ---------------
     3      0.323291  1 H  s                 38      0.323291  2 H  s          
     4      0.208683  1 H  s                 39      0.208683  2 H  s          
     2      0.168337  1 H  s                 37      0.168337  2 H  s          

 Vector    2  Occ=0.000000D+00  E=-1.855357D-01
              MO Center=  1.9D-14, -3.4D-12, -1.3D-14, r^2= 2.5D+00
   Bfn.  Coefficient  Atom+Function         Bfn.  Coefficient  Atom+Function  
  ----- ------------  ---------------      ----- ------------  ---------------
     3      0.382118  1 H  s                 38     -0.382118  2 H  s          
     4      0.207690  1 H  s                 39     -0.207690  2 H  s          
     2      0.192951  1 H  s                 37     -0.192951  2 H  s          

 Vector    3  Occ=0.000000D+00  E=-3.554531D-04
              MO Center= -2.5D-14,  7.5D-10,  1.4D-14, r^2= 2.9D+00
   Bfn.  Coefficient  Atom+Function         Bfn.  Coefficient  Atom+Function  
  ----- ------------  ---------------      ----- ------------  ---------------
    12      0.710242  1 H  py                47     -0.710242  2 H  py         
     3      0.681082  1 H  s                 38      0.681082  2 H  s          
     9     -0.578526  1 H  py                44      0.578526  2 H  py         
     4     -0.455727  1 H  s                 39     -0.455727  2 H  s          
    32      0.256680  1 H  fyyy              67     -0.256680  2 H  fyyy       

 Vector    4  Occ=0.000000D+00  E=-1.530104D-04
              MO Center=  2.0D-13,  2.5D-12,  4.9D-15, r^2= 2.5D+00
   Bfn.  Coefficient  Atom+Function         Bfn.  Coefficient  Atom+Function  
  ----- ------------  ---------------      ----- ------------  ---------------
     8      1.253511  1 H  px                43      1.253511  2 H  px         
    11     -0.877288  1 H  px                46     -0.877288  2 H  px         
    29     -0.570698  1 H  fxyy              64     -0.570698  2 H  fxyy       
    26     -0.527767  1 H  fxxx              31     -0.527767  1 H  fxzz       
    61     -0.527767  2 H  fxxx              66     -0.527767  2 H  fxzz       

 Vector    5  Occ=0.000000D+00  E=-1.530104D-04
              MO Center=  3.3D-15,  1.7D-12, -1.2D-13, r^2= 2.5D+00
   Bfn.  Coefficient  Atom+Function         Bfn.  Coefficient  Atom+Function  
  ----- ------------  ---------------      ----- ------------  ---------------
    10      1.253511  1 H  pz                45      1.253511  2 H  pz         
    13     -0.877288  1 H  pz                48     -0.877288  2 H  pz         
    33     -0.570698  1 H  fyyz              68     -0.570698  2 H  fyyz       
    28     -0.527767  1 H  fxxz              35     -0.527767  1 H  fzzz       
    63     -0.527767  2 H  fxxz              70     -0.527767  2 H  fzzz       

 Vector    6  Occ=0.000000D+00  E=-1.089680D-05
              MO Center= -1.5D-13, -8.2D-10,  1.0D-13, r^2= 2.4D+00
   Bfn.  Coefficient  Atom+Function         Bfn.  Coefficient  Atom+Function  
  ----- ------------  ---------------      ----- ------------  ---------------
     9      0.926493  1 H  py                44     -0.926493  2 H  py         
     2      0.643140  1 H  s                 37      0.643140  2 H  s          
     4     -0.447625  1 H  s                 39     -0.447625  2 H  s          
    27     -0.376296  1 H  fxxy              34     -0.376296  1 H  fyzz       
    62      0.376296  2 H  fxxy              69      0.376296  2 H  fyzz       

 Vector    7  Occ=0.000000D+00  E=-4.685879D-06
              MO Center= -3.7D-12, -8.8D-12,  2.3D-13, r^2= 1.7D+00
   Bfn.  Coefficient  Atom+Function         Bfn.  Coefficient  Atom+Function  
  ----- ------------  ---------------      ----- ------------  ---------------
     8      1.342004  1 H  px                43     -1.342004  2 H  px         
    26     -0.432311  1 H  fxxx              31     -0.432311  1 H  fxzz       
    61      0.432311  2 H  fxxx              66      0.432311  2 H  fxzz       
    21      0.376705  1 H  dxy               56      0.376705  2 H  dxy        
    29     -0.318730  1 H  fxyy              64      0.318730  2 H  fxyy       

 Vector    8  Occ=0.000000D+00  E=-4.685879D-06
              MO Center=  1.2D-13, -8.4D-12,  1.9D-12, r^2= 1.7D+00
   Bfn.  Coefficient  Atom+Function         Bfn.  Coefficient  Atom+Function  
  ----- ------------  ---------------      ----- ------------  ---------------
    10      1.342004  1 H  pz                45     -1.342004  2 H  pz         
    28     -0.432311  1 H  fxxz              35     -0.432311  1 H  fzzz       
    63      0.432311  2 H  fxxz              70      0.432311  2 H  fzzz       
    24      0.376705  1 H  dyz               59      0.376705  2 H  dyz        
    33     -0.318730  1 H  fyyz              68      0.318730  2 H  fyyz       

 Vector    9  Occ=0.000000D+00  E=-4.488224D-06
              MO Center=  3.8D-12,  3.9D-09, -2.4D-12, r^2= 2.1D+00
   Bfn.  Coefficient  Atom+Function         Bfn.  Coefficient  Atom+Function  
  ----- ------------  ---------------      ----- ------------  ---------------
     9      1.501926  1 H  py                44      1.501926  2 H  py         
     3     -0.993010  1 H  s                 38      0.993010  2 H  s          
     2      0.876284  1 H  s                 37     -0.876284  2 H  s          
    27     -0.544479  1 H  fxxy              34     -0.544479  1 H  fyzz       
    62     -0.544479  2 H  fxxy              69     -0.544479  2 H  fyzz       

 Vector   10  Occ=0.000000D+00  E=-2.583645D-06
              MO Center=  3.2D-15,  3.1D-09, -1.3D-14, r^2= 2.6D+00
   Bfn.  Coefficient  Atom+Function         Bfn.  Coefficient  Atom+Function  
  ----- ------------  ---------------      ----- ------------  ---------------
     9      3.387106  1 H  py                44     -3.387106  2 H  py         
    27     -1.488345  1 H  fxxy              34     -1.488345  1 H  fyzz       
    62      1.488345  2 H  fxxy              69      1.488345  2 H  fyzz       
    32     -1.165704  1 H  fyyy              67      1.165704  2 H  fyyy       
     6     -0.839629  1 H  py                41      0.839629  2 H  py         

 Vector   11  Occ=0.000000D+00  E= 4.412349D-01
              MO Center=  1.9D-12,  7.8D-09, -1.2D-12, r^2= 8.5D+00
   Bfn.  Coefficient  Atom+Function         Bfn.  Coefficient  Atom+Function  
  ----- ------------  ---------------      ----- ------------  ---------------
     3      3.121865  1 H  s                 38     -3.121865  2 H  s          
     4     -2.114484  1 H  s                 39      2.114484  2 H  s          
     2     -0.772704  1 H  s                 37      0.772704  2 H  s          
     9     -0.570481  1 H  py                44     -0.570481  2 H  py         
    23     -0.476034  1 H  dyy               58      0.476034  2 H  dyy        

 Vector   12  Occ=0.000000D+00  E= 7.452352D-01
              MO Center= -3.0D-12, -2.1D-08,  1.8D-12, r^2= 3.7D+00
   Bfn.  Coefficient  Atom+Function         Bfn.  Coefficient  Atom+Function  
  ----- ------------  ---------------      ----- ------------  ---------------
     9      2.310852  1 H  py                44      2.310852  2 H  py         
    12     -1.364507  1 H  py                47     -1.364507  2 H  py         
    27     -0.920347  1 H  fxxy              32     -0.916104  1 H  fyyy       
    34     -0.920347  1 H  fyzz              62     -0.920347  2 H  fxxy       
    67     -0.916104  2 H  fyyy              69     -0.920347  2 H  fyzz       


 center of mass
 --------------
 x =   0.00000000 y =   0.00000000 z =   0.00000000

 moments of inertia (a.u.)
 ------------------
          11.610144000000           0.000000000000           0.000000000000
           0.000000000000           0.000000000000           0.000000000000
           0.000000000000           0.000000000000          11.610144000000

  Mulliken analysis of the total density
  --------------------------------------

    Atom       Charge   Shell Charges
 -----------   ------   -------------------------------------------------------
    1 H    1     1.00   0.04  0.20  0.46  0.30  0.00 -0.00  0.00  0.00  0.00  0.00
    2 H    1     1.00   0.04  0.20  0.46  0.30  0.00 -0.00  0.00  0.00  0.00  0.00

       Multipole analysis of the density wrt the origin
       ------------------------------------------------

     L   x y z        total         open         nuclear
     -   - - -        -----         ----         -------
     0   0 0 0     -0.000000      0.000000      2.000000

     1   1 0 0     -0.000000      0.000000      0.000000
     1   0 1 0     -0.000000      0.000000      0.000000
     1   0 0 1      0.000000      0.000000      0.000000

     2   2 0 0     -2.175247      0.000000      0.000000
     2   1 1 0     -0.000000      0.000000      0.000000
     2   1 0 1      0.000000      0.000000      0.000000
     2   0 2 0     -1.132370      0.000000     11.520000
     2   0 1 1      0.000000      0.000000      0.000000
     2   0 0 2     -2.175247      0.000000      0.000000


 Parallel integral file used      12 records with       0 large values

 ------------------------------------
     Number of active orbitals     10
     Number of active alpha electrons      1
     Number of active beta electrons       1
 ------------------------------------
                   NWChem Extensible Many-Electron Theory Module
                   ---------------------------------------------

              ======================================================
                   This portion of the program was automatically
                  generated by a Tensor Contraction Engine (TCE).
                  The development of this portion of the program
                 and TCE was supported by US Department of Energy,
                Office of Science, Office of Basic Energy Science.
                      TCE is a product of Battelle and PNNL.
              Please cite: S.Hirata, J.Phys.Chem.A 107, 9887 (2003).
              ======================================================

                                        H2


            General Information
            -------------------
      Number of processors :     1
         Wavefunction type : Restricted Hartree-Fock
          No. of electrons :     2
           Alpha electrons :     1
            Beta electrons :     1
           No. of orbitals :   140
            Alpha orbitals :    70
             Beta orbitals :    70
        Alpha frozen cores :     0
         Beta frozen cores :     0
     Alpha frozen virtuals :    60
      Beta frozen virtuals :    60
         Spin multiplicity : singlet 
    Number of AO functions :    70
       Number of AO shells :    20
        Use of symmetry is : off
      Symmetry adaption is : off
         Schwarz screening : 0.10D-09

          Correlation Information
          -----------------------
          Calculation type : Coupled-cluster singles & doubles                           
   Perturbative correction : none                                                        
            Max iterations :      300
        Residual threshold : 0.10D-06
     T(0) DIIS level shift : 0.00D+00
     L(0) DIIS level shift : 0.00D+00
     T(1) DIIS level shift : 0.00D+00
     L(1) DIIS level shift : 0.00D+00
     T(R) DIIS level shift : 0.00D+00
     T(I) DIIS level shift : 0.00D+00
   CC-T/L Amplitude update :  5-th order DIIS
                I/O scheme : Global Array Library
        L-threshold :  0.10D-06
        EOM-threshold :  0.10D-06
 no EOMCCSD initial starts read in
 TCE RESTART OPTIONS
 READ_INT:   F
 WRITE_INT:  F
 READ_TA:    F
 WRITE_TA:   F
 READ_XA:    F
 WRITE_XA:   F
 READ_IN3:   F
 WRITE_IN3:  F
 SLICE:      F
 D4D5:       F
 quantumc:   T
 qrotation:  F
 pwtce:      F
 qducc:      F
 nacto:                         0
 nrotv:                         0
 nrot:                          0

            Memory Information
            ------------------
          Available GA space size is    1610607836 doubles
          Available MA space size is    1610610644 doubles

 Maximum block size supplied by input
 Maximum block size         1 doubles

 tile_dim =      1

 Block   Spin    Irrep     Size     Offset   Alpha
 -------------------------------------------------
   1    alpha     a      1 doubles       0       1
   2    beta      a      1 doubles       1       1
   3    alpha     a      1 doubles       2       3
   4    alpha     a      1 doubles       3       4
   5    alpha     a      1 doubles       4       5
   6    alpha     a      1 doubles       5       6
   7    alpha     a      1 doubles       6       7
   8    alpha     a      1 doubles       7       8
   9    alpha     a      1 doubles       8       9
  10    alpha     a      1 doubles       9      10
  11    alpha     a      1 doubles      10      11
  12    beta      a      1 doubles      11       3
  13    beta      a      1 doubles      12       4
  14    beta      a      1 doubles      13       5
  15    beta      a      1 doubles      14       6
  16    beta      a      1 doubles      15       7
  17    beta      a      1 doubles      16       8
  18    beta      a      1 doubles      17       9
  19    beta      a      1 doubles      18      10
  20    beta      a      1 doubles      19      11

 Global array virtual files algorithm will be used

 Parallel file system coherency ......... OK

 Integral file          = ./H2.aoints.0
 Record size in doubles =  65536        No. of integs per rec  =  43688
 Max. records in memory =     99        Max. records in file   = 280266
 No. of bits per label  =      8        No. of bits per value  =     64


 #quartets = 2.052D+04 #integrals = 6.307D+05 #direct =  0.0% #cached =100.0%


 Fock matrix recomputed
 1-e file size   =              100
 1-e file name   = ./H2.f1
 Cpu & wall time / sec            0.1            0.1
 4-electron integrals stored in orbital form

 v2    file size   =             1540
 4-index algorithm nr.  13 is used
 imaxsize =       30
 imaxsize ichop =        0
 begin_one_electron_integrals
    1    1        -0.7307958115
    3    1        -0.0516714173
    6    1        -0.0020965011
   10    1        -0.0019192253
    2    2        -0.6807415202
    9    2        -0.0045636320
    1    3        -0.0516714173
    3    3        -0.1635689929
    6    3         0.0584245475
   10    3         0.2157516831
    4    4        -0.0829460812
    5    5        -0.0829460812
    1    6        -0.0020965011
    3    6         0.0584245475
    6    6         0.0567352040
    9    6        -0.0000000006
   10    6         0.1448480815
    7    7         0.5777355438
    8    8         0.5777355438
    2    9        -0.0045636320
    6    9        -0.0000000006
    9    9         0.7039036470
   10    9        -0.0000000008
    1   10        -0.0019192253
    3   10         0.2157516831
    6   10         0.1448480815
    9   10        -0.0000000008
   10   10         1.4647384506
 end_one_electron_integrals
 begin_two_electron_integrals
    1    1    1    1        0.4055917429
    2    1    2    1        0.2101901327
    3    1    1    1        0.0373596837
    3    1    3    1        0.0520248672
    3    1    2    2        0.0274807511
    4    1    4    1        0.0466092530
    5    1    5    1        0.0466092530
    6    1    1    1        0.0819901580
    6    1    3    1       -0.0008460053
    6    1    6    1        0.0695598310
    6    1    2    2        0.0962253231
    6    1    3    3        0.0291486973
    6    1    4    4        0.0290692734
    6    1    5    5        0.0290692734
    7    1    7    1        0.0560010135
    7    1    4    2       -0.0420506684
    7    1    5    2        0.0038376921
    8    1    8    1        0.0560010135
    8    1    4    2       -0.0038376921
    8    1    5    2       -0.0420506684
    9    1    2    1        0.0590890631
    9    1    9    1        0.0616912805
    9    1    3    2        0.0172793778
    9    1    6    2        0.0621488620
    9    1    7    4       -0.0303317821
    9    1    8    4       -0.0027681853
    9    1    7    5        0.0027681853
    9    1    8    5       -0.0303317821
   10    1    1    1       -0.0162831122
   10    1    3    1        0.0140904263
   10    1    6    1       -0.0148391989
   10    1   10    1        0.0277099362
   10    1    2    2       -0.0218969748
   10    1    9    2       -0.0027215832
   10    1    3    3        0.0166184086
   10    1    6    3        0.0023488453
   10    1    4    4       -0.0074698099
   10    1    5    5       -0.0074698099
   10    1    6    6       -0.0194010369
   10    1    7    7       -0.0135036910
   10    1    8    8       -0.0135036910
   10    1    9    9       -0.0095835732
    2    2    1    1        0.4165274468
    2    2    2    2        0.4323360655
    3    2    2    1       -0.0203991658
    3    2    3    2        0.0307298319
    4    2    4    2        0.0348172042
    5    2    5    2        0.0348172042
    6    2    2    1        0.1097377509
    6    2    3    2       -0.0019888025
    6    2    6    2        0.0845214951
    7    2    4    1       -0.0507700552
    7    2    5    1        0.0046334541
    7    2    7    2        0.0653783437
    7    2    4    3       -0.0091218280
    7    2    5    3        0.0008324902
    7    2    6    4        0.0096140867
    7    2    6    5       -0.0008774154
    8    2    4    1       -0.0046334541
    8    2    5    1       -0.0507700552
    8    2    8    2        0.0653783437
    8    2    4    3       -0.0008324902
    8    2    5    3       -0.0091218280
    8    2    6    4        0.0008774154
    8    2    6    5        0.0096140867
    9    2    1    1        0.0782953756
    9    2    3    1        0.0272710289
    9    2    6    1        0.0612502947
    9    2    9    1       -0.0000000002
    9    2    2    2        0.0851059971
    9    2    9    2        0.0736380482
    9    2    3    3        0.0469071547
    9    2    6    3        0.0017289124
    9    2    4    4        0.0341988241
    9    2    5    5        0.0341988241
    9    2    6    6        0.0903113384
    9    2    7    7        0.0813818640
    9    2    8    8        0.0813818640
   10    2    2    1       -0.0258169777
   10    2    3    1        0.0000000001
   10    2    9    1       -0.0058147274
   10    2    3    2        0.0098088866
   10    2    6    2       -0.0211582096
   10    2   10    2        0.0276264790
   10    2    9    3        0.0051928926
   10    2    7    4        0.0130175524
   10    2    8    4        0.0011880277
   10    2    7    5       -0.0011880277
   10    2    8    5        0.0130175524
   10    2    9    6       -0.0195349039
   10    2    9    9        0.0000000001
    3    3    1    1        0.3521993770
    3    3    3    1        0.0611084239
    3    3    2    2        0.3471172685
    3    3    3    3        0.3733369320
    4    3    4    1        0.0093896287
    4    3    4    3        0.0168823455
    5    3    5    1        0.0093896287
    5    3    5    3        0.0168823455
    6    3    1    1       -0.0204885217
    6    3    2    1        0.0000000001
    6    3    3    1       -0.0165506272
    6    3    6    1        0.0078403452
    6    3    2    2       -0.0153221902
    6    3    3    3       -0.0354321422
    6    3    6    3        0.0190528400
    6    3    4    4       -0.0240084630
    6    3    5    5       -0.0240084630
    7    3    7    1        0.0108820223
    7    3    4    2       -0.0068065517
    7    3    5    2        0.0006211899
    7    3    7    3        0.0121425846
    8    3    8    1        0.0108820223
    8    3    4    2       -0.0006211899
    8    3    5    2       -0.0068065517
    8    3    8    3        0.0121425846
    9    3    2    1        0.0674362495
    9    3    9    1        0.0226284204
    9    3    3    2       -0.0022764121
    9    3    6    2        0.0328987332
    9    3    9    3        0.0317056133
    9    3    7    4       -0.0463366249
    9    3    8    4       -0.0042288436
    9    3    7    5        0.0042288436
    9    3    8    5       -0.0463366249
   10    3    1    1        0.0609169086
   10    3    2    1        0.0000000003
   10    3    3    1        0.0458555019
   10    3    6    1        0.0195253174
   10    3   10    1        0.0129440568
   10    3    2    2        0.0568275322
   10    3    6    2        0.0000000002
   10    3    9    2        0.0385009327
   10    3   10    2        0.0000000001
   10    3    3    3        0.0678844904
   10    3    6    3       -0.0101045098
   10    3    9    3        0.0000000002
   10    3   10    3        0.0607552713
   10    3    4    4        0.0496605624
   10    3    7    4       -0.0000000002
   10    3    5    5        0.0496605624
   10    3    8    5       -0.0000000002
   10    3    6    6        0.0624671593
   10    3    9    6        0.0000000002
   10    3    7    7        0.0780089193
   10    3    8    8        0.0780089193
   10    3    9    9        0.0804924905
    4    4    1    1        0.3463513864
    4    4    3    1        0.0427984608
    4    4    2    2        0.3460870697
    4    4    3    3        0.3264293922
    4    4    4    4        0.3479383309
    5    4    5    4        0.0147826331
    6    4    4    1       -0.0190478994
    6    4    4    3       -0.0059993007
    6    4    6    4        0.0213150963
    7    4    2    1       -0.1417815700
    7    4    3    2        0.0032923111
    7    4    6    2       -0.0607096736
    7    4    7    4        0.1251975458
    8    4    2    1       -0.0129394855
    8    4    3    2        0.0003004679
    8    4    6    2       -0.0055405787
    8    4    7    4        0.0103469203
    8    4    8    4        0.0127677364
    8    4    7    5        0.0108791436
    9    4    7    1        0.0107725380
    9    4    8    1        0.0009831398
    9    4    4    2       -0.0145918717
    9    4    7    3       -0.0019873417
    9    4    8    3       -0.0001813718
    9    4    9    4        0.0177678434
    9    4    7    6       -0.0072818956
    9    4    8    6       -0.0006645714
   10    4    4    1       -0.0094477169
   10    4    7    2        0.0101962865
   10    4    8    2        0.0009305490
   10    4    4    3        0.0001894872
   10    4    6    4        0.0054249661
   10    4   10    4        0.0086327669
   10    4    9    7       -0.0047948364
   10    4    9    8       -0.0004375937
    5    5    1    1        0.3463513864
    5    5    3    1        0.0427984608
    5    5    2    2        0.3460870697
    5    5    3    3        0.3264293922
    5    5    4    4        0.3183730647
    5    5    5    5        0.3479383309
    6    5    5    1       -0.0190478994
    6    5    5    3       -0.0059993007
    6    5    6    5        0.0213150963
    7    5    2    1        0.0129394855
    7    5    3    2       -0.0003004679
    7    5    6    2        0.0055405787
    7    5    7    4       -0.0103469203
    7    5    7    5        0.0127677364
    8    5    2    1       -0.1417815700
    8    5    3    2        0.0032923111
    8    5    6    2       -0.0607096736
    8    5    7    4        0.1015506658
    8    5    8    4        0.0103469203
    8    5    7    5       -0.0103469203
    8    5    8    5        0.1251975458
    9    5    7    1       -0.0009831398
    9    5    8    1        0.0107725380
    9    5    5    2       -0.0145918717
    9    5    7    3        0.0001813718
    9    5    8    3       -0.0019873417
    9    5    9    5        0.0177678434
    9    5    7    6        0.0006645714
    9    5    8    6       -0.0072818956
   10    5    5    1       -0.0094477169
   10    5    7    2       -0.0009305490
   10    5    8    2        0.0101962865
   10    5    5    3        0.0001894872
   10    5    6    5        0.0054249661
   10    5   10    5        0.0086327669
   10    5    9    7        0.0004375937
   10    5    9    8       -0.0047948364
    6    6    1    1        0.3923614557
    6    6    2    1        0.0000000001
    6    6    3    1        0.0482811637
    6    6    6    1        0.0810850469
    6    6    2    2        0.3999220204
    6    6    6    2        0.0000000001
    6    6    3    3        0.3424768267
    6    6    6    3       -0.0238764666
    6    6    4    4        0.3358986312
    6    6    5    5        0.3358986312
    6    6    6    6        0.3995015418
    7    6    7    1        0.0169393395
    7    6    4    2       -0.0084100596
    7    6    5    2        0.0007675317
    7    6    7    3        0.0020320517
    7    6    7    6        0.0151042632
    8    6    8    1        0.0169393395
    8    6    4    2       -0.0007675317
    8    6    5    2       -0.0084100596
    8    6    8    3        0.0020320517
    8    6    8    6        0.0151042632
    9    6    1    1       -0.0000000002
    9    6    2    1        0.1654726864
    9    6    9    1        0.0706285971
    9    6    2    2       -0.0000000002
    9    6    3    2       -0.0006441418
    9    6    6    2        0.0999952477
    9    6    9    2       -0.0000000002
    9    6    3    3       -0.0000000002
    9    6    6    3        0.0000000001
    9    6    9    3        0.0558707775
    9    6    4    4       -0.0000000001
    9    6    7    4       -0.1093514719
    9    6    8    4       -0.0099798006
    9    6    5    5       -0.0000000001
    9    6    7    5        0.0099798006
    9    6    8    5       -0.1093514719
    9    6    9    6        0.1545616549
    9    6    7    7       -0.0000000002
    9    6    8    8       -0.0000000002
   10    6    1    1       -0.0095861466
   10    6    2    1       -0.0000000001
   10    6    3    1        0.0213328891
   10    6    6    1       -0.0235217506
   10    6   10    1        0.0157399439
   10    6    2    2       -0.0180094620
   10    6    9    2       -0.0087226148
   10    6   10    2        0.0000000001
   10    6    3    3        0.0152012949
   10    6    6    3       -0.0045261363
   10    6   10    3        0.0140829216
   10    6    4    4        0.0109968758
   10    6    5    5        0.0109968758
   10    6    6    6       -0.0068507809
   10    6   10    6        0.0240456606
   10    6    7    7        0.0012265409
   10    6    8    8        0.0012265409
   10    6    9    9       -0.0024779269
    7    7    1    1        0.4234169434
    7    7    3    1        0.0565820084
    7    7    6    1        0.0786136805
    7    7    2    2        0.4314340456
    7    7    3    3        0.3690014000
    7    7    6    3       -0.0221810583
    7    7    4    4        0.3883963755
    7    7    5    4       -0.0026177573
    7    7    5    5        0.3599517811
    7    7    6    6        0.4039570126
    7    7    7    7        0.4877005151
    8    7    4    4        0.0026177573
    8    7    5    4        0.0142222973
    8    7    5    5       -0.0026177573
    8    7    8    7        0.0220778264
    9    7    4    1        0.0030748038
    9    7    5    1       -0.0002806174
    9    7    7    2        0.0059380640
    9    7    4    3       -0.0040116097
    9    7    5    3        0.0003661136
    9    7    6    4       -0.0122710470
    9    7    6    5        0.0011198990
    9    7    9    7        0.0180548101
   10    7    7    1       -0.0101160695
   10    7    4    2        0.0084478496
   10    7    5    2       -0.0007709805
   10    7    7    3        0.0067217119
   10    7    9    4       -0.0065741659
   10    7    9    5        0.0005999815
   10    7    7    6       -0.0033646193
   10    7   10    7        0.0135906888
    8    8    1    1        0.4234169434
    8    8    3    1        0.0565820084
    8    8    6    1        0.0786136805
    8    8    2    2        0.4314340456
    8    8    3    3        0.3690014000
    8    8    6    3       -0.0221810583
    8    8    4    4        0.3599517811
    8    8    5    4        0.0026177573
    8    8    5    5        0.3883963755
    8    8    6    6        0.4039570126
    8    8    7    7        0.4435448625
    8    8    8    8        0.4877005151
    9    8    4    1        0.0002806174
    9    8    5    1        0.0030748038
    9    8    8    2        0.0059380640
    9    8    4    3       -0.0003661136
    9    8    5    3       -0.0040116097
    9    8    6    4       -0.0011198990
    9    8    6    5       -0.0122710470
    9    8    9    8        0.0180548101
   10    8    8    1       -0.0101160695
   10    8    4    2        0.0007709805
   10    8    5    2        0.0084478496
   10    8    8    3        0.0067217119
   10    8    9    4       -0.0005999815
   10    8    9    5       -0.0065741659
   10    8    8    6       -0.0033646193
   10    8   10    8        0.0135906888
    9    9    1    1        0.4236221952
    9    9    2    1       -0.0000000007
    9    9    3    1        0.0556445902
    9    9    6    1        0.1018606281
    9    9    9    1       -0.0000000004
    9    9    2    2        0.4350575925
    9    9    6    2       -0.0000000003
    9    9    9    2        0.1134951993
    9    9    3    3        0.3612221505
    9    9    6    3       -0.0115988849
    9    9    9    3       -0.0000000003
    9    9    4    4        0.3554938918
    9    9    7    4        0.0000000005
    9    9    5    5        0.3554938918
    9    9    8    5        0.0000000005
    9    9    6    6        0.4254988211
    9    9    9    6       -0.0000000008
    9    9    7    7        0.4425959704
    9    9    8    8        0.4425959704
    9    9    9    9        0.4795008852
   10    9    2    1        0.0187601376
   10    9    9    1        0.0117938640
   10    9   10    1        0.0000000001
   10    9    3    2        0.0204730951
   10    9    6    2        0.0029506057
   10    9   10    2        0.0180716139
   10    9    9    3        0.0192622079
   10    9    7    4       -0.0269833442
   10    9    8    4       -0.0024625950
   10    9    7    5        0.0024625950
   10    9    8    5       -0.0269833442
   10    9    9    6        0.0211734322
   10    9   10    9        0.0388167296
   10   10    1    1        0.3909239201
   10   10    3    1        0.0629398774
   10   10    6    1        0.0629513901
   10   10    9    1        0.0000000001
   10   10   10    1        0.0181752358
   10   10    2    2        0.3928621374
   10   10    3    2        0.0000000002
   10   10    6    2        0.0000000002
   10   10    9    2        0.0786876145
   10   10   10    2        0.0000000001
   10   10    3    3        0.3846934104
   10   10    6    3       -0.0230981745
   10   10   10    3        0.0869850397
   10   10    4    4        0.3425472296
   10   10    5    5        0.3425472296
   10   10    6    6        0.3780737830
   10   10   10    6        0.0114938758
   10   10    7    7        0.4108038435
   10   10    8    8        0.4108038435
   10   10    9    9        0.4175496624
   10   10   10    9        0.0000000002
   10   10   10   10        0.4323579045
 end_two_electron_integrals
 enrep_tce =   0.20833333333333331     
  EHF(A)             =        -0.84766655
  EHF(total)         =        -0.84766655
  Shift (HFtot-HFA)  =        -0.00000000
 Cpu & wall time / sec            1.6            1.7
 T1-number-of-tasks                    9

 t1 file size   =                9
 t1 file name   = ./H2.t1
 t1 file handle =       -998
 T2-number-of-boxes                  126

 t2 file size   =              126
 t2 file name   = ./H2.t2
 t2 file handle =       -996
CCSD iterations
 ---------------------------------------------------------
 Iter          Residuum       Correlation     Cpu    Wall 
 ---------------------------------------------------------
NEW TASK SCHEDULING
CCSD_T1_NTS --- OK
CCSD_T2_NTS --- OK
    1   0.7166921524658  -0.2011651064976     0.5     0.5
    2   2.8121049762811   0.0288602613770     0.4     0.5
    3  17.2946001975230  -0.9282689185805     0.4     0.5
    4 462.9540089189080   8.0198032794699     0.4     0.5
    5******************1033.6235628856562     0.4     0.5
 MICROCYCLE DIIS UPDATE:                    5                    5
    6   0.1445335449754  -0.1518124305199     0.3     0.5
    7   0.5965909720901  -0.1929738804712     0.4     0.5
    8   2.4603829381950   0.0170651762857     0.4     0.6
    9  13.5424284065478  -0.7663512181703     0.5     0.5
   10 181.3124582365683   5.8460175917804     0.5     0.6
 MICROCYCLE DIIS UPDATE:                   10                    5
   11   0.0268149236233  -0.1564754778499     0.3     0.5
   12   0.1401064389955  -0.1621011880585     0.4     0.6
   13   0.8102114606086  -0.1336635615458     0.5     0.5
   14   5.0332986323834  -0.2361779232124     0.6     0.6
   15  20.4555604106138   0.5623988278874     0.4     0.5
 MICROCYCLE DIIS UPDATE:                   15                    5
   16   0.0024113198978  -0.1571613132981     0.4     0.5
   17   0.0155543440434  -0.1569869331941     0.5     0.5
   18   0.1028642053667  -0.1563221531706     0.5     0.5
   19   0.6846443949409  -0.1613916757699     0.3     0.5
   20   4.3675641616604  -0.1108748469140     0.4     0.5
 MICROCYCLE DIIS UPDATE:                   20                    5
   21   0.0000932494395  -0.1570143314154     0.4     0.5
   22   0.0004944321488  -0.1569960315982     0.3     0.5
   23   0.0032143485240  -0.1569630764163     0.5     0.5
   24   0.0210064250646  -0.1571969775709     0.4     0.5
   25   0.1373666412013  -0.1556642605589     0.5     0.6
 MICROCYCLE DIIS UPDATE:                   25                    5
   26   0.0000018663672  -0.1569952619742     0.5     0.5
   27   0.0000052922254  -0.1569945663027     0.5     0.5
   28   0.0000241462044  -0.1569968056653     0.5     0.5
   29   0.0001495231964  -0.1569865422038     0.4     0.5
   30   0.0010129313433  -0.1570370416809     0.4     0.5
 MICROCYCLE DIIS UPDATE:                   30                    5
   31   0.0000000645877  -0.1569950251028     0.5     0.5
 -----------------------------------------------------------------
 Iterations converged
 CCSD correlation energy / hartree =        -0.156995025102817
 CCSD total energy / hartree       =        -1.004661573331465

 Singles contributions

 Doubles contributions
     2a   (alpha)     2a   (beta ) ---     1a   (alpha)     1a   (beta )       -0.7318694152
     3a   (alpha)     3a   (beta ) ---     1a   (alpha)     1a   (beta )       -0.0228674221
 Ground state specification:
 exp(T)|Ref>~(1+T)|Ref>
 ------- a(p)+/a(q) strings ----------

 singles norm

 doubles norm

 Reference string
  0.80696798336088804      :(1a)+ (1b)+ |0>

 Singles strings

 Doubles strings
 -0.59059518608812045      :(2a)+ (2b)+ (1b)  (1a)  (1a)+ (1b)+ |0>
 -------------------------------------

 Parallel integral file used      15 records with       0 large values


 Task  times  cpu:       15.3s     wall:       18.9s


                                NWChem Input Module
                                -------------------


 Summary of allocated global arrays
-----------------------------------
  No active global arrays


MA_summarize_allocated_blocks: starting scan ...
MA_summarize_allocated_blocks: scan completed: 0 heap blocks, 0 stack blocks
MA usage statistics:

	allocation statistics:
					      heap	     stack
					      ----	     -----
	current number of blocks	         0	         0
	maximum number of blocks	        18	        42
	current total bytes		         0	         0
	maximum total bytes		  51983048	  61995224
	maximum total K-bytes		     51984	     61996
	maximum total M-bytes		        52	        62


                                     CITATION
                                     --------
                Please cite the following reference when publishing
                           results obtained with NWChem:

          E. Apra, E. J. Bylaska, W. A. de Jong, N. Govind, K. Kowalski,
       T. P. Straatsma, M. Valiev, H. J. J. van Dam, Y. Alexeev, J. Anchell,
       V. Anisimov, F. W. Aquino, R. Atta-Fynn, J. Autschbach, N. P. Bauman,
     J. C. Becca, D. E. Bernholdt, K. Bhaskaran-Nair, S. Bogatko, P. Borowski,
         J. Boschen, J. Brabec, A. Bruner, E. Cauet, Y. Chen, G. N. Chuev,
      C. J. Cramer, J. Daily, M. J. O. Deegan, T. H. Dunning Jr., M. Dupuis,
   K. G. Dyall, G. I. Fann, S. A. Fischer, A. Fonari, H. Fruchtl, L. Gagliardi,
      J. Garza, N. Gawande, S. Ghosh, K. Glaesemann, A. W. Gotz, J. Hammond,
       V. Helms, E. D. Hermes, K. Hirao, S. Hirata, M. Jacquelin, L. Jensen,
   B. G. Johnson, H. Jonsson, R. A. Kendall, M. Klemm, R. Kobayashi, V. Konkov,
      S. Krishnamoorthy, M. Krishnan, Z. Lin, R. D. Lins, R. J. Littlefield,
      A. J. Logsdail, K. Lopata, W. Ma, A. V. Marenich, J. Martin del Campo,
   D. Mejia-Rodriguez, J. E. Moore, J. M. Mullin, T. Nakajima, D. R. Nascimento,
    J. A. Nichols, P. J. Nichols, J. Nieplocha, A. Otero-de-la-Roza, B. Palmer,
    A. Panyala, T. Pirojsirikul, B. Peng, R. Peverati, J. Pittner, L. Pollack,
   R. M. Richard, P. Sadayappan, G. C. Schatz, W. A. Shelton, D. W. Silverstein,
   D. M. A. Smith, T. A. Soares, D. Song, M. Swart, H. L. Taylor, G. S. Thomas,
            V. Tipparaju, D. G. Truhlar, K. Tsemekhman, T. Van Voorhis,
      A. Vazquez-Mayagoitia, P. Verma, O. Villa, A. Vishnu, K. D. Vogiatzis,
        D. Wang, J. H. Weare, M. J. Williamson, T. L. Windus, K. Wolinski,
        A. T. Wong, Q. Wu, C. Yang, Q. Yu, M. Zacharias, Z. Zhang, Y. Zhao,
                                and R. J. Harrison
                        "NWChem: Past, present, and future
                         J. Chem. Phys. 152, 184102 (2020)
                               doi:10.1063/5.0004997

                                      AUTHORS
                                      -------
  E. Apra, E. J. Bylaska, N. Govind, K. Kowalski, M. Valiev, D. Mejia-Rodriguez,
       A. Kunitsa, N. P. Bauman, A. Panyala, W. A. de Jong, T. P. Straatsma,
        H. J. J. van Dam, D. Wang, T. L. Windus, J. Hammond, J. Autschbach,
    K. Bhaskaran-Nair, J. Brabec, K. Lopata, S. A. Fischer, S. Krishnamoorthy,
     M. Jacquelin, W. Ma, M. Klemm, O. Villa, Y. Chen, V. Anisimov, F. Aquino,
    S. Hirata, M. T. Hackler, Eric Hermes, L. Jensen, J. E. Moore, J. C. Becca,
      V. Konjkov, T. Risthaus, M. Malagoli, A. Marenich, A. Otero-de-la-Roza,
        J. Mullin, P. Nichols, R. Peverati, J. Pittner, Y. Zhao, P.-D. Fan,
        A. Fonari, M. J. Williamson, R. J. Harrison, J. R. Rehr, M. Dupuis,
     D. Silverstein, D. M. A. Smith, J. Nieplocha, V. Tipparaju, M. Krishnan,
     B. E. Van Kuiken, A. Vazquez-Mayagoitia, M. Swart, Q. Wu, T. Van Voorhis,
     A. A. Auer, M. Nooijen, L. D. Crosby, E. Brown, G. Cisneros, G. I. Fann,
   H. Fruchtl, J. Garza, K. Hirao, R. A. Kendall, J. A. Nichols, K. Tsemekhman,
    K. Wolinski, J. Anchell, D. E. Bernholdt, P. Borowski, T. Clark, D. Clerc,
   H. Dachsel, M. J. O. Deegan, K. Dyall, D. Elwood, E. Glendening, M. Gutowski,
   A. C. Hess, J. Jaffe, B. G. Johnson, J. Ju, R. Kobayashi, R. Kutteh, Z. Lin,
   R. Littlefield, X. Long, B. Meng, T. Nakajima, S. Niu, L. Pollack, M. Rosing,
   K. Glaesemann, G. Sandrone, M. Stave, H. Taylor, G. Thomas, J. H. van Lenthe,
                               A. T. Wong, Z. Zhang.

 Total times  cpu:       17.0s     wall:       21.0s
