 argument  1 = input.nw
  NWChem w/ OpenMP: maximum threads =    1



============================== echo of input deck ==============================
 echo
 start H2
 title "H2"

 memory total 24 gb

 geometry units bohr
 symmetry c1
        H  0.00000000  0.00000000  0.00000000
        H  0.00000000  5.55  0.00000000
 end

 basis
   * library cc-pVQZ
 end

 mcscf
   active  10
   actelec 2
   multiplicity 1
   maxiter 40
   vectors input H2.mos
   vectors output H2.mos
 end

 task mcscf

 scf
   vectors input H2.mos
   vectors output H2-5.55.mos
   noscf
 end

 tce
   2eorb
   2emet 13
   ccsd
   maxiter 300
 end

 set tce:print_integrals T
 set tce:qorb 10
 set tce:qela 1
 set tce:qelb 1

# set tce:qducc T
# set tce:nactv 1
# set tce:nonhf T
# set tce:ducc_model 6

 set tce:printtol 0.02

 task tce
================================================================================


                                         
                                         


             Northwest Computational Chemistry Package (NWChem) 7.0.1
             --------------------------------------------------------


                    Environmental Molecular Sciences Laboratory
                       Pacific Northwest National Laboratory
                                Richland, WA 99352

                              Copyright (c) 1994-2020
                       Pacific Northwest National Laboratory
                            Battelle Memorial Institute

             NWChem is an open-source computational chemistry package
                        distributed under the terms of the
                      Educational Community License (ECL) 2.0
             A copy of the license is included with this distribution
                              in the LICENSE.TXT file

                                  ACKNOWLEDGMENT
                                  --------------

            This software and its documentation were developed at the
            EMSL at Pacific Northwest National Laboratory, a multiprogram
            national laboratory, operated for the U.S. Department of Energy
            by Battelle under Contract Number DE-AC05-76RL01830. Support
            for this work was provided by the Department of Energy Office
            of Biological and Environmental Research, Office of Basic
            Energy Sciences, and the Office of Advanced Scientific Computing.


           Job information
           ---------------

    hostname        = WE46210
    program         = /home/baum612/code/nwchem/bin/LINUX64/nwchem
    date            = Thu Nov  9 16:20:54 2023

    compiled        = Mon_Nov_06_10:06:57_2023
    source          = /home/baum612/code/nwchem
    nwchem branch   = 7.0.0
    nwchem revision = nwchem_on_git-4191-g39d87d64de
    ga revision     = 5.8.1
    use scalapack   = F
    input           = input.nw
    prefix          = H2.
    data base       = ./H2.db
    status          = startup
    nproc           =        1
    time left       =     -1s



           Memory information
           ------------------

    heap     =  805306362 doubles =   6144.0 Mbytes
    stack    =  805306367 doubles =   6144.0 Mbytes
    global   = 1610612736 doubles =  12288.0 Mbytes (distinct from heap & stack)
    total    = 3221225465 doubles =  24576.0 Mbytes
    verify   = yes
    hardfail = no 


           Directory information
           ---------------------

  0 permanent = .
  0 scratch   = .




                                NWChem Input Module
                                -------------------


                                        H2
                                        --
 Turning off AUTOSYM since
 SYMMETRY directive was detected!


          ------
          auto-z
          ------
     1 autoz failed with cvr_scaling = 1.2 changing to 1.3
     2 autoz failed with cvr_scaling = 1.3 changing to 1.4
     3 autoz failed with cvr_scaling = 1.4 changing to 1.5
     4 autoz failed with cvr_scaling = 1.5 changing to 1.6
     5 autoz failed with cvr_scaling = 1.6 changing to 1.7

 AUTOZ failed to generate good internal coordinates.
 Cartesian coordinates will be used in optimizations.



                             Geometry "geometry" -> ""
                             -------------------------

 Output coordinates in a.u. (scale by  1.000000000 to convert to a.u.)

  No.       Tag          Charge          X              Y              Z
 ---- ---------------- ---------- -------------- -------------- --------------
    1 H                    1.0000     0.00000000    -2.77500000     0.00000000
    2 H                    1.0000     0.00000000     2.77500000     0.00000000

      Atomic Mass 
      ----------- 

      H                  1.007825


 Effective nuclear repulsion energy (a.u.)       0.1801801802

            Nuclear Dipole moment (a.u.) 
            ----------------------------
        X                 Y               Z
 ---------------- ---------------- ----------------
     0.0000000000     0.0000000000     0.0000000000


            XYZ format geometry
            -------------------
     2
 geometry
 H                     0.00000000    -1.46846687     0.00000000
 H                     0.00000000     1.46846687     0.00000000



 Summary of "ao basis" -> "" (cartesian)
 ------------------------------------------------------------------------------
       Tag                 Description            Shells   Functions and Types
 ---------------- ------------------------------  ------  ---------------------
 *                          cc-pVQZ                   on all atoms 


                      Basis "ao basis" -> "ao basis" (cartesian)
                      -----
  H (Hydrogen)
  ------------
            Exponent  Coefficients 
       -------------- ---------------------------------------------------------
  1 S  8.26400000E+01  0.002006
  1 S  1.24100000E+01  0.015343
  1 S  2.82400000E+00  0.075579

  2 S  7.97700000E-01  1.000000

  3 S  2.58100000E-01  1.000000

  4 S  8.98900000E-02  1.000000

  5 P  2.29200000E+00  1.000000

  6 P  8.38000000E-01  1.000000

  7 P  2.92000000E-01  1.000000

  8 D  2.06200000E+00  1.000000

  9 D  6.62000000E-01  1.000000

 10 F  1.39700000E+00  1.000000



 Summary of "ao basis" -> "ao basis" (cartesian)
 ------------------------------------------------------------------------------
       Tag                 Description            Shells   Functions and Types
 ---------------- ------------------------------  ------  ---------------------
 H                          cc-pVQZ                 10       35   4s3p2d1f



                            NWChem Direct MCSCF Module
                            --------------------------


                                        H2


     -----------------------------------
       Basis functions:             70
       Inactive shells:              0
       Active shells:               10
       Active electrons:             2
       Symmetry:                    a       
       Multiplicity:                 1
       Orbital rotations:          600
     -----------------------------------

     -----------------------------------
       E2 extrapolation:             F
       Conjugacy:                    T
       Micro CI relax:               T
       Canonical orbitals:           T
       Maximum iterations:          40
       Converge threshold:    1.00E-04
       Conjugacy resets:            20
       Initial levelshift:        0.10
     -----------------------------------

 Loading old vectors from job with title :

H2


   input molecular orbitals = ./H2.mos
  output molecular orbtials = ./H2.mos

       No. of determinants:           100


  Starting Orbital Energies
    -0.287489    -0.212224    -0.000150    -0.000051    -0.000051    -0.000002
    -0.000001    -0.000001    -0.000001    -0.000001     0.442527     0.681306
     0.802924     1.173258     1.173258     1.732904     1.807929     1.807929
     1.860936     2.031658     2.031658     2.076756     2.076756     2.089355
     2.089355     2.090078     2.090078     2.246535     2.863540     2.976079
     4.394727     4.394727     4.428066     4.428066     4.471617     4.516290
     5.940578     6.055638     6.055638     6.062130     6.068104     6.068104
     6.069361     6.069361     6.069361     6.069361     6.069451     6.069451
     6.069458     6.069458     8.115715     8.137336     8.137336     8.137804
     8.137804     8.140591     8.140591     8.140981     8.140981     8.175745
     9.633245     9.676988     9.710012     9.710012     9.721574     9.721574
     9.738025     9.766437    22.288531    22.647575

  Orbital Symmetry Irreps
a    a    a    a    a    a    a    a    a    a    a    a    a    a    a   
a    a    a    a    a    a    a    a    a    a    a    a    a    a    a   
a    a    a    a    a    a    a    a    a    a    a    a    a    a    a   
a    a    a    a    a    a    a    a    a    a    a    a    a    a    a   
a    a    a    a    a    a    a    a    a    a   

 Integral file          = ./H2.aoints.0
 Record size in doubles =  65536        No. of integs per rec  =  43688
 Max. records in memory =     99        Max. records in file   = 280222
 No. of bits per label  =      8        No. of bits per value  =     64


 #quartets = 1.888D+04 #integrals = 4.906D+05 #direct =  0.0% #cached =100.0%




          %%%%% MacroIteration   1 %%%%%


          Number of sigma calls:       15
                       o<<<<< (aa):             0.00
                       o<<<<< (bb):             0.00
                       o<<<<< (ab):             0.01
                       o<<<<< (total)           0.02
                       o<<<<< (aa) ff           0.00
                       o<<<<< (aa) gop          0.00
                       o<<<<< (aa) dot          0.00
                       o<<<<< (ab) str          0.00
                       o<<<<< (ab) gath         0.00
                       o<<<<< (ab) dotab        0.00
                       o<<<<< (ab) scat         0.00
                       o<<<<< (ab) sync         0.00
                       o<<<<< Density           0.00
                       o<<<<< Density one       0.00
                       o<<<<< Density two       0.00
                       o<<<<< Density ab        0.00
                       o<<<<< Spin adapt        0.00
                       o<<<<< Symm adapt        0.00

                       o<<<<< (ab) max sync:      0.00

           >>>| Valence CI:             -1.181537534674
           >>>| MCSCF energy:           -1.001357354494
           >>>| Gradient norm:          0.707532936D-03
     --- Warning:  480 Hessian diagonals < 0.05 ---

                              ----- Line search ------

        step       energy         lsg     num-lsg   num-lsh   lsrat    time
      ------- ---------------- --------- --------- --------- ------- --------
       0.0000      -1.00135735 -8.99D-08  0.00D+00  0.00D+00 0.0D+00      0.5

          Number of sigma calls:       10
                       o<<<<< (aa):             0.00
                       o<<<<< (bb):             0.00
                       o<<<<< (ab):             0.01
                       o<<<<< (total)           0.01
                       o<<<<< (aa) ff           0.00
                       o<<<<< (aa) gop          0.00
                       o<<<<< (aa) dot          0.00
                       o<<<<< (ab) str          0.00
                       o<<<<< (ab) gath         0.00
                       o<<<<< (ab) dotab        0.00
                       o<<<<< (ab) scat         0.00
                       o<<<<< (ab) sync         0.00
                       o<<<<< Density           0.00
                       o<<<<< Density one       0.00
                       o<<<<< Density two       0.00
                       o<<<<< Density ab        0.00
                       o<<<<< Spin adapt        0.00
                       o<<<<< Symm adapt        0.00

                       o<<<<< (ab) max sync:      0.00
       1.0000      -1.00135741 -1.98D-08 -1.98D-08  7.00D-08 2.2D-01      0.7

          Number of sigma calls:        9
                       o<<<<< (aa):             0.00
                       o<<<<< (bb):             0.00
                       o<<<<< (ab):             0.01
                       o<<<<< (total)           0.01
                       o<<<<< (aa) ff           0.00
                       o<<<<< (aa) gop          0.00
                       o<<<<< (aa) dot          0.00
                       o<<<<< (ab) str          0.00
                       o<<<<< (ab) gath         0.00
                       o<<<<< (ab) dotab        0.00
                       o<<<<< (ab) scat         0.00
                       o<<<<< (ab) sync         0.00
                       o<<<<< Density           0.00
                       o<<<<< Density one       0.00
                       o<<<<< Density two       0.00
                       o<<<<< Density ab        0.00
                       o<<<<< Spin adapt        0.00
                       o<<<<< Symm adapt        0.00

                       o<<<<< (ab) max sync:      0.00
       1.2833      -1.00135741  4.13D-12  4.07D-12  7.00D-08 4.6D-05      0.9
     --- Orbitals canonicalized ---



          %%%%% MacroIteration   2 %%%%%


          Number of sigma calls:       15
                       o<<<<< (aa):             0.00
                       o<<<<< (bb):             0.00
                       o<<<<< (ab):             0.01
                       o<<<<< (total)           0.02
                       o<<<<< (aa) ff           0.00
                       o<<<<< (aa) gop          0.00
                       o<<<<< (aa) dot          0.00
                       o<<<<< (ab) str          0.00
                       o<<<<< (ab) gath         0.00
                       o<<<<< (ab) dotab        0.00
                       o<<<<< (ab) scat         0.00
                       o<<<<< (ab) sync         0.00
                       o<<<<< Density           0.00
                       o<<<<< Density one       0.00
                       o<<<<< Density two       0.00
                       o<<<<< Density ab        0.00
                       o<<<<< Spin adapt        0.00
                       o<<<<< Symm adapt        0.00

                       o<<<<< (ab) max sync:      0.00

           >>>| Valence CI:             -1.181537592338
           >>>| MCSCF energy:           -1.001357412158
           >>>| Gradient norm:          0.116041506D-03
     --- Warning:  480 Hessian diagonals < 0.05 ---
     --- Conjugacy reset ---

                              ----- Line search ------

        step       energy         lsg     num-lsg   num-lsh   lsrat    time
      ------- ---------------- --------- --------- --------- ------- --------
       0.0000      -1.00135741 -2.57D-08  0.00D+00  0.00D+00 0.0D+00      1.2

          Number of sigma calls:        9
                       o<<<<< (aa):             0.00
                       o<<<<< (bb):             0.00
                       o<<<<< (ab):             0.00
                       o<<<<< (total)           0.00
                       o<<<<< (aa) ff           0.00
                       o<<<<< (aa) gop          0.00
                       o<<<<< (aa) dot          0.00
                       o<<<<< (ab) str          0.00
                       o<<<<< (ab) gath         0.00
                       o<<<<< (ab) dotab        0.00
                       o<<<<< (ab) scat         0.00
                       o<<<<< (ab) sync         0.00
                       o<<<<< Density           0.00
                       o<<<<< Density one       0.00
                       o<<<<< Density two       0.00
                       o<<<<< Density ab        0.00
                       o<<<<< Spin adapt        0.00
                       o<<<<< Symm adapt        0.00

                       o<<<<< (ab) max sync:      0.00
       1.0000      -1.00135743 -1.03D-08 -1.03D-08  1.55D-08 4.0D-01      1.4

          Number of sigma calls:        8
                       o<<<<< (aa):             0.00
                       o<<<<< (bb):             0.00
                       o<<<<< (ab):             0.01
                       o<<<<< (total)           0.01
                       o<<<<< (aa) ff           0.00
                       o<<<<< (aa) gop          0.00
                       o<<<<< (aa) dot          0.00
                       o<<<<< (ab) str          0.00
                       o<<<<< (ab) gath         0.00
                       o<<<<< (ab) dotab        0.00
                       o<<<<< (ab) scat         0.00
                       o<<<<< (ab) sync         0.00
                       o<<<<< Density           0.00
                       o<<<<< Density one       0.00
                       o<<<<< Density two       0.00
                       o<<<<< Density ab        0.00
                       o<<<<< Spin adapt        0.00
                       o<<<<< Symm adapt        0.00

                       o<<<<< (ab) max sync:      0.00
       1.6638      -1.00135743 -5.26D-12 -4.89D-12  1.54D-08 2.0D-04      1.5



          %%%%% MacroIteration   3 %%%%%


          Number of sigma calls:        1
                       o<<<<< (aa):             0.00
                       o<<<<< (bb):             0.00
                       o<<<<< (ab):             0.00
                       o<<<<< (total)           0.00
                       o<<<<< (aa) ff           0.00
                       o<<<<< (aa) gop          0.00
                       o<<<<< (aa) dot          0.00
                       o<<<<< (ab) str          0.00
                       o<<<<< (ab) gath         0.00
                       o<<<<< (ab) dotab        0.00
                       o<<<<< (ab) scat         0.00
                       o<<<<< (ab) sync         0.00
                       o<<<<< Density           0.00
                       o<<<<< Density one       0.00
                       o<<<<< Density two       0.00
                       o<<<<< Density ab        0.00
                       o<<<<< Spin adapt        0.00
                       o<<<<< Symm adapt        0.00

                       o<<<<< (ab) max sync:      0.00

           >>>| Valence CI:             -1.181537613724
           >>>| MCSCF energy:           -1.001357433544
           >>>| Gradient norm:          0.758703674D-04




     ==============================
            MCSCF Converged
     ==============================



          Canonical Eigenvalues

              1      
    1   -0.2861
    2   -0.2137
    3   -0.0001
    4   -0.0000
    5   -0.0000
    6   -0.0000
    7   -0.0000
    8   -0.0000
    9   -0.0000
   10   -0.0000
   11    0.4416
   12    0.6778
   13    0.8043
   14    1.1703
   15    1.1703
   16    1.7360
   17    1.8089
   18    1.8089
   19    1.8597
   20    2.0329
   21    2.0329
   22    2.0747
   23    2.0747
   24    2.0895
   25    2.0895
   26    2.0901
   27    2.0901
   28    2.2358
   29    2.8629
   30    2.9775
   31    4.3940
   32    4.3940
   33    4.4282
   34    4.4282
   35    4.4619
   36    4.5217
   37    5.9409
   38    6.0556
   39    6.0556
   40    6.0617
   41    6.0682
   42    6.0682
   43    6.0694
   44    6.0694
   45    6.0694
   46    6.0694
   47    6.0695
   48    6.0695
   49    6.0695
   50    6.0695
   51    8.1172
   52    8.1373
   53    8.1373
   54    8.1379
   55    8.1379
   56    8.1407
   57    8.1407
   58    8.1411
   59    8.1411
   60    8.1708
   61    9.6325
   62    9.6774
   63    9.7101
   64    9.7101
   65    9.7214
   66    9.7214
   67    9.7330
   68    9.7686
   69   22.2698
   70   22.6578


          Converged CI vector

   Index           Coefficient          Config. Occupation
         1         -0.76528072          1  1
        12          0.64352396          2  2

          Number of sigma calls:        1
                       o<<<<< (aa):             0.00
                       o<<<<< (bb):             0.00
                       o<<<<< (ab):             0.00
                       o<<<<< (total)           0.00
                       o<<<<< (aa) ff           0.00
                       o<<<<< (aa) gop          0.00
                       o<<<<< (aa) dot          0.00
                       o<<<<< (ab) str          0.00
                       o<<<<< (ab) gath         0.00
                       o<<<<< (ab) dotab        0.00
                       o<<<<< (ab) scat         0.00
                       o<<<<< (ab) sync         0.00
                       o<<<<< Density           0.00
                       o<<<<< Density one       0.00
                       o<<<<< Density two       0.00
                       o<<<<< Density ab        0.00
                       o<<<<< Spin adapt        0.00
                       o<<<<< Symm adapt        0.00

                       o<<<<< (ab) max sync:      0.00



          Natural orbital occupation numbers

              1      
    1    1.1713
    2    0.8282
    3    0.0003
    4    0.0001
    5    0.0001
    6    0.0000
    7    0.0000
    8    0.0000
    9    0.0000
   10    0.0000


          Number of sigma calls:       15
                       o<<<<< (aa):             0.00
                       o<<<<< (bb):             0.00
                       o<<<<< (ab):             0.01
                       o<<<<< (total)           0.02
                       o<<<<< (aa) ff           0.00
                       o<<<<< (aa) gop          0.00
                       o<<<<< (aa) dot          0.00
                       o<<<<< (ab) str          0.00
                       o<<<<< (ab) gath         0.00
                       o<<<<< (ab) dotab        0.00
                       o<<<<< (ab) scat         0.00
                       o<<<<< (ab) sync         0.00
                       o<<<<< Density           0.00
                       o<<<<< Density one       0.00
                       o<<<<< Density two       0.00
                       o<<<<< Density ab        0.00
                       o<<<<< Spin adapt        0.00
                       o<<<<< Symm adapt        0.00

                       o<<<<< (ab) max sync:      0.00


       Final MCSCF results 
       ------------------- 

       Total MCSCF energy =     -1.001357433544
            Gradient norm =      7.6D-05

    CPU time for solution =      1.6s
   Wall time for solution =      2.1s



                        Analysis of MCSCF natural orbitals
                        ----------------------------------

 Vector    1  Occ=1.171313D+00  E=-2.860623D-01  Symmetry=a
              MO Center=  5.4D-15,  4.5D-12, -3.5D-15, r^2= 2.9D+00
   Bfn.  Coefficient  Atom+Function         Bfn.  Coefficient  Atom+Function  
  ----- ------------  ---------------      ----- ------------  ---------------
     3      0.333504  1 H  s                 38      0.333504  2 H  s          
     4      0.209605  1 H  s                 39      0.209605  2 H  s          
     2      0.173287  1 H  s                 37      0.173287  2 H  s          

 Vector    2  Occ=8.282462D-01  E=-2.136686D-01  Symmetry=a
              MO Center=  2.4D-14, -4.9D-12, -1.7D-14, r^2= 3.1D+00
   Bfn.  Coefficient  Atom+Function         Bfn.  Coefficient  Atom+Function  
  ----- ------------  ---------------      ----- ------------  ---------------
     3      0.368027  1 H  s                 38     -0.368027  2 H  s          
     4      0.209564  1 H  s                 39     -0.209564  2 H  s          
     2      0.187166  1 H  s                 37     -0.187166  2 H  s          

 Vector    3  Occ=2.705090D-04  E=-1.410478D-04  Symmetry=a
              MO Center=  1.5D-14,  2.4D-09, -1.2D-14, r^2= 3.3D+00
   Bfn.  Coefficient  Atom+Function         Bfn.  Coefficient  Atom+Function  
  ----- ------------  ---------------      ----- ------------  ---------------
     9      1.276917  1 H  py                44     -1.276917  2 H  py         
    12     -0.885292  1 H  py                47      0.885292  2 H  py         
     3     -0.637764  1 H  s                 38     -0.637764  2 H  s          
    32     -0.541888  1 H  fyyy              67      0.541888  2 H  fyyy       
    27     -0.519064  1 H  fxxy              34     -0.519064  1 H  fyzz       

 Vector    4  Occ=8.242755D-05  E=-4.689350D-05  Symmetry=a
              MO Center=  1.2D-13, -5.1D-12,  5.4D-15, r^2= 3.1D+00
   Bfn.  Coefficient  Atom+Function         Bfn.  Coefficient  Atom+Function  
  ----- ------------  ---------------      ----- ------------  ---------------
     8      1.477304  1 H  px                43      1.477304  2 H  px         
    11     -0.931845  1 H  px                46     -0.931845  2 H  px         
    29     -0.657707  1 H  fxyy              64     -0.657707  2 H  fxyy       
    26     -0.621731  1 H  fxxx              31     -0.621731  1 H  fxzz       
    61     -0.621731  2 H  fxxx              66     -0.621731  2 H  fxzz       

 Vector    5  Occ=8.242755D-05  E=-4.689350D-05  Symmetry=a
              MO Center=  5.3D-15, -6.1D-12, -1.2D-13, r^2= 3.1D+00
   Bfn.  Coefficient  Atom+Function         Bfn.  Coefficient  Atom+Function  
  ----- ------------  ---------------      ----- ------------  ---------------
    10      1.477304  1 H  pz                45      1.477304  2 H  pz         
    13     -0.931845  1 H  pz                48     -0.931845  2 H  pz         
    33     -0.657707  1 H  fyyz              68     -0.657707  2 H  fyyz       
    28     -0.621731  1 H  fxxz              35     -0.621731  1 H  fzzz       
    63     -0.621731  2 H  fxxz              70     -0.621731  2 H  fzzz       

 Vector    6  Occ=3.082786D-06  E=-1.994026D-06  Symmetry=a
              MO Center= -1.1D-13, -1.2D-09,  1.2D-13, r^2= 3.0D+00
   Bfn.  Coefficient  Atom+Function         Bfn.  Coefficient  Atom+Function  
  ----- ------------  ---------------      ----- ------------  ---------------
     9      1.027564  1 H  py                44     -1.027564  2 H  py         
     2      0.618390  1 H  s                 37      0.618390  2 H  s          
     4     -0.501168  1 H  s                 39     -0.501168  2 H  s          
    27     -0.418544  1 H  fxxy              34     -0.418544  1 H  fyzz       
    62      0.418544  2 H  fxxy              69      0.418544  2 H  fyzz       

 Vector    7  Occ=9.608084D-07  E=-9.181635D-07  Symmetry=a
              MO Center= -1.5D-12,  4.1D-09,  8.7D-13, r^2= 2.4D+00
   Bfn.  Coefficient  Atom+Function         Bfn.  Coefficient  Atom+Function  
  ----- ------------  ---------------      ----- ------------  ---------------
     9      1.470963  1 H  py                44      1.470963  2 H  py         
     3     -0.964162  1 H  s                 38      0.964162  2 H  s          
     2      0.863091  1 H  s                 37     -0.863091  2 H  s          
    27     -0.536614  1 H  fxxy              34     -0.536614  1 H  fyzz       
    62     -0.536614  2 H  fxxy              69     -0.536614  2 H  fyzz       

 Vector    8  Occ=5.676037D-07  E=-5.771947D-07  Symmetry=a
              MO Center=  1.5D-12, -3.3D-12, -7.0D-14, r^2= 2.1D+00
   Bfn.  Coefficient  Atom+Function         Bfn.  Coefficient  Atom+Function  
  ----- ------------  ---------------      ----- ------------  ---------------
     8      1.401362  1 H  px                43     -1.401362  2 H  px         
    26     -0.456609  1 H  fxxx              31     -0.456609  1 H  fxzz       
    61      0.456609  2 H  fxxx              66      0.456609  2 H  fxzz       
    21      0.382398  1 H  dxy               56      0.382398  2 H  dxy        
    29     -0.335850  1 H  fxyy              64      0.335850  2 H  fxyy       

 Vector    9  Occ=5.676037D-07  E=-5.097597D-07  Symmetry=a
              MO Center= -3.8D-14, -2.9D-12, -8.4D-13, r^2= 2.1D+00
   Bfn.  Coefficient  Atom+Function         Bfn.  Coefficient  Atom+Function  
  ----- ------------  ---------------      ----- ------------  ---------------
    10      1.401362  1 H  pz                45     -1.401362  2 H  pz         
    28     -0.456609  1 H  fxxz              35     -0.456609  1 H  fzzz       
    63      0.456609  2 H  fxxz              70      0.456609  2 H  fzzz       
    24      0.382398  1 H  dyz               59      0.382398  2 H  dyz        
    33     -0.335850  1 H  fyyz              68      0.335850  2 H  fyyz       

 Vector   10  Occ=4.542462D-07  E=-5.097597D-07  Symmetry=a
              MO Center=  1.5D-16,  2.5D-09, -5.1D-15, r^2= 2.9D+00
   Bfn.  Coefficient  Atom+Function         Bfn.  Coefficient  Atom+Function  
  ----- ------------  ---------------      ----- ------------  ---------------
     9      3.150188  1 H  py                44     -3.150188  2 H  py         
    27     -1.385861  1 H  fxxy              34     -1.385861  1 H  fyzz       
    62      1.385861  2 H  fxxy              69      1.385861  2 H  fyzz       
    32     -1.077064  1 H  fyyy              67      1.077064  2 H  fyyy       
     6     -0.778309  1 H  py                41      0.778309  2 H  py         

 Vector   11  Occ=0.000000D+00  E= 4.415928D-01  Symmetry=a
              MO Center=  2.2D-12,  6.5D-09, -1.3D-12, r^2= 8.6D+00
   Bfn.  Coefficient  Atom+Function         Bfn.  Coefficient  Atom+Function  
  ----- ------------  ---------------      ----- ------------  ---------------
     3      3.012171  1 H  s                 38     -3.012171  2 H  s          
     4     -1.921833  1 H  s                 39      1.921833  2 H  s          
     2     -0.751266  1 H  s                 37      0.751266  2 H  s          
     9     -0.735338  1 H  py                44     -0.735338  2 H  py         
    23     -0.451361  1 H  dyy               58      0.451361  2 H  dyy        

 Vector   12  Occ=0.000000D+00  E= 6.777808D-01  Symmetry=a
              MO Center= -1.9D-12, -3.7D-09,  1.2D-12, r^2= 4.4D+00
   Bfn.  Coefficient  Atom+Function         Bfn.  Coefficient  Atom+Function  
  ----- ------------  ---------------      ----- ------------  ---------------
     9      1.687788  1 H  py                44      1.687788  2 H  py         
    12     -1.118070  1 H  py                47     -1.118070  2 H  py         
     3      1.058697  1 H  s                 38     -1.058697  2 H  s          
     4     -0.800088  1 H  s                 39      0.800088  2 H  s          
    27     -0.678894  1 H  fxxy              32     -0.677150  1 H  fyyy       

 Vector   13  Occ=0.000000D+00  E= 8.043224D-01  Symmetry=a
              MO Center=  1.1D-15, -1.4D-08,  6.0D-16, r^2= 6.6D+00
   Bfn.  Coefficient  Atom+Function         Bfn.  Coefficient  Atom+Function  
  ----- ------------  ---------------      ----- ------------  ---------------
     3      3.969556  1 H  s                 38      3.969556  2 H  s          
     4     -1.579469  1 H  s                 39     -1.579469  2 H  s          
     2     -1.246318  1 H  s                 37     -1.246318  2 H  s          
    23     -0.631743  1 H  dyy               58     -0.631743  2 H  dyy        
    20     -0.628069  1 H  dxx               25     -0.628069  1 H  dzz        

 Vector   14  Occ=0.000000D+00  E= 1.170340D+00  Symmetry=a
              MO Center=  9.9D-13, -2.3D-11, -8.8D-14, r^2= 4.5D+00
   Bfn.  Coefficient  Atom+Function         Bfn.  Coefficient  Atom+Function  
  ----- ------------  ---------------      ----- ------------  ---------------
     8      4.944067  1 H  px                43     -4.944067  2 H  px         
    26     -1.920363  1 H  fxxx              31     -1.920363  1 H  fxzz       
    61      1.920363  2 H  fxxx              66      1.920363  2 H  fxzz       
    29     -1.901452  1 H  fxyy              64      1.901452  2 H  fxyy       
    11     -1.492293  1 H  px                46      1.492293  2 H  px         

 Vector   15  Occ=0.000000D+00  E= 1.170340D+00  Symmetry=a
              MO Center= -4.1D-14, -2.2D-11, -4.6D-13, r^2= 4.5D+00
   Bfn.  Coefficient  Atom+Function         Bfn.  Coefficient  Atom+Function  
  ----- ------------  ---------------      ----- ------------  ---------------
    10      4.944067  1 H  pz                45     -4.944067  2 H  pz         
    28     -1.920363  1 H  fxxz              35     -1.920363  1 H  fzzz       
    63      1.920363  2 H  fxxz              70      1.920363  2 H  fzzz       
    33     -1.901452  1 H  fyyz              68      1.901452  2 H  fyyz       
    13     -1.492293  1 H  pz                48      1.492293  2 H  pz         

 Vector   16  Occ=0.000000D+00  E= 1.735979D+00  Symmetry=a
              MO Center= -1.2D-12,  4.5D-09,  7.1D-13, r^2= 4.2D+00
   Bfn.  Coefficient  Atom+Function         Bfn.  Coefficient  Atom+Function  
  ----- ------------  ---------------      ----- ------------  ---------------
     9      4.754722  1 H  py                44      4.754722  2 H  py         
     3      2.125081  1 H  s                 38     -2.125081  2 H  s          
    27     -1.843856  1 H  fxxy              34     -1.843856  1 H  fyzz       
    62     -1.843856  2 H  fxxy              69     -1.843856  2 H  fyzz       
    32     -1.832574  1 H  fyyy              67     -1.832574  2 H  fyyy       

 Vector   17  Occ=0.000000D+00  E= 1.808934D+00  Symmetry=a
              MO Center= -7.9D-14,  5.0D-11,  2.1D-15, r^2= 3.4D+00
   Bfn.  Coefficient  Atom+Function         Bfn.  Coefficient  Atom+Function  
  ----- ------------  ---------------      ----- ------------  ---------------
     8      6.218285  1 H  px                43      6.218285  2 H  px         
    26     -2.429889  1 H  fxxx              29     -2.430832  1 H  fxyy       
    31     -2.429889  1 H  fxzz              61     -2.429889  2 H  fxxx       
    64     -2.430832  2 H  fxyy              66     -2.429889  2 H  fxzz       
     5     -1.644926  1 H  px                40     -1.644926  2 H  px         

 Vector   18  Occ=0.000000D+00  E= 1.808934D+00  Symmetry=a
              MO Center= -8.6D-16,  5.0D-11,  5.1D-14, r^2= 3.4D+00
   Bfn.  Coefficient  Atom+Function         Bfn.  Coefficient  Atom+Function  
  ----- ------------  ---------------      ----- ------------  ---------------
    10      6.218285  1 H  pz                45      6.218285  2 H  pz         
    28     -2.429889  1 H  fxxz              33     -2.430832  1 H  fyyz       
    35     -2.429889  1 H  fzzz              63     -2.429889  2 H  fxxz       
    68     -2.430832  2 H  fyyz              70     -2.429889  2 H  fzzz       
     7     -1.644926  1 H  pz                42     -1.644926  2 H  pz         

 Vector   19  Occ=0.000000D+00  E= 1.859698D+00  Symmetry=a
              MO Center=  1.9D-14, -1.5D-09, -1.6D-14, r^2= 3.7D+00
   Bfn.  Coefficient  Atom+Function         Bfn.  Coefficient  Atom+Function  
  ----- ------------  ---------------      ----- ------------  ---------------
     9      4.395762  1 H  py                44     -4.395762  2 H  py         
    32     -1.726346  1 H  fyyy              67      1.726346  2 H  fyyy       
    27     -1.713230  1 H  fxxy              34     -1.713230  1 H  fyzz       
    62      1.713230  2 H  fxxy              69      1.713230  2 H  fyzz       
     6     -1.163621  1 H  py                41      1.163621  2 H  py         

 Vector   20  Occ=0.000000D+00  E= 2.032912D+00  Symmetry=a
              MO Center= -5.6D-15, -3.4D-10, -6.4D-16, r^2= 3.4D+00
   Bfn.  Coefficient  Atom+Function         Bfn.  Coefficient  Atom+Function  
  ----- ------------  ---------------      ----- ------------  ---------------
    24      1.192276  1 H  dyz               59     -1.192276  2 H  dyz        
    21     -0.508656  1 H  dxy               56      0.508656  2 H  dxy        
    10     -0.176377  1 H  pz                45     -0.176377  2 H  pz         
    18     -0.165045  1 H  dyz               53      0.165045  2 H  dyz        


 Wrote Lagrangian and 1- and 2-particle density matrices to ./H2.mcpdm


     Multipole analysis of the density
     ---------------------------------

     L   x y z        total        nuclear
     -   - - -        -----        -------
     0   0 0 0     -0.000000      2.000000

     1   1 0 0     -0.000000      0.000000
     1   0 1 0     -0.000000      0.000000
     1   0 0 1      0.000000      0.000000

     2   2 0 0     -2.016757      0.000000
     2   1 1 0      0.000000      0.000000
     2   1 0 1     -0.000000      0.000000
     2   0 2 0     -1.881007     15.401250
     2   0 1 1     -0.000000      0.000000
     2   0 0 2     -2.016757      0.000000


  Mulliken analysis of the total density
  --------------------------------------

    Atom       Charge   Shell Charges
 -----------   ------   -------------------------------------------------------
    1 H    1     1.00   0.05  0.22  0.48  0.25  0.00 -0.00  0.00  0.00  0.00  0.00
    2 H    1     1.00   0.05  0.22  0.48  0.25  0.00 -0.00  0.00  0.00  0.00  0.00

    Mulliken analysis of the active space density
    ---------------------------------------------

    Atom       Charge   Shell Charges
 -----------   ------   -------------------------------------------------------
    1 H    1     1.00   0.05  0.22  0.48  0.25  0.00 -0.00  0.00  0.00  0.00  0.00
    2 H    1     1.00   0.05  0.22  0.48  0.25  0.00 -0.00  0.00  0.00  0.00  0.00

 Parallel integral file used      12 records with       0 large values


 Task  times  cpu:        1.6s     wall:        2.1s


                                NWChem Input Module
                                -------------------


                                 NWChem SCF Module
                                 -----------------


                                        H2



  ao basis        = "ao basis"
  functions       =    70
  atoms           =     2
  closed shells   =     1
  open shells     =     0
  charge          =   0.00
  wavefunction    = RHF 
  input vectors   = ./H2.mos
  output vectors  = ./H2-5.55.mos
  use symmetry    = F
  symmetry adapt  = F


 Summary of "ao basis" -> "ao basis" (cartesian)
 ------------------------------------------------------------------------------
       Tag                 Description            Shells   Functions and Types
 ---------------- ------------------------------  ------  ---------------------
 H                          cc-pVQZ                 10       35   4s3p2d1f



 Forming initial guess at       2.1s


 Loading old vectors from job with title :

H2


 Starting SCF solution at       2.1s



 ----------------------------------------------
         Quadratically convergent ROHF

 Convergence threshold     :          1.000E-04
 Maximum no. of iterations :           30
 Final Fock-matrix accuracy:          1.000E-07
 ----------------------------------------------


 Integral file          = ./H2.aoints.0
 Record size in doubles =  65536        No. of integs per rec  =  43688
 Max. records in memory =     99        Max. records in file   = 280262
 No. of bits per label  =      8        No. of bits per value  =     64


 #quartets = 1.722D+04 #integrals = 3.971D+05 #direct =  0.0% #cached =100.0%



       Final RHF  results 
       ------------------ 

         Total SCF energy =     -0.812221055506
      One-electron energy =     -1.386183084563
      Two-electron energy =      0.393781848878
 Nuclear repulsion energy =      0.180180180180

        Time for solution =      0.0s


             Final eigenvalues
             -----------------

              1      
    1   -0.2861
    2   -0.2137
    3   -0.0001
    4   -0.0000
    5   -0.0000
    6   -0.0000
    7   -0.0000
    8   -0.0000
    9   -0.0000
   10   -0.0000
   11    0.4416

                       ROHF Final Molecular Orbital Analysis
                       -------------------------------------

 Vector    1  Occ=2.000000D+00  E=-2.860623D-01
              MO Center=  5.4D-15,  4.5D-12, -3.5D-15, r^2= 2.9D+00
   Bfn.  Coefficient  Atom+Function         Bfn.  Coefficient  Atom+Function  
  ----- ------------  ---------------      ----- ------------  ---------------
     3      0.333504  1 H  s                 38      0.333504  2 H  s          
     4      0.209605  1 H  s                 39      0.209605  2 H  s          
     2      0.173287  1 H  s                 37      0.173287  2 H  s          

 Vector    2  Occ=0.000000D+00  E=-2.136686D-01
              MO Center=  2.4D-14, -4.9D-12, -1.7D-14, r^2= 3.1D+00
   Bfn.  Coefficient  Atom+Function         Bfn.  Coefficient  Atom+Function  
  ----- ------------  ---------------      ----- ------------  ---------------
     3      0.368027  1 H  s                 38     -0.368027  2 H  s          
     4      0.209564  1 H  s                 39     -0.209564  2 H  s          
     2      0.187166  1 H  s                 37     -0.187166  2 H  s          

 Vector    3  Occ=0.000000D+00  E=-1.410478D-04
              MO Center=  1.5D-14,  2.4D-09, -1.2D-14, r^2= 3.3D+00
   Bfn.  Coefficient  Atom+Function         Bfn.  Coefficient  Atom+Function  
  ----- ------------  ---------------      ----- ------------  ---------------
     9      1.276917  1 H  py                44     -1.276917  2 H  py         
    12     -0.885292  1 H  py                47      0.885292  2 H  py         
     3     -0.637764  1 H  s                 38     -0.637764  2 H  s          
    32     -0.541888  1 H  fyyy              67      0.541888  2 H  fyyy       
    27     -0.519064  1 H  fxxy              34     -0.519064  1 H  fyzz       

 Vector    4  Occ=0.000000D+00  E=-4.689350D-05
              MO Center=  1.2D-13, -5.1D-12,  5.4D-15, r^2= 3.1D+00
   Bfn.  Coefficient  Atom+Function         Bfn.  Coefficient  Atom+Function  
  ----- ------------  ---------------      ----- ------------  ---------------
     8      1.477304  1 H  px                43      1.477304  2 H  px         
    11     -0.931845  1 H  px                46     -0.931845  2 H  px         
    29     -0.657707  1 H  fxyy              64     -0.657707  2 H  fxyy       
    26     -0.621731  1 H  fxxx              31     -0.621731  1 H  fxzz       
    61     -0.621731  2 H  fxxx              66     -0.621731  2 H  fxzz       

 Vector    5  Occ=0.000000D+00  E=-4.689350D-05
              MO Center=  5.3D-15, -6.1D-12, -1.2D-13, r^2= 3.1D+00
   Bfn.  Coefficient  Atom+Function         Bfn.  Coefficient  Atom+Function  
  ----- ------------  ---------------      ----- ------------  ---------------
    10      1.477304  1 H  pz                45      1.477304  2 H  pz         
    13     -0.931845  1 H  pz                48     -0.931845  2 H  pz         
    33     -0.657707  1 H  fyyz              68     -0.657707  2 H  fyyz       
    28     -0.621731  1 H  fxxz              35     -0.621731  1 H  fzzz       
    63     -0.621731  2 H  fxxz              70     -0.621731  2 H  fzzz       

 Vector    6  Occ=0.000000D+00  E=-1.994026D-06
              MO Center= -1.1D-13, -1.2D-09,  1.2D-13, r^2= 3.0D+00
   Bfn.  Coefficient  Atom+Function         Bfn.  Coefficient  Atom+Function  
  ----- ------------  ---------------      ----- ------------  ---------------
     9      1.027564  1 H  py                44     -1.027564  2 H  py         
     2      0.618390  1 H  s                 37      0.618390  2 H  s          
     4     -0.501168  1 H  s                 39     -0.501168  2 H  s          
    27     -0.418544  1 H  fxxy              34     -0.418544  1 H  fyzz       
    62      0.418544  2 H  fxxy              69      0.418544  2 H  fyzz       

 Vector    7  Occ=0.000000D+00  E=-9.181635D-07
              MO Center= -1.5D-12,  4.1D-09,  8.7D-13, r^2= 2.4D+00
   Bfn.  Coefficient  Atom+Function         Bfn.  Coefficient  Atom+Function  
  ----- ------------  ---------------      ----- ------------  ---------------
     9      1.470963  1 H  py                44      1.470963  2 H  py         
     3     -0.964162  1 H  s                 38      0.964162  2 H  s          
     2      0.863091  1 H  s                 37     -0.863091  2 H  s          
    27     -0.536614  1 H  fxxy              34     -0.536614  1 H  fyzz       
    62     -0.536614  2 H  fxxy              69     -0.536614  2 H  fyzz       

 Vector    8  Occ=0.000000D+00  E=-5.771947D-07
              MO Center=  1.5D-12, -3.3D-12, -7.0D-14, r^2= 2.1D+00
   Bfn.  Coefficient  Atom+Function         Bfn.  Coefficient  Atom+Function  
  ----- ------------  ---------------      ----- ------------  ---------------
     8      1.401362  1 H  px                43     -1.401362  2 H  px         
    26     -0.456609  1 H  fxxx              31     -0.456609  1 H  fxzz       
    61      0.456609  2 H  fxxx              66      0.456609  2 H  fxzz       
    21      0.382398  1 H  dxy               56      0.382398  2 H  dxy        
    29     -0.335850  1 H  fxyy              64      0.335850  2 H  fxyy       

 Vector    9  Occ=0.000000D+00  E=-5.097597D-07
              MO Center= -3.8D-14, -2.9D-12, -8.4D-13, r^2= 2.1D+00
   Bfn.  Coefficient  Atom+Function         Bfn.  Coefficient  Atom+Function  
  ----- ------------  ---------------      ----- ------------  ---------------
    10      1.401362  1 H  pz                45     -1.401362  2 H  pz         
    28     -0.456609  1 H  fxxz              35     -0.456609  1 H  fzzz       
    63      0.456609  2 H  fxxz              70      0.456609  2 H  fzzz       
    24      0.382398  1 H  dyz               59      0.382398  2 H  dyz        
    33     -0.335850  1 H  fyyz              68      0.335850  2 H  fyyz       

 Vector   10  Occ=0.000000D+00  E=-5.097597D-07
              MO Center=  1.5D-16,  2.5D-09, -5.1D-15, r^2= 2.9D+00
   Bfn.  Coefficient  Atom+Function         Bfn.  Coefficient  Atom+Function  
  ----- ------------  ---------------      ----- ------------  ---------------
     9      3.150188  1 H  py                44     -3.150188  2 H  py         
    27     -1.385861  1 H  fxxy              34     -1.385861  1 H  fyzz       
    62      1.385861  2 H  fxxy              69      1.385861  2 H  fyzz       
    32     -1.077064  1 H  fyyy              67      1.077064  2 H  fyyy       
     6     -0.778309  1 H  py                41      0.778309  2 H  py         

 Vector   11  Occ=0.000000D+00  E= 4.415928D-01
              MO Center=  2.2D-12,  6.5D-09, -1.3D-12, r^2= 8.6D+00
   Bfn.  Coefficient  Atom+Function         Bfn.  Coefficient  Atom+Function  
  ----- ------------  ---------------      ----- ------------  ---------------
     3      3.012171  1 H  s                 38     -3.012171  2 H  s          
     4     -1.921833  1 H  s                 39      1.921833  2 H  s          
     2     -0.751266  1 H  s                 37      0.751266  2 H  s          
     9     -0.735338  1 H  py                44     -0.735338  2 H  py         
    23     -0.451361  1 H  dyy               58      0.451361  2 H  dyy        

 Vector   12  Occ=0.000000D+00  E= 6.777808D-01
              MO Center= -1.9D-12, -3.7D-09,  1.2D-12, r^2= 4.4D+00
   Bfn.  Coefficient  Atom+Function         Bfn.  Coefficient  Atom+Function  
  ----- ------------  ---------------      ----- ------------  ---------------
     9      1.687788  1 H  py                44      1.687788  2 H  py         
    12     -1.118070  1 H  py                47     -1.118070  2 H  py         
     3      1.058697  1 H  s                 38     -1.058697  2 H  s          
     4     -0.800088  1 H  s                 39      0.800088  2 H  s          
    27     -0.678894  1 H  fxxy              32     -0.677150  1 H  fyyy       


 center of mass
 --------------
 x =   0.00000000 y =   0.00000000 z =   0.00000000

 moments of inertia (a.u.)
 ------------------
          15.521764781250           0.000000000000           0.000000000000
           0.000000000000           0.000000000000           0.000000000000
           0.000000000000           0.000000000000          15.521764781250

  Mulliken analysis of the total density
  --------------------------------------

    Atom       Charge   Shell Charges
 -----------   ------   -------------------------------------------------------
    1 H    1     1.00   0.04  0.21  0.47  0.28  0.00 -0.00  0.00  0.00  0.00  0.00
    2 H    1     1.00   0.04  0.21  0.47  0.28  0.00 -0.00  0.00  0.00  0.00  0.00

       Multipole analysis of the density wrt the origin
       ------------------------------------------------

     L   x y z        total         open         nuclear
     -   - - -        -----         ----         -------
     0   0 0 0     -0.000000      0.000000      2.000000

     1   1 0 0     -0.000000      0.000000      0.000000
     1   0 1 0     -0.000000      0.000000      0.000000
     1   0 0 1      0.000000      0.000000      0.000000

     2   2 0 0     -2.120799      0.000000      0.000000
     2   1 1 0     -0.000000      0.000000      0.000000
     2   1 0 1      0.000000      0.000000      0.000000
     2   0 2 0     -1.316446      0.000000     15.401250
     2   0 1 1      0.000000      0.000000      0.000000
     2   0 0 2     -2.120799      0.000000      0.000000


 Parallel integral file used      10 records with       0 large values

 ------------------------------------
     Number of active orbitals     10
     Number of active alpha electrons      1
     Number of active beta electrons       1
 ------------------------------------
                   NWChem Extensible Many-Electron Theory Module
                   ---------------------------------------------

              ======================================================
                   This portion of the program was automatically
                  generated by a Tensor Contraction Engine (TCE).
                  The development of this portion of the program
                 and TCE was supported by US Department of Energy,
                Office of Science, Office of Basic Energy Science.
                      TCE is a product of Battelle and PNNL.
              Please cite: S.Hirata, J.Phys.Chem.A 107, 9887 (2003).
              ======================================================

                                        H2


            General Information
            -------------------
      Number of processors :     1
         Wavefunction type : Restricted Hartree-Fock
          No. of electrons :     2
           Alpha electrons :     1
            Beta electrons :     1
           No. of orbitals :   140
            Alpha orbitals :    70
             Beta orbitals :    70
        Alpha frozen cores :     0
         Beta frozen cores :     0
     Alpha frozen virtuals :    60
      Beta frozen virtuals :    60
         Spin multiplicity : singlet 
    Number of AO functions :    70
       Number of AO shells :    20
        Use of symmetry is : off
      Symmetry adaption is : off
         Schwarz screening : 0.10D-09

          Correlation Information
          -----------------------
          Calculation type : Coupled-cluster singles & doubles                           
   Perturbative correction : none                                                        
            Max iterations :      300
        Residual threshold : 0.10D-06
     T(0) DIIS level shift : 0.00D+00
     L(0) DIIS level shift : 0.00D+00
     T(1) DIIS level shift : 0.00D+00
     L(1) DIIS level shift : 0.00D+00
     T(R) DIIS level shift : 0.00D+00
     T(I) DIIS level shift : 0.00D+00
   CC-T/L Amplitude update :  5-th order DIIS
                I/O scheme : Global Array Library
        L-threshold :  0.10D-06
        EOM-threshold :  0.10D-06
 no EOMCCSD initial starts read in
 TCE RESTART OPTIONS
 READ_INT:   F
 WRITE_INT:  F
 READ_TA:    F
 WRITE_TA:   F
 READ_XA:    F
 WRITE_XA:   F
 READ_IN3:   F
 WRITE_IN3:  F
 SLICE:      F
 D4D5:       F
 quantumc:   T
 qrotation:  F
 pwtce:      F
 qducc:      F
 nacto:                         0
 nrotv:                         0
 nrot:                          0

            Memory Information
            ------------------
          Available GA space size is    1610607836 doubles
          Available MA space size is    1610610644 doubles

 Maximum block size supplied by input
 Maximum block size         1 doubles

 tile_dim =      1

 Block   Spin    Irrep     Size     Offset   Alpha
 -------------------------------------------------
   1    alpha     a      1 doubles       0       1
   2    beta      a      1 doubles       1       1
   3    alpha     a      1 doubles       2       3
   4    alpha     a      1 doubles       3       4
   5    alpha     a      1 doubles       4       5
   6    alpha     a      1 doubles       5       6
   7    alpha     a      1 doubles       6       7
   8    alpha     a      1 doubles       7       8
   9    alpha     a      1 doubles       8       9
  10    alpha     a      1 doubles       9      10
  11    alpha     a      1 doubles      10      11
  12    beta      a      1 doubles      11       3
  13    beta      a      1 doubles      12       4
  14    beta      a      1 doubles      13       5
  15    beta      a      1 doubles      14       6
  16    beta      a      1 doubles      15       7
  17    beta      a      1 doubles      16       8
  18    beta      a      1 doubles      17       9
  19    beta      a      1 doubles      18      10
  20    beta      a      1 doubles      19      11

 Global array virtual files algorithm will be used

 Parallel file system coherency ......... OK

 Integral file          = ./H2.aoints.0
 Record size in doubles =  65536        No. of integs per rec  =  43688
 Max. records in memory =     99        Max. records in file   = 280262
 No. of bits per label  =      8        No. of bits per value  =     64


 #quartets = 1.892D+04 #integrals = 5.099D+05 #direct =  0.0% #cached =100.0%


 Fock matrix recomputed
 1-e file size   =              100
 1-e file name   = ./H2.f1
 Cpu & wall time / sec            0.1            0.1
 4-electron integrals stored in orbital form

 v2    file size   =             1540
 4-index algorithm nr.  13 is used
 imaxsize =       30
 imaxsize ichop =        0
 begin_one_electron_integrals
    1    1        -0.6930915423
    3    1         0.0397177639
    6    1        -0.0008786299
   10    1        -0.0015661372
    2    2        -0.6655818896
    7    2        -0.0039646532
    1    3         0.0397177639
    3    3        -0.1357933029
    6    3        -0.0825074882
    7    3         0.0000000003
   10    3        -0.1808700394
    4    4        -0.0430625823
    5    5        -0.0430625823
    1    6        -0.0008786299
    3    6        -0.0825074882
    6    6         0.1108772602
    7    6        -0.0000000011
   10    6         0.2418697157
    2    7        -0.0039646532
    3    7         0.0000000003
    6    7        -0.0000000011
    7    7         0.7292915014
   10    7        -0.0000000016
    8    8         0.6242515054
    9    9         0.6242515054
    1   10        -0.0015661372
    3   10        -0.1808700394
    6   10         0.2418697157
    7   10        -0.0000000016
   10   10         1.4460499161
 end_one_electron_integrals
 begin_two_electron_integrals
    1    1    1    1        0.3937818497
    2    1    2    1        0.2229198220
    3    1    1    1       -0.0215672689
    3    1    3    1        0.0459884188
    3    1    2    2       -0.0154680722
    4    1    4    1        0.0428568696
    5    1    5    1        0.0428568696
    6    1    1    1        0.0855412021
    6    1    3    1       -0.0011285815
    6    1    6    1        0.0669216102
    6    1    2    2        0.0937935103
    6    1    3    3        0.0320215030
    6    1    4    4        0.0322239737
    6    1    5    5        0.0322239737
    7    1    2    1        0.0666417385
    7    1    7    1        0.0641214238
    7    1    3    2       -0.0106708271
    7    1    6    2        0.0651697862
    8    1    8    1        0.0572860484
    8    1    4    2       -0.0428732537
    8    1    5    2        0.0041563987
    8    1    7    4        0.0118341867
    8    1    7    5       -0.0011472793
    9    1    9    1        0.0572860484
    9    1    4    2       -0.0041563987
    9    1    5    2       -0.0428732537
    9    1    7    4        0.0011472793
    9    1    7    5        0.0118341867
   10    1    1    1       -0.0245884263
   10    1    3    1       -0.0146109350
   10    1    6    1       -0.0173051305
   10    1    7    1        0.0000000001
   10    1   10    1        0.0309130198
   10    1    2    2       -0.0287466261
   10    1    3    2       -0.0000000001
   10    1    6    2        0.0000000001
   10    1    7    2       -0.0103908252
   10    1    3    3        0.0110731633
   10    1    6    3       -0.0047362922
   10    1    4    4       -0.0093827644
   10    1    5    5       -0.0093827644
   10    1    6    6       -0.0209577426
   10    1    7    6        0.0000000002
   10    1    7    7       -0.0198594414
   10    1    8    8       -0.0190664675
   10    1    9    9       -0.0190664675
    2    2    1    1        0.4024370498
    2    2    2    2        0.4130789476
    3    2    2    1        0.0218734694
    3    2    3    2        0.0315472393
    4    2    4    2        0.0361939684
    5    2    5    2        0.0361939684
    6    2    2    1        0.1009504954
    6    2    3    2       -0.0001502600
    6    2    6    2        0.0752235781
    7    2    1    1        0.0775797189
    7    2    3    1       -0.0157017980
    7    2    6    1        0.0653508714
    7    2    7    1       -0.0000000002
    7    2    2    2        0.0832871435
    7    2    7    2        0.0718174316
    7    2    3    3        0.0354033475
    7    2    6    3       -0.0063430251
    7    2    4    4        0.0284544695
    7    2    5    5        0.0284544695
    7    2    6    6        0.0853403838
    8    2    4    1       -0.0483695613
    8    2    5    1        0.0046892447
    8    2    8    2        0.0640166921
    8    2    4    3        0.0083634348
    8    2    5    3       -0.0008108031
    8    2    6    4        0.0083396888
    8    2    6    5       -0.0008085011
    9    2    4    1       -0.0046892447
    9    2    5    1       -0.0483695613
    9    2    9    2        0.0640166921
    9    2    4    3        0.0008108031
    9    2    5    3        0.0083634348
    9    2    6    4        0.0008085011
    9    2    6    5        0.0083396888
   10    2    1    1        0.0000000002
   10    2    2    1       -0.0316057716
   10    2    3    1       -0.0000000002
   10    2    6    1        0.0000000001
   10    2    7    1       -0.0119161778
   10    2    2    2        0.0000000002
   10    2    3    2       -0.0129408846
   10    2    6    2       -0.0212483373
   10    2    7    2        0.0000000001
   10    2   10    2        0.0321982057
   10    2    3    3        0.0000000002
   10    2    7    3       -0.0033364515
   10    2    4    4        0.0000000001
   10    2    8    4        0.0147598812
   10    2    9    4        0.0014309143
   10    2    5    5        0.0000000001
   10    2    8    5       -0.0014309143
   10    2    9    5        0.0147598812
   10    2    6    6        0.0000000002
   10    2    7    6       -0.0237034666
   10    2    7    7        0.0000000003
   10    2    8    8        0.0000000003
   10    2    9    9        0.0000000003
    3    3    1    1        0.3309080880
    3    3    2    1       -0.0000000002
    3    3    3    1       -0.0440538576
    3    3    2    2        0.3287258499
    3    3    3    3        0.3475400850
    4    3    4    1       -0.0075757348
    4    3    4    3        0.0153036682
    5    3    5    1       -0.0075757348
    5    3    5    3        0.0153036682
    6    3    1    1        0.0087994729
    6    3    2    1       -0.0000000001
    6    3    3    1       -0.0127815035
    6    3    6    1       -0.0089009400
    6    3    2    2        0.0053437143
    6    3    3    3        0.0231078474
    6    3    6    3        0.0178388506
    6    3    4    4        0.0138742217
    6    3    5    5        0.0138742217
    7    3    1    1        0.0000000001
    7    3    2    1       -0.0437859419
    7    3    7    1       -0.0167980145
    7    3    2    2        0.0000000002
    7    3    3    2       -0.0045760457
    7    3    6    2       -0.0210322724
    7    3    3    3        0.0000000002
    7    3    7    3        0.0171387083
    8    3    8    1       -0.0102012817
    8    3    4    2        0.0069071362
    8    3    5    2       -0.0006696205
    8    3    8    3        0.0115292659
    8    3    7    4       -0.0005364928
    8    3    7    5        0.0000520109
    9    3    9    1       -0.0102012817
    9    3    4    2        0.0006696205
    9    3    5    2        0.0069071362
    9    3    9    3        0.0115292659
    9    3    7    4       -0.0000520109
    9    3    7    5       -0.0005364928
   10    3    1    1       -0.0546005272
   10    3    2    1       -0.0000000005
   10    3    3    1        0.0368983394
   10    3    6    1       -0.0253533709
   10    3   10    1       -0.0096441996
   10    3    2    2       -0.0533144546
   10    3    6    2       -0.0000000002
   10    3    7    2       -0.0323808929
   10    3   10    2       -0.0000000002
   10    3    3    3       -0.0517416642
   10    3    6    3       -0.0033430276
   10    3   10    3        0.0533135374
   10    3    4    4       -0.0418185942
   10    3    8    4        0.0000000003
   10    3    5    5       -0.0418185942
   10    3    9    5        0.0000000003
   10    3    6    6       -0.0576601150
   10    3    7    6       -0.0000000003
   10    3    7    7       -0.0726974056
   10    3    8    8       -0.0725621582
   10    3    9    9       -0.0725621582
    4    4    1    1        0.3273890138
    4    4    3    1       -0.0299503884
    4    4    2    2        0.3288255252
    4    4    3    3        0.3034493833
    4    4    4    4        0.3255208486
    5    4    5    4        0.0141713570
    6    4    4    1       -0.0163252776
    6    4    4    3        0.0038351191
    6    4    6    4        0.0183297504
    7    4    4    2       -0.0163698165
    7    4    7    4        0.0186114369
    8    4    2    1       -0.1501155683
    8    4    7    1       -0.0335478645
    8    4    3    2       -0.0030498753
    8    4    6    2       -0.0562570786
    8    4    3    3        0.0000000002
    8    4    7    3        0.0278418740
    8    4    8    4        0.1296675898
    8    4    6    6       -0.0000000001
    8    4    7    6       -0.1254334385
    8    4    7    7        0.0000000005
    9    4    2    1       -0.0145531326
    9    4    7    1       -0.0032523377
    9    4    3    2       -0.0002956738
    9    4    6    2       -0.0054539095
    9    4    7    3        0.0026991636
    9    4    8    4        0.0114655065
    9    4    9    4        0.0125124231
    9    4    8    5        0.0102893487
    9    4    7    6       -0.0121602941
   10    4    4    1       -0.0060883414
   10    4    8    2        0.0076338395
   10    4    9    2        0.0007400717
   10    4    4    3       -0.0010583373
   10    4    6    4        0.0030192594
   10    4   10    4        0.0072220468
   10    4    8    7       -0.0026529929
   10    4    9    7       -0.0002571976
    5    5    1    1        0.3273890138
    5    5    3    1       -0.0299503884
    5    5    2    2        0.3288255252
    5    5    3    3        0.3034493833
    5    5    4    4        0.2971781346
    5    5    5    5        0.3255208486
    6    5    5    1       -0.0163252776
    6    5    5    3        0.0038351191
    6    5    6    5        0.0183297504
    7    5    5    2       -0.0163698165
    7    5    7    5        0.0186114369
    8    5    2    1        0.0145531326
    8    5    7    1        0.0032523377
    8    5    3    2        0.0002956738
    8    5    6    2        0.0054539095
    8    5    7    3       -0.0026991636
    8    5    8    4       -0.0114655065
    8    5    8    5        0.0125124231
    8    5    7    6        0.0121602941
    9    5    2    1       -0.1501155683
    9    5    7    1       -0.0335478645
    9    5    3    2       -0.0030498753
    9    5    6    2       -0.0562570786
    9    5    3    3        0.0000000002
    9    5    7    3        0.0278418740
    9    5    8    4        0.1068658179
    9    5    9    4        0.0114655065
    9    5    8    5       -0.0114655065
    9    5    9    5        0.1296675898
    9    5    6    6       -0.0000000001
    9    5    7    6       -0.1254334385
    9    5    7    7        0.0000000005
   10    5    5    1       -0.0060883414
   10    5    8    2       -0.0007400717
   10    5    9    2        0.0076338395
   10    5    5    3       -0.0010583373
   10    5    6    5        0.0030192594
   10    5   10    5        0.0072220468
   10    5    8    7        0.0002571976
   10    5    9    7       -0.0026529929
    6    6    1    1        0.3716679304
    6    6    2    1        0.0000000002
    6    6    3    1       -0.0374508542
    6    6    6    1        0.0814792950
    6    6    2    2        0.3768531596
    6    6    6    2        0.0000000002
    6    6    3    3        0.3206585158
    6    6    6    3        0.0135574363
    6    6    4    4        0.3128701922
    6    6    5    5        0.3128701922
    6    6    6    6        0.3721803120
    7    6    1    1       -0.0000000002
    7    6    2    1        0.1882116113
    7    6    7    1        0.0797635799
    7    6    2    2       -0.0000000002
    7    6    3    2        0.0015295477
    7    6    6    2        0.1004015047
    7    6    7    2       -0.0000000001
    7    6    3    3       -0.0000000004
    7    6    6    3       -0.0000000001
    7    6    7    3       -0.0390352996
    7    6    4    4       -0.0000000001
    7    6    5    5       -0.0000000001
    7    6    7    6        0.1846635877
    8    6    8    1        0.0175114374
    8    6    4    2       -0.0080296072
    8    6    5    2        0.0007784398
    8    6    8    3       -0.0029843068
    8    6    7    4       -0.0079061855
    8    6    7    5        0.0007664746
    8    6    8    6        0.0150105869
    9    6    9    1        0.0175114374
    9    6    4    2       -0.0007784398
    9    6    5    2       -0.0080296072
    9    6    9    3       -0.0029843068
    9    6    7    4       -0.0007664746
    9    6    7    5       -0.0079061855
    9    6    9    6        0.0150105869
   10    6    1    1       -0.0063576801
   10    6    2    1        0.0000000004
   10    6    3    1       -0.0270702045
   10    6    6    1       -0.0172262891
   10    6    7    1        0.0000000001
   10    6   10    1        0.0229109682
   10    6    2    2       -0.0118841093
   10    6    6    2        0.0000000002
   10    6    7    2       -0.0086021605
   10    6    3    3        0.0226521881
   10    6    6    3        0.0037115091
   10    6   10    3       -0.0200976914
   10    6    4    4        0.0129313793
   10    6    8    4       -0.0000000002
   10    6    5    5        0.0129313793
   10    6    9    5       -0.0000000002
   10    6    6    6        0.0008549849
   10    6    7    6        0.0000000003
   10    6   10    6        0.0306920995
   10    6    7    7        0.0027086383
   10    6    8    8        0.0083813842
   10    6    9    9        0.0083813842
    7    7    1    1        0.4106350872
    7    7    2    1       -0.0000000008
    7    7    3    1       -0.0419571056
    7    7    6    1        0.1067901900
    7    7    7    1       -0.0000000004
    7    7    2    2        0.4190917916
    7    7    6    2       -0.0000000003
    7    7    7    2        0.1109982656
    7    7    3    3        0.3385920989
    7    7    6    3        0.0036075224
    7    7    7    3        0.0000000004
    7    7    4    4        0.3366730678
    7    7    5    5        0.3366730678
    7    7    6    6        0.4091562820
    7    7    7    6       -0.0000000009
    7    7    7    7        0.4660746079
    8    7    4    1        0.0022457600
    8    7    5    1       -0.0002177179
    8    7    8    2        0.0074132532
    8    7    4    3        0.0014682562
    8    7    5    3       -0.0001423418
    8    7    6    4       -0.0125940222
    8    7    6    5        0.0012209425
    8    7    8    7        0.0177650336
    9    7    4    1        0.0002177179
    9    7    5    1        0.0022457600
    9    7    9    2        0.0074132532
    9    7    4    3        0.0001423418
    9    7    5    3        0.0014682562
    9    7    6    4       -0.0012209425
    9    7    6    5       -0.0125940222
    9    7    9    7        0.0177650336
   10    7    1    1        0.0000000001
   10    7    2    1        0.0019031719
   10    7    3    1        0.0000000001
   10    7    6    1        0.0000000001
   10    7    7    1       -0.0001474307
   10    7    2    2        0.0000000001
   10    7    3    2       -0.0190981450
   10    7    6    2       -0.0045280335
   10    7   10    2        0.0219414877
   10    7    7    3       -0.0082041469
   10    7    8    4       -0.0148725882
   10    7    9    4       -0.0014418408
   10    7    8    5        0.0014418408
   10    7    9    5       -0.0148725882
   10    7    6    6        0.0000000001
   10    7    7    6        0.0081718291
   10    7   10    7        0.0321217898
    8    8    1    1        0.4095581540
    8    8    3    1       -0.0421984888
    8    8    6    1        0.0842544093
    8    8    2    2        0.4164589563
    8    8    7    2        0.0790199996
    8    8    3    3        0.3463520906
    8    8    6    3        0.0095063599
    8    8    7    3        0.0000000002
    8    8    4    4        0.3672043830
    8    8    5    4       -0.0026536904
    8    8    5    5        0.3400888312
    8    8    6    6        0.3841750088
    8    8    7    6       -0.0000000002
    8    8    7    7        0.4288254447
    8    8    8    8        0.4738795728
    9    8    4    4        0.0026536903
    9    8    5    4        0.0135577759
    9    8    5    5       -0.0026536903
    9    8    9    8        0.0220391360
   10    8    8    1       -0.0101564373
   10    8    4    2        0.0079734990
   10    8    5    2       -0.0007730004
   10    8    8    3       -0.0074643192
   10    8    7    4       -0.0046827704
   10    8    7    5        0.0004539768
   10    8    8    6       -0.0023577393
   10    8   10    8        0.0150062039
    9    9    1    1        0.4095581540
    9    9    3    1       -0.0421984888
    9    9    6    1        0.0842544093
    9    9    2    2        0.4164589563
    9    9    7    2        0.0790199996
    9    9    3    3        0.3463520906
    9    9    6    3        0.0095063599
    9    9    7    3        0.0000000002
    9    9    4    4        0.3400888312
    9    9    5    4        0.0026536904
    9    9    5    5        0.3672043830
    9    9    6    6        0.3841750088
    9    9    7    6       -0.0000000002
    9    9    7    7        0.4288254447
    9    9    8    8        0.4298013010
    9    9    9    9        0.4738795728
   10    9    9    1       -0.0101564373
   10    9    4    2        0.0007730004
   10    9    5    2        0.0079734990
   10    9    9    3       -0.0074643192
   10    9    7    4       -0.0004539768
   10    9    7    5       -0.0046827704
   10    9    9    6       -0.0023577393
   10    9   10    9        0.0150062039
   10   10    1    1        0.3828709313
   10   10    2    1        0.0000000003
   10   10    3    1       -0.0495400232
   10   10    6    1        0.0754492963
   10   10    7    1        0.0000000001
   10   10   10    1        0.0116718023
   10   10    2    2        0.3860668480
   10   10    3    2       -0.0000000002
   10   10    6    2        0.0000000003
   10   10    7    2        0.0784092327
   10   10   10    2        0.0000000004
   10   10    3    3        0.3648801941
   10   10    6    3        0.0077379132
   10   10    7    3        0.0000000001
   10   10   10    3       -0.0831962428
   10   10    4    4        0.3256311537
   10   10    8    4       -0.0000000003
   10   10    5    5        0.3256311537
   10   10    9    5       -0.0000000003
   10   10    6    6        0.3685188565
   10   10    7    6        0.0000000001
   10   10   10    6        0.0227733608
   10   10    7    7        0.4089399559
   10   10   10    7        0.0000000003
   10   10    8    8        0.4039747312
   10   10    9    9        0.4039747312
   10   10   10   10        0.4329853439
 end_two_electron_integrals
 enrep_tce =   0.18018018018018014     
  EHF(A)             =        -0.81222105
  EHF(total)         =        -0.81222106
  Shift (HFtot-HFA)  =        -0.00000000
 Cpu & wall time / sec            1.7            1.7
 T1-number-of-tasks                    9

 t1 file size   =                9
 t1 file name   = ./H2.t1
 t1 file handle =       -998
 T2-number-of-boxes                  126

 t2 file size   =              126
 t2 file name   = ./H2.t2
 t2 file handle =       -996
CCSD iterations
 ---------------------------------------------------------
 Iter          Residuum       Correlation     Cpu    Wall 
 ---------------------------------------------------------
NEW TASK SCHEDULING
CCSD_T1_NTS --- OK
CCSD_T2_NTS --- OK
    1   0.9335812811056  -0.3128487202530     0.4     0.5
    2   3.9255722888425   0.3056417216603     0.5     0.5
    3  27.3634195593051  -1.1799961049803     0.5     0.5
    41066.2246740897124  16.1397669762374     0.3     0.5
    5************************************     0.5     0.6
 MICROCYCLE DIIS UPDATE:                    5                    5
    6   0.3318882717461  -0.1413712931978     0.4     0.5
    7   1.2849939960338  -0.2656985883730     0.4     0.5
    8   4.7298383016375   0.1912577085881     0.4     0.5
    9  30.0620484189383  -1.5963494949116     0.5     0.5
   101600.3230429900432  19.8730738850814     0.4     0.5
 MICROCYCLE DIIS UPDATE:                   10                    5
   11   0.1094212182834  -0.1674755312256     0.5     0.5
   12   0.4432668704391  -0.2332860106591     0.5     0.5
   13   1.8360684642096  -0.0059772726855     0.7     0.7
   14  10.3349577505039  -0.8847919868201     0.4     0.6
   15 272.8208429953691   7.1029752542190     0.4     0.5
 MICROCYCLE DIIS UPDATE:                   15                    5
   16   0.0253180485076  -0.1819152021219     0.5     0.5
   17   0.1121386284131  -0.2061801161424     0.5     0.5
   18   0.5606438776945  -0.1236866209814     0.4     0.6
   19   3.2229140007387  -0.4438517942556     0.4     0.5
   20  38.4986711913754   2.1679456599627     0.4     0.5
 MICROCYCLE DIIS UPDATE:                   20                    5
   21   0.0046858783646  -0.1878662502559     0.3     0.6
   22   0.0245019384058  -0.1920199346671     0.4     0.5
   23   0.1504654863801  -0.1794081834778     0.4     0.5
   24   0.9509174344670  -0.2201553199734     0.4     0.5
   25   6.0852929722637   0.1628458107212     0.5     0.5
 MICROCYCLE DIIS UPDATE:                   25                    5
   26   0.0001646874239  -0.1891390108144     0.5     0.5
   27   0.0004557131132  -0.1890904711443     0.4     0.6
   28   0.0034004860358  -0.1892948285290     0.4     0.5
   29   0.0255385799243  -0.1887489989850     0.4     0.6
   30   0.1914658889233  -0.1881510981613     0.5     0.5
 MICROCYCLE DIIS UPDATE:                   30                    5
   31   0.0000082223621  -0.1891342653428     0.4     0.5
   32   0.0000310965097  -0.1891383218862     0.5     0.5
   33   0.0001830759456  -0.1891391590145     0.4     0.5
   34   0.0012114664171  -0.1891045503181     0.5     0.5
   35   0.0083719368572  -0.1893041427932     0.4     0.5
 MICROCYCLE DIIS UPDATE:                   35                    5
   36   0.0000001541030  -0.1891363777394     0.4     0.5
   37   0.0000005213732  -0.1891363898555     0.4     0.5
   38   0.0000023967743  -0.1891362874594     0.4     0.5
   39   0.0000122084782  -0.1891369154381     0.3     0.5
   40   0.0000683624603  -0.1891336172251     0.5     0.5
 MICROCYCLE DIIS UPDATE:                   40                    5
   41   0.0000000028533  -0.1891363782897     0.4     0.5
 -----------------------------------------------------------------
 Iterations converged
 CCSD correlation energy / hartree =        -0.189136378289727
 CCSD total energy / hartree       =        -1.001357433795371

 Singles contributions

 Doubles contributions
     2a   (alpha)     2a   (beta ) ---     1a   (alpha)     1a   (beta )       -0.8408979099
 Ground state specification:
 exp(T)|Ref>~(1+T)|Ref>
 ------- a(p)+/a(q) strings ----------

 singles norm

 doubles norm

 Reference string
  0.76536630123197380      :(1a)+ (1b)+ |0>

 Singles strings

 Doubles strings
 -0.64359492302106280      :(2a)+ (2b)+ (1b)  (1a)  (1a)+ (1b)+ |0>
 -------------------------------------

 Parallel integral file used      12 records with       0 large values


 Task  times  cpu:       19.7s     wall:       24.7s


                                NWChem Input Module
                                -------------------


 Summary of allocated global arrays
-----------------------------------
  No active global arrays


MA_summarize_allocated_blocks: starting scan ...
MA_summarize_allocated_blocks: scan completed: 0 heap blocks, 0 stack blocks
MA usage statistics:

	allocation statistics:
					      heap	     stack
					      ----	     -----
	current number of blocks	         0	         0
	maximum number of blocks	        18	        42
	current total bytes		         0	         0
	maximum total bytes		  51983048	  61995224
	maximum total K-bytes		     51984	     61996
	maximum total M-bytes		        52	        62


                                     CITATION
                                     --------
                Please cite the following reference when publishing
                           results obtained with NWChem:

          E. Apra, E. J. Bylaska, W. A. de Jong, N. Govind, K. Kowalski,
       T. P. Straatsma, M. Valiev, H. J. J. van Dam, Y. Alexeev, J. Anchell,
       V. Anisimov, F. W. Aquino, R. Atta-Fynn, J. Autschbach, N. P. Bauman,
     J. C. Becca, D. E. Bernholdt, K. Bhaskaran-Nair, S. Bogatko, P. Borowski,
         J. Boschen, J. Brabec, A. Bruner, E. Cauet, Y. Chen, G. N. Chuev,
      C. J. Cramer, J. Daily, M. J. O. Deegan, T. H. Dunning Jr., M. Dupuis,
   K. G. Dyall, G. I. Fann, S. A. Fischer, A. Fonari, H. Fruchtl, L. Gagliardi,
      J. Garza, N. Gawande, S. Ghosh, K. Glaesemann, A. W. Gotz, J. Hammond,
       V. Helms, E. D. Hermes, K. Hirao, S. Hirata, M. Jacquelin, L. Jensen,
   B. G. Johnson, H. Jonsson, R. A. Kendall, M. Klemm, R. Kobayashi, V. Konkov,
      S. Krishnamoorthy, M. Krishnan, Z. Lin, R. D. Lins, R. J. Littlefield,
      A. J. Logsdail, K. Lopata, W. Ma, A. V. Marenich, J. Martin del Campo,
   D. Mejia-Rodriguez, J. E. Moore, J. M. Mullin, T. Nakajima, D. R. Nascimento,
    J. A. Nichols, P. J. Nichols, J. Nieplocha, A. Otero-de-la-Roza, B. Palmer,
    A. Panyala, T. Pirojsirikul, B. Peng, R. Peverati, J. Pittner, L. Pollack,
   R. M. Richard, P. Sadayappan, G. C. Schatz, W. A. Shelton, D. W. Silverstein,
   D. M. A. Smith, T. A. Soares, D. Song, M. Swart, H. L. Taylor, G. S. Thomas,
            V. Tipparaju, D. G. Truhlar, K. Tsemekhman, T. Van Voorhis,
      A. Vazquez-Mayagoitia, P. Verma, O. Villa, A. Vishnu, K. D. Vogiatzis,
        D. Wang, J. H. Weare, M. J. Williamson, T. L. Windus, K. Wolinski,
        A. T. Wong, Q. Wu, C. Yang, Q. Yu, M. Zacharias, Z. Zhang, Y. Zhao,
                                and R. J. Harrison
                        "NWChem: Past, present, and future
                         J. Chem. Phys. 152, 184102 (2020)
                               doi:10.1063/5.0004997

                                      AUTHORS
                                      -------
  E. Apra, E. J. Bylaska, N. Govind, K. Kowalski, M. Valiev, D. Mejia-Rodriguez,
       A. Kunitsa, N. P. Bauman, A. Panyala, W. A. de Jong, T. P. Straatsma,
        H. J. J. van Dam, D. Wang, T. L. Windus, J. Hammond, J. Autschbach,
    K. Bhaskaran-Nair, J. Brabec, K. Lopata, S. A. Fischer, S. Krishnamoorthy,
     M. Jacquelin, W. Ma, M. Klemm, O. Villa, Y. Chen, V. Anisimov, F. Aquino,
    S. Hirata, M. T. Hackler, Eric Hermes, L. Jensen, J. E. Moore, J. C. Becca,
      V. Konjkov, T. Risthaus, M. Malagoli, A. Marenich, A. Otero-de-la-Roza,
        J. Mullin, P. Nichols, R. Peverati, J. Pittner, Y. Zhao, P.-D. Fan,
        A. Fonari, M. J. Williamson, R. J. Harrison, J. R. Rehr, M. Dupuis,
     D. Silverstein, D. M. A. Smith, J. Nieplocha, V. Tipparaju, M. Krishnan,
     B. E. Van Kuiken, A. Vazquez-Mayagoitia, M. Swart, Q. Wu, T. Van Voorhis,
     A. A. Auer, M. Nooijen, L. D. Crosby, E. Brown, G. Cisneros, G. I. Fann,
   H. Fruchtl, J. Garza, K. Hirao, R. A. Kendall, J. A. Nichols, K. Tsemekhman,
    K. Wolinski, J. Anchell, D. E. Bernholdt, P. Borowski, T. Clark, D. Clerc,
   H. Dachsel, M. J. O. Deegan, K. Dyall, D. Elwood, E. Glendening, M. Gutowski,
   A. C. Hess, J. Jaffe, B. G. Johnson, J. Ju, R. Kobayashi, R. Kutteh, Z. Lin,
   R. Littlefield, X. Long, B. Meng, T. Nakajima, S. Niu, L. Pollack, M. Rosing,
   K. Glaesemann, G. Sandrone, M. Stave, H. Taylor, G. Thomas, J. H. van Lenthe,
                               A. T. Wong, Z. Zhang.

 Total times  cpu:       21.4s     wall:       26.8s
