 argument  1 = input.nw
  NWChem w/ OpenMP: maximum threads =    1



============================== echo of input deck ==============================
 echo
 start H2
 title "H2"

 memory total 24 gb

 geometry units bohr
 symmetry c1
        H  0.00000000  0.00000000  0.00000000
        H  0.00000000  6.80  0.00000000
 end

 basis
   * library cc-pVQZ
 end

 mcscf
   active  10
   actelec 2
   multiplicity 1
   maxiter 40
   vectors input H2.mos
   vectors output H2.mos
 end

 task mcscf

 scf
   vectors input H2.mos
   vectors output H2-6.80.mos
   noscf
 end

 tce
   2eorb
   2emet 13
   ccsd
   maxiter 300
   lshift 0.4
 end

 set tce:print_integrals T
 set tce:qorb 10
 set tce:qela 1
 set tce:qelb 1

# set tce:qducc T
# set tce:nactv 1
# set tce:nonhf T
# set tce:ducc_model 6

 set tce:printtol 0.02

 task tce
================================================================================


                                         
                                         


             Northwest Computational Chemistry Package (NWChem) 7.0.1
             --------------------------------------------------------


                    Environmental Molecular Sciences Laboratory
                       Pacific Northwest National Laboratory
                                Richland, WA 99352

                              Copyright (c) 1994-2020
                       Pacific Northwest National Laboratory
                            Battelle Memorial Institute

             NWChem is an open-source computational chemistry package
                        distributed under the terms of the
                      Educational Community License (ECL) 2.0
             A copy of the license is included with this distribution
                              in the LICENSE.TXT file

                                  ACKNOWLEDGMENT
                                  --------------

            This software and its documentation were developed at the
            EMSL at Pacific Northwest National Laboratory, a multiprogram
            national laboratory, operated for the U.S. Department of Energy
            by Battelle under Contract Number DE-AC05-76RL01830. Support
            for this work was provided by the Department of Energy Office
            of Biological and Environmental Research, Office of Basic
            Energy Sciences, and the Office of Advanced Scientific Computing.


           Job information
           ---------------

    hostname        = WE46210
    program         = /home/baum612/code/nwchem/bin/LINUX64/nwchem
    date            = Fri Nov 10 19:10:45 2023

    compiled        = Mon_Nov_06_10:06:57_2023
    source          = /home/baum612/code/nwchem
    nwchem branch   = 7.0.0
    nwchem revision = nwchem_on_git-4191-g39d87d64de
    ga revision     = 5.8.1
    use scalapack   = F
    input           = input.nw
    prefix          = H2.
    data base       = ./H2.db
    status          = startup
    nproc           =        1
    time left       =     -1s



           Memory information
           ------------------

    heap     =  805306362 doubles =   6144.0 Mbytes
    stack    =  805306367 doubles =   6144.0 Mbytes
    global   = 1610612736 doubles =  12288.0 Mbytes (distinct from heap & stack)
    total    = 3221225465 doubles =  24576.0 Mbytes
    verify   = yes
    hardfail = no 


           Directory information
           ---------------------

  0 permanent = .
  0 scratch   = .




                                NWChem Input Module
                                -------------------


                                        H2
                                        --
 Turning off AUTOSYM since
 SYMMETRY directive was detected!


          ------
          auto-z
          ------
     1 autoz failed with cvr_scaling = 1.2 changing to 1.3
     2 autoz failed with cvr_scaling = 1.3 changing to 1.4
     3 autoz failed with cvr_scaling = 1.4 changing to 1.5
     4 autoz failed with cvr_scaling = 1.5 changing to 1.6
     5 autoz failed with cvr_scaling = 1.6 changing to 1.7

 AUTOZ failed to generate good internal coordinates.
 Cartesian coordinates will be used in optimizations.



                             Geometry "geometry" -> ""
                             -------------------------

 Output coordinates in a.u. (scale by  1.000000000 to convert to a.u.)

  No.       Tag          Charge          X              Y              Z
 ---- ---------------- ---------- -------------- -------------- --------------
    1 H                    1.0000     0.00000000    -3.40000000     0.00000000
    2 H                    1.0000     0.00000000     3.40000000     0.00000000

      Atomic Mass 
      ----------- 

      H                  1.007825


 Effective nuclear repulsion energy (a.u.)       0.1470588235

            Nuclear Dipole moment (a.u.) 
            ----------------------------
        X                 Y               Z
 ---------------- ---------------- ----------------
     0.0000000000     0.0000000000     0.0000000000


            XYZ format geometry
            -------------------
     2
 geometry
 H                     0.00000000    -1.79920265     0.00000000
 H                     0.00000000     1.79920265     0.00000000



 Summary of "ao basis" -> "" (cartesian)
 ------------------------------------------------------------------------------
       Tag                 Description            Shells   Functions and Types
 ---------------- ------------------------------  ------  ---------------------
 *                          cc-pVQZ                   on all atoms 


                      Basis "ao basis" -> "ao basis" (cartesian)
                      -----
  H (Hydrogen)
  ------------
            Exponent  Coefficients 
       -------------- ---------------------------------------------------------
  1 S  8.26400000E+01  0.002006
  1 S  1.24100000E+01  0.015343
  1 S  2.82400000E+00  0.075579

  2 S  7.97700000E-01  1.000000

  3 S  2.58100000E-01  1.000000

  4 S  8.98900000E-02  1.000000

  5 P  2.29200000E+00  1.000000

  6 P  8.38000000E-01  1.000000

  7 P  2.92000000E-01  1.000000

  8 D  2.06200000E+00  1.000000

  9 D  6.62000000E-01  1.000000

 10 F  1.39700000E+00  1.000000



 Summary of "ao basis" -> "ao basis" (cartesian)
 ------------------------------------------------------------------------------
       Tag                 Description            Shells   Functions and Types
 ---------------- ------------------------------  ------  ---------------------
 H                          cc-pVQZ                 10       35   4s3p2d1f



                            NWChem Direct MCSCF Module
                            --------------------------


                                        H2


     -----------------------------------
       Basis functions:             70
       Inactive shells:              0
       Active shells:               10
       Active electrons:             2
       Symmetry:                    a       
       Multiplicity:                 1
       Orbital rotations:          600
     -----------------------------------

     -----------------------------------
       E2 extrapolation:             F
       Conjugacy:                    T
       Micro CI relax:               T
       Canonical orbitals:           T
       Maximum iterations:          40
       Converge threshold:    1.00E-04
       Conjugacy resets:            20
       Initial levelshift:        0.10
     -----------------------------------

 Loading old vectors from job with title :

H2


   input molecular orbitals = ./H2.mos
  output molecular orbtials = ./H2.mos

       No. of determinants:           100


  Starting Orbital Energies
    -0.263994    -0.235921    -0.000030    -0.000008    -0.000008    -0.000000
    -0.000000    -0.000000    -0.000000    -0.000000     0.419931     0.621044
     0.833536     1.135049     1.135049     1.761744     1.831435     1.831435
     1.897059     2.047596     2.047596     2.054787     2.054787     2.084504
     2.090370     2.090370     2.090382     2.090382     2.895934     2.947736
     4.374950     4.374950     4.378786     4.441457     4.441457     4.499275
     5.943949     6.055864     6.055864     6.060928     6.069679     6.069679
     6.070579     6.070579     6.070579     6.070579     6.070594     6.070594
     6.070594     6.070594     8.127057     8.134839     8.134839     8.134983
     8.142031     8.142031     8.142527     8.142527     8.142530     8.142530
     9.648697     9.655514     9.690351     9.714242     9.714242     9.717613
     9.717613     9.766106    22.337567    22.539211

  Orbital Symmetry Irreps
a    a    a    a    a    a    a    a    a    a    a    a    a    a    a   
a    a    a    a    a    a    a    a    a    a    a    a    a    a    a   
a    a    a    a    a    a    a    a    a    a    a    a    a    a    a   
a    a    a    a    a    a    a    a    a    a    a    a    a    a    a   
a    a    a    a    a    a    a    a    a    a   

 Integral file          = ./H2.aoints.0
 Record size in doubles =  65536        No. of integs per rec  =  43688
 Max. records in memory =     99        Max. records in file   = 280219
 No. of bits per label  =      8        No. of bits per value  =     64


 #quartets = 1.565D+04 #integrals = 3.540D+05 #direct =  0.0% #cached =100.0%




          %%%%% MacroIteration   1 %%%%%


          Number of sigma calls:       14
                       o<<<<< (aa):             0.00
                       o<<<<< (bb):             0.00
                       o<<<<< (ab):             0.01
                       o<<<<< (total)           0.02
                       o<<<<< (aa) ff           0.00
                       o<<<<< (aa) gop          0.00
                       o<<<<< (aa) dot          0.00
                       o<<<<< (ab) str          0.00
                       o<<<<< (ab) gath         0.00
                       o<<<<< (ab) dotab        0.00
                       o<<<<< (ab) scat         0.00
                       o<<<<< (ab) sync         0.00
                       o<<<<< Density           0.00
                       o<<<<< Density one       0.00
                       o<<<<< Density two       0.00
                       o<<<<< Density ab        0.00
                       o<<<<< Spin adapt        0.00
                       o<<<<< Symm adapt        0.00

                       o<<<<< (ab) max sync:      0.00

           >>>| Valence CI:             -1.147150043679
           >>>| MCSCF energy:           -1.000091220150
           >>>| Gradient norm:          0.205056013D-03
     --- Warning:  480 Hessian diagonals < 0.05 ---

                              ----- Line search ------

        step       energy         lsg     num-lsg   num-lsh   lsrat    time
      ------- ---------------- --------- --------- --------- ------- --------
       0.0000      -1.00009122 -1.12D-08  0.00D+00  0.00D+00 0.0D+00      0.4

          Number of sigma calls:        8
                       o<<<<< (aa):             0.00
                       o<<<<< (bb):             0.00
                       o<<<<< (ab):             0.00
                       o<<<<< (total)           0.00
                       o<<<<< (aa) ff           0.00
                       o<<<<< (aa) gop          0.00
                       o<<<<< (aa) dot          0.00
                       o<<<<< (ab) str          0.00
                       o<<<<< (ab) gath         0.00
                       o<<<<< (ab) dotab        0.00
                       o<<<<< (ab) scat         0.00
                       o<<<<< (ab) sync         0.00
                       o<<<<< Density           0.00
                       o<<<<< Density one       0.00
                       o<<<<< Density two       0.00
                       o<<<<< Density ab        0.00
                       o<<<<< Spin adapt        0.00
                       o<<<<< Symm adapt        0.00

                       o<<<<< (ab) max sync:      0.00
       1.0000      -1.00009123 -3.61D-09 -3.61D-09  7.60D-09 3.2D-01      0.5

          Number of sigma calls:        8
                       o<<<<< (aa):             0.00
                       o<<<<< (bb):             0.00
                       o<<<<< (ab):             0.01
                       o<<<<< (total)           0.01
                       o<<<<< (aa) ff           0.00
                       o<<<<< (aa) gop          0.00
                       o<<<<< (aa) dot          0.00
                       o<<<<< (ab) str          0.00
                       o<<<<< (ab) gath         0.00
                       o<<<<< (ab) dotab        0.00
                       o<<<<< (ab) scat         0.00
                       o<<<<< (ab) sync         0.00
                       o<<<<< Density           0.00
                       o<<<<< Density one       0.00
                       o<<<<< Density two       0.00
                       o<<<<< Density ab        0.00
                       o<<<<< Spin adapt        0.00
                       o<<<<< Symm adapt        0.00

                       o<<<<< (ab) max sync:      0.00
       1.4747      -1.00009123  4.98D-12  4.97D-12  7.61D-09 4.4D-04      0.7
     --- Orbitals canonicalized ---



          %%%%% MacroIteration   2 %%%%%


          Number of sigma calls:       14
                       o<<<<< (aa):             0.00
                       o<<<<< (bb):             0.00
                       o<<<<< (ab):             0.01
                       o<<<<< (total)           0.02
                       o<<<<< (aa) ff           0.00
                       o<<<<< (aa) gop          0.00
                       o<<<<< (aa) dot          0.00
                       o<<<<< (ab) str          0.00
                       o<<<<< (ab) gath         0.00
                       o<<<<< (ab) dotab        0.00
                       o<<<<< (ab) scat         0.00
                       o<<<<< (ab) sync         0.00
                       o<<<<< Density           0.00
                       o<<<<< Density one       0.00
                       o<<<<< Density two       0.00
                       o<<<<< Density ab        0.00
                       o<<<<< Spin adapt        0.00
                       o<<<<< Symm adapt        0.00

                       o<<<<< (ab) max sync:      0.00

           >>>| Valence CI:             -1.147150051950
           >>>| MCSCF energy:           -1.000091228421
           >>>| Gradient norm:          0.381680299D-04




     ==============================
            MCSCF Converged
     ==============================



          Canonical Eigenvalues

              1      
    1   -0.2634
    2   -0.2365
    3   -0.0000
    4   -0.0000
    5   -0.0000
    6   -0.0000
    7   -0.0000
    8   -0.0000
    9   -0.0000
   10   -0.0000
   11    0.4198
   12    0.6193
   13    0.8330
   14    1.1345
   15    1.1345
   16    1.7610
   17    1.8320
   18    1.8320
   19    1.8994
   20    2.0477
   21    2.0477
   22    2.0546
   23    2.0546
   24    2.0817
   25    2.0904
   26    2.0904
   27    2.0904
   28    2.0904
   29    2.8970
   30    2.9459
   31    4.3744
   32    4.3744
   33    4.3806
   34    4.4420
   35    4.4420
   36    4.4951
   37    5.9439
   38    6.0559
   39    6.0559
   40    6.0610
   41    6.0697
   42    6.0697
   43    6.0706
   44    6.0706
   45    6.0706
   46    6.0706
   47    6.0706
   48    6.0706
   49    6.0706
   50    6.0706
   51    8.1270
   52    8.1348
   53    8.1349
   54    8.1349
   55    8.1421
   56    8.1421
   57    8.1426
   58    8.1426
   59    8.1426
   60    8.1426
   61    9.6490
   62    9.6545
   63    9.6915
   64    9.7140
   65    9.7140
   66    9.7179
   67    9.7179
   68    9.7645
   69   22.3475
   70   22.5286


          Converged CI vector

   Index           Coefficient          Config. Occupation
         1          0.72926263          1  1
        12         -0.68420506          2  2

          Number of sigma calls:        1
                       o<<<<< (aa):             0.00
                       o<<<<< (bb):             0.00
                       o<<<<< (ab):             0.00
                       o<<<<< (total)           0.00
                       o<<<<< (aa) ff           0.00
                       o<<<<< (aa) gop          0.00
                       o<<<<< (aa) dot          0.00
                       o<<<<< (ab) str          0.00
                       o<<<<< (ab) gath         0.00
                       o<<<<< (ab) dotab        0.00
                       o<<<<< (ab) scat         0.00
                       o<<<<< (ab) sync         0.00
                       o<<<<< Density           0.00
                       o<<<<< Density one       0.00
                       o<<<<< Density two       0.00
                       o<<<<< Density ab        0.00
                       o<<<<< Spin adapt        0.00
                       o<<<<< Symm adapt        0.00

                       o<<<<< (ab) max sync:      0.00



          Natural orbital occupation numbers

              1      
    1    1.0636
    2    0.9363
    3    0.0001
    4    0.0000
    5    0.0000
    6    0.0000
    7    0.0000
    8    0.0000
    9    0.0000
   10    0.0000


          Number of sigma calls:       14
                       o<<<<< (aa):             0.00
                       o<<<<< (bb):             0.00
                       o<<<<< (ab):             0.01
                       o<<<<< (total)           0.01
                       o<<<<< (aa) ff           0.00
                       o<<<<< (aa) gop          0.00
                       o<<<<< (aa) dot          0.00
                       o<<<<< (ab) str          0.00
                       o<<<<< (ab) gath         0.00
                       o<<<<< (ab) dotab        0.00
                       o<<<<< (ab) scat         0.00
                       o<<<<< (ab) sync         0.00
                       o<<<<< Density           0.00
                       o<<<<< Density one       0.00
                       o<<<<< Density two       0.00
                       o<<<<< Density ab        0.00
                       o<<<<< Spin adapt        0.00
                       o<<<<< Symm adapt        0.00

                       o<<<<< (ab) max sync:      0.00


       Final MCSCF results 
       ------------------- 

       Total MCSCF energy =     -1.000091228421
            Gradient norm =      3.8D-05

    CPU time for solution =      1.2s
   Wall time for solution =      1.3s



                        Analysis of MCSCF natural orbitals
                        ----------------------------------

 Vector    1  Occ=1.063648D+00  E=-2.634459D-01  Symmetry=a
              MO Center=  6.7D-15,  3.2D-12, -4.3D-15, r^2= 4.0D+00
   Bfn.  Coefficient  Atom+Function         Bfn.  Coefficient  Atom+Function  
  ----- ------------  ---------------      ----- ------------  ---------------
     3      0.343135  1 H  s                 38      0.343135  2 H  s          
     4      0.209902  1 H  s                 39      0.209902  2 H  s          
     2      0.177683  1 H  s                 37      0.177683  2 H  s          

 Vector    2  Occ=9.362731D-01  E=-2.364709D-01  Symmetry=a
              MO Center=  2.7D-14, -2.8D-12, -1.9D-14, r^2= 4.1D+00
   Bfn.  Coefficient  Atom+Function         Bfn.  Coefficient  Atom+Function  
  ----- ------------  ---------------      ----- ------------  ---------------
     3      0.357340  1 H  s                 38     -0.357340  2 H  s          
     4      0.209621  1 H  s                 39     -0.209621  2 H  s          
     2      0.182502  1 H  s                 37     -0.182502  2 H  s          

 Vector    3  Occ=5.204059D-05  E=-2.817250D-05  Symmetry=a
              MO Center=  1.9D-13,  3.6D-09, -1.2D-13, r^2= 4.2D+00
   Bfn.  Coefficient  Atom+Function         Bfn.  Coefficient  Atom+Function  
  ----- ------------  ---------------      ----- ------------  ---------------
     9      1.844616  1 H  py                44     -1.844616  2 H  py         
    12     -1.012879  1 H  py                47      1.012879  2 H  py         
    32     -0.777907  1 H  fyyy              67      0.777907  2 H  fyyy       
    27     -0.763014  1 H  fxxy              34     -0.763014  1 H  fyzz       
    62      0.763014  2 H  fxxy              69      0.763014  2 H  fyzz       

 Vector    4  Occ=1.314628D-05  E=-7.527214D-06  Symmetry=a
              MO Center= -1.9D-15, -2.5D-11, -3.1D-14, r^2= 4.2D+00
   Bfn.  Coefficient  Atom+Function         Bfn.  Coefficient  Atom+Function  
  ----- ------------  ---------------      ----- ------------  ---------------
    10      1.597148  1 H  pz                45      1.597148  2 H  pz         
    13     -0.961994  1 H  pz                48     -0.961994  2 H  pz         
    33     -0.701404  1 H  fyyz              68     -0.701404  2 H  fyyz       
    28     -0.673211  1 H  fxxz              35     -0.673211  1 H  fzzz       
    63     -0.673211  2 H  fxxz              70     -0.673211  2 H  fzzz       

 Vector    5  Occ=1.314628D-05  E=-7.527214D-06  Symmetry=a
              MO Center=  6.4D-14, -2.4D-11,  1.7D-15, r^2= 4.2D+00
   Bfn.  Coefficient  Atom+Function         Bfn.  Coefficient  Atom+Function  
  ----- ------------  ---------------      ----- ------------  ---------------
     8      1.597148  1 H  px                43      1.597148  2 H  px         
    11     -0.961994  1 H  px                46     -0.961994  2 H  px         
    29     -0.701404  1 H  fxyy              64     -0.701404  2 H  fxyy       
    26     -0.673211  1 H  fxxx              31     -0.673211  1 H  fxzz       
    61     -0.673211  2 H  fxxx              66     -0.673211  2 H  fxzz       

 Vector    6  Occ=1.497662D-07  E=-1.040848D-07  Symmetry=a
              MO Center= -2.5D-13, -1.2D-09,  1.5D-13, r^2= 3.9D+00
   Bfn.  Coefficient  Atom+Function         Bfn.  Coefficient  Atom+Function  
  ----- ------------  ---------------      ----- ------------  ---------------
     9      1.214555  1 H  py                44     -1.214555  2 H  py         
     2      0.596595  1 H  s                 37      0.596595  2 H  s          
     4     -0.524844  1 H  s                 39     -0.524844  2 H  s          
    27     -0.501975  1 H  fxxy              34     -0.501975  1 H  fyzz       
    62      0.501975  2 H  fxxy              69      0.501975  2 H  fyzz       

 Vector    7  Occ=7.399094D-08  E=-6.865311D-08  Symmetry=a
              MO Center= -1.3D-12,  3.1D-09,  8.0D-13, r^2= 3.2D+00
   Bfn.  Coefficient  Atom+Function         Bfn.  Coefficient  Atom+Function  
  ----- ------------  ---------------      ----- ------------  ---------------
     9      1.430395  1 H  py                44      1.430395  2 H  py         
     3     -0.924306  1 H  s                 38      0.924306  2 H  s          
     2      0.844825  1 H  s                 37     -0.844825  2 H  s          
    27     -0.522687  1 H  fxxy              34     -0.522687  1 H  fyzz       
    62     -0.522687  2 H  fxxy              69     -0.522687  2 H  fyzz       

 Vector    8  Occ=3.132937D-08  E=-3.706195D-08  Symmetry=a
              MO Center= -2.2D-15,  3.5D-09,  1.2D-15, r^2= 4.1D+00
   Bfn.  Coefficient  Atom+Function         Bfn.  Coefficient  Atom+Function  
  ----- ------------  ---------------      ----- ------------  ---------------
     9      3.022260  1 H  py                44     -3.022260  2 H  py         
    27     -1.331669  1 H  fxxy              34     -1.331669  1 H  fyzz       
    62      1.331669  2 H  fxxy              69      1.331669  2 H  fyzz       
    32     -1.031248  1 H  fyyy              67      1.031248  2 H  fyyy       
     6     -0.746994  1 H  py                41      0.746994  2 H  py         

 Vector    9  Occ=1.662009D-08  E=-1.515467D-08  Symmetry=a
              MO Center= -3.1D-14,  9.8D-12, -5.1D-13, r^2= 3.1D+00
   Bfn.  Coefficient  Atom+Function         Bfn.  Coefficient  Atom+Function  
  ----- ------------  ---------------      ----- ------------  ---------------
    10      1.432606  1 H  pz                45     -1.432606  2 H  pz         
    28     -0.468998  1 H  fxxz              35     -0.468998  1 H  fzzz       
    63      0.468998  2 H  fxxz              70      0.468998  2 H  fzzz       
    24      0.384017  1 H  dyz               59      0.384017  2 H  dyz        
    33     -0.345110  1 H  fyyz              68      0.345110  2 H  fyyz       

 Vector   10  Occ=1.662009D-08  E=-1.515467D-08  Symmetry=a
              MO Center=  9.5D-13,  9.3D-12, -6.1D-14, r^2= 3.1D+00
   Bfn.  Coefficient  Atom+Function         Bfn.  Coefficient  Atom+Function  
  ----- ------------  ---------------      ----- ------------  ---------------
     8      1.432606  1 H  px                43     -1.432606  2 H  px         
    26     -0.468998  1 H  fxxx              31     -0.468998  1 H  fxzz       
    61      0.468998  2 H  fxxx              66      0.468998  2 H  fxzz       
    21      0.384017  1 H  dxy               56      0.384017  2 H  dxy        
    29     -0.345110  1 H  fxyy              64      0.345110  2 H  fxyy       

 Vector   11  Occ=0.000000D+00  E= 4.198055D-01  Symmetry=a
              MO Center=  2.5D-12,  1.3D-09, -1.5D-12, r^2= 8.8D+00
   Bfn.  Coefficient  Atom+Function         Bfn.  Coefficient  Atom+Function  
  ----- ------------  ---------------      ----- ------------  ---------------
     3      2.656984  1 H  s                 38     -2.656985  2 H  s          
     4     -1.595652  1 H  s                 39      1.595652  2 H  s          
     9     -1.209786  1 H  py                44     -1.209786  2 H  py         
     2     -0.650322  1 H  s                 37      0.650322  2 H  s          
    12      0.557791  1 H  py                47      0.557791  2 H  py         

 Vector   12  Occ=0.000000D+00  E= 6.193163D-01  Symmetry=a
              MO Center= -9.5D-13,  3.8D-09,  5.9D-13, r^2= 6.2D+00
   Bfn.  Coefficient  Atom+Function         Bfn.  Coefficient  Atom+Function  
  ----- ------------  ---------------      ----- ------------  ---------------
     3      1.940993  1 H  s                 38     -1.940993  2 H  s          
     9      1.174397  1 H  py                44      1.174397  2 H  py         
     4     -1.127338  1 H  s                 39      1.127338  2 H  s          
    12     -0.873682  1 H  py                47     -0.873682  2 H  py         
     2     -0.522836  1 H  s                 37      0.522836  2 H  s          

 Vector   13  Occ=0.000000D+00  E= 8.330107D-01  Symmetry=a
              MO Center=  4.6D-14, -1.8D-08, -2.7D-14, r^2= 7.2D+00
   Bfn.  Coefficient  Atom+Function         Bfn.  Coefficient  Atom+Function  
  ----- ------------  ---------------      ----- ------------  ---------------
     3      3.877072  1 H  s                 38      3.877072  2 H  s          
     4     -1.578984  1 H  s                 39     -1.578984  2 H  s          
     2     -1.246987  1 H  s                 37     -1.246987  2 H  s          
    23     -0.642266  1 H  dyy               58     -0.642266  2 H  dyy        
    20     -0.595007  1 H  dxx               25     -0.595007  1 H  dzz        

 Vector   14  Occ=0.000000D+00  E= 1.134492D+00  Symmetry=a
              MO Center=  2.1D-13, -2.5D-11, -2.0D-14, r^2= 5.6D+00
   Bfn.  Coefficient  Atom+Function         Bfn.  Coefficient  Atom+Function  
  ----- ------------  ---------------      ----- ------------  ---------------
     8      4.930774  1 H  px                43     -4.930774  2 H  px         
    26     -1.916233  1 H  fxxx              31     -1.916233  1 H  fxzz       
    61      1.916233  2 H  fxxx              66      1.916233  2 H  fxzz       
    29     -1.898664  1 H  fxyy              64      1.898664  2 H  fxyy       
    11     -1.481760  1 H  px                46      1.481760  2 H  px         

 Vector   15  Occ=0.000000D+00  E= 1.134492D+00  Symmetry=a
              MO Center= -6.8D-15, -2.3D-11, -7.1D-14, r^2= 5.6D+00
   Bfn.  Coefficient  Atom+Function         Bfn.  Coefficient  Atom+Function  
  ----- ------------  ---------------      ----- ------------  ---------------
    10      4.930774  1 H  pz                45     -4.930774  2 H  pz         
    28     -1.916233  1 H  fxxz              35     -1.916233  1 H  fzzz       
    63      1.916233  2 H  fxxz              70      1.916233  2 H  fzzz       
    33     -1.898664  1 H  fyyz              68      1.898664  2 H  fyyz       
    13     -1.481760  1 H  pz                48      1.481760  2 H  pz         

 Vector   16  Occ=0.000000D+00  E= 1.761006D+00  Symmetry=a
              MO Center= -8.1D-13,  6.6D-09,  4.8D-13, r^2= 5.4D+00
   Bfn.  Coefficient  Atom+Function         Bfn.  Coefficient  Atom+Function  
  ----- ------------  ---------------      ----- ------------  ---------------
     9      4.719584  1 H  py                44      4.719584  2 H  py         
     3      2.178351  1 H  s                 38     -2.178351  2 H  s          
    27     -1.816788  1 H  fxxy              32     -1.808189  1 H  fyyy       
    34     -1.816788  1 H  fyzz              62     -1.816788  2 H  fxxy       
    67     -1.808189  2 H  fyyy              69     -1.816788  2 H  fyzz       

 Vector   17  Occ=0.000000D+00  E= 1.831980D+00  Symmetry=a
              MO Center= -7.4D-14,  5.4D-11,  1.1D-14, r^2= 4.5D+00
   Bfn.  Coefficient  Atom+Function         Bfn.  Coefficient  Atom+Function  
  ----- ------------  ---------------      ----- ------------  ---------------
     8      6.175250  1 H  px                43      6.175250  2 H  px         
    26     -2.410888  1 H  fxxx              29     -2.409854  1 H  fxyy       
    31     -2.410888  1 H  fxzz              61     -2.410888  2 H  fxxx       
    64     -2.409854  2 H  fxyy              66     -2.410888  2 H  fxzz       
     5     -1.632678  1 H  px                40     -1.632678  2 H  px         

 Vector   18  Occ=0.000000D+00  E= 1.831980D+00  Symmetry=a
              MO Center=  2.2D-15,  5.4D-11,  3.0D-14, r^2= 4.5D+00
   Bfn.  Coefficient  Atom+Function         Bfn.  Coefficient  Atom+Function  
  ----- ------------  ---------------      ----- ------------  ---------------
    10      6.175250  1 H  pz                45      6.175250  2 H  pz         
    28     -2.410888  1 H  fxxz              33     -2.409854  1 H  fyyz       
    35     -2.410888  1 H  fzzz              63     -2.410888  2 H  fxxz       
    68     -2.409854  2 H  fyyz              70     -2.410888  2 H  fzzz       
     7     -1.632678  1 H  pz                42     -1.632678  2 H  pz         

 Vector   19  Occ=0.000000D+00  E= 1.899445D+00  Symmetry=a
              MO Center= -4.4D-15, -3.3D-09,  5.9D-15, r^2= 5.3D+00
   Bfn.  Coefficient  Atom+Function         Bfn.  Coefficient  Atom+Function  
  ----- ------------  ---------------      ----- ------------  ---------------
     9      4.810780  1 H  py                44     -4.810780  2 H  py         
    32     -1.895234  1 H  fyyy              67      1.895234  2 H  fyyy       
    27     -1.883780  1 H  fxxy              34     -1.883780  1 H  fyzz       
    62      1.883780  2 H  fxxy              69      1.883780  2 H  fyzz       
     6     -1.276811  1 H  py                41      1.276811  2 H  py         

 Vector   20  Occ=0.000000D+00  E= 2.047679D+00  Symmetry=a
              MO Center= -7.5D-15, -1.7D-09,  6.1D-15, r^2= 4.6D+00
   Bfn.  Coefficient  Atom+Function         Bfn.  Coefficient  Atom+Function  
  ----- ------------  ---------------      ----- ------------  ---------------
    24      1.213389  1 H  dyz               59     -1.213389  2 H  dyz        
    10     -0.508723  1 H  pz                45     -0.508723  2 H  pz         
    21      0.450530  1 H  dxy               56     -0.450530  2 H  dxy        
    33      0.200006  1 H  fyyz              68      0.200006  2 H  fyyz       
    28      0.198441  1 H  fxxz              35      0.198441  1 H  fzzz       


 Wrote Lagrangian and 1- and 2-particle density matrices to ./H2.mcpdm


     Multipole analysis of the density
     ---------------------------------

     L   x y z        total        nuclear
     -   - - -        -----        -------
     0   0 0 0     -0.000000      2.000000

     1   1 0 0     -0.000000      0.000000
     1   0 1 0     -0.000000      0.000000
     1   0 0 1      0.000000      0.000000

     2   2 0 0     -2.001391      0.000000
     2   1 1 0      0.000000      0.000000
     2   1 0 1     -0.000000      0.000000
     2   0 2 0     -1.972222     23.120000
     2   0 1 1     -0.000000      0.000000
     2   0 0 2     -2.001391      0.000000


  Mulliken analysis of the total density
  --------------------------------------

    Atom       Charge   Shell Charges
 -----------   ------   -------------------------------------------------------
    1 H    1     1.00   0.05  0.22  0.48  0.25  0.00 -0.00  0.00  0.00  0.00  0.00
    2 H    1     1.00   0.05  0.22  0.48  0.25  0.00 -0.00  0.00  0.00  0.00  0.00

    Mulliken analysis of the active space density
    ---------------------------------------------

    Atom       Charge   Shell Charges
 -----------   ------   -------------------------------------------------------
    1 H    1     1.00   0.05  0.22  0.48  0.25  0.00 -0.00  0.00  0.00  0.00  0.00
    2 H    1     1.00   0.05  0.22  0.48  0.25  0.00 -0.00  0.00  0.00  0.00  0.00

 Parallel integral file used       9 records with       0 large values


 Task  times  cpu:        1.2s     wall:        1.4s


                                NWChem Input Module
                                -------------------


                                 NWChem SCF Module
                                 -----------------


                                        H2



  ao basis        = "ao basis"
  functions       =    70
  atoms           =     2
  closed shells   =     1
  open shells     =     0
  charge          =   0.00
  wavefunction    = RHF 
  input vectors   = ./H2.mos
  output vectors  = ./H2-6.80.mos
  use symmetry    = F
  symmetry adapt  = F


 Summary of "ao basis" -> "ao basis" (cartesian)
 ------------------------------------------------------------------------------
       Tag                 Description            Shells   Functions and Types
 ---------------- ------------------------------  ------  ---------------------
 H                          cc-pVQZ                 10       35   4s3p2d1f



 Forming initial guess at       1.4s


 Loading old vectors from job with title :

H2


 Starting SCF solution at       1.4s



 ----------------------------------------------
         Quadratically convergent ROHF

 Convergence threshold     :          1.000E-04
 Maximum no. of iterations :           30
 Final Fock-matrix accuracy:          1.000E-07
 ----------------------------------------------


 Integral file          = ./H2.aoints.0
 Record size in doubles =  65536        No. of integs per rec  =  43688
 Max. records in memory =     99        Max. records in file   = 280249
 No. of bits per label  =      8        No. of bits per value  =     64


 #quartets = 1.409D+04 #integrals = 3.114D+05 #direct =  0.0% #cached =100.0%



       Final RHF  results 
       ------------------ 

         Total SCF energy =     -0.775232422495
      One-electron energy =     -1.303573812221
      Two-electron energy =      0.381282566197
 Nuclear repulsion energy =      0.147058823529

        Time for solution =      0.0s


             Final eigenvalues
             -----------------

              1      
    1   -0.2634
    2   -0.2365
    3   -0.0000
    4   -0.0000
    5   -0.0000
    6   -0.0000
    7   -0.0000
    8   -0.0000
    9   -0.0000
   10   -0.0000
   11    0.4198

                       ROHF Final Molecular Orbital Analysis
                       -------------------------------------

 Vector    1  Occ=2.000000D+00  E=-2.634459D-01
              MO Center=  6.7D-15,  3.2D-12, -4.3D-15, r^2= 4.0D+00
   Bfn.  Coefficient  Atom+Function         Bfn.  Coefficient  Atom+Function  
  ----- ------------  ---------------      ----- ------------  ---------------
     3      0.343135  1 H  s                 38      0.343135  2 H  s          
     4      0.209902  1 H  s                 39      0.209902  2 H  s          
     2      0.177683  1 H  s                 37      0.177683  2 H  s          

 Vector    2  Occ=0.000000D+00  E=-2.364709D-01
              MO Center=  2.7D-14, -2.8D-12, -1.9D-14, r^2= 4.1D+00
   Bfn.  Coefficient  Atom+Function         Bfn.  Coefficient  Atom+Function  
  ----- ------------  ---------------      ----- ------------  ---------------
     3      0.357340  1 H  s                 38     -0.357340  2 H  s          
     4      0.209621  1 H  s                 39     -0.209621  2 H  s          
     2      0.182502  1 H  s                 37     -0.182502  2 H  s          

 Vector    3  Occ=0.000000D+00  E=-2.817250D-05
              MO Center=  1.9D-13,  3.6D-09, -1.2D-13, r^2= 4.2D+00
   Bfn.  Coefficient  Atom+Function         Bfn.  Coefficient  Atom+Function  
  ----- ------------  ---------------      ----- ------------  ---------------
     9      1.844616  1 H  py                44     -1.844616  2 H  py         
    12     -1.012879  1 H  py                47      1.012879  2 H  py         
    32     -0.777907  1 H  fyyy              67      0.777907  2 H  fyyy       
    27     -0.763014  1 H  fxxy              34     -0.763014  1 H  fyzz       
    62      0.763014  2 H  fxxy              69      0.763014  2 H  fyzz       

 Vector    4  Occ=0.000000D+00  E=-7.527214D-06
              MO Center= -1.9D-15, -2.5D-11, -3.1D-14, r^2= 4.2D+00
   Bfn.  Coefficient  Atom+Function         Bfn.  Coefficient  Atom+Function  
  ----- ------------  ---------------      ----- ------------  ---------------
    10      1.597148  1 H  pz                45      1.597148  2 H  pz         
    13     -0.961994  1 H  pz                48     -0.961994  2 H  pz         
    33     -0.701404  1 H  fyyz              68     -0.701404  2 H  fyyz       
    28     -0.673211  1 H  fxxz              35     -0.673211  1 H  fzzz       
    63     -0.673211  2 H  fxxz              70     -0.673211  2 H  fzzz       

 Vector    5  Occ=0.000000D+00  E=-7.527214D-06
              MO Center=  6.4D-14, -2.4D-11,  1.7D-15, r^2= 4.2D+00
   Bfn.  Coefficient  Atom+Function         Bfn.  Coefficient  Atom+Function  
  ----- ------------  ---------------      ----- ------------  ---------------
     8      1.597148  1 H  px                43      1.597148  2 H  px         
    11     -0.961994  1 H  px                46     -0.961994  2 H  px         
    29     -0.701404  1 H  fxyy              64     -0.701404  2 H  fxyy       
    26     -0.673211  1 H  fxxx              31     -0.673211  1 H  fxzz       
    61     -0.673211  2 H  fxxx              66     -0.673211  2 H  fxzz       

 Vector    6  Occ=0.000000D+00  E=-1.040848D-07
              MO Center= -2.5D-13, -1.2D-09,  1.5D-13, r^2= 3.9D+00
   Bfn.  Coefficient  Atom+Function         Bfn.  Coefficient  Atom+Function  
  ----- ------------  ---------------      ----- ------------  ---------------
     9      1.214555  1 H  py                44     -1.214555  2 H  py         
     2      0.596595  1 H  s                 37      0.596595  2 H  s          
     4     -0.524844  1 H  s                 39     -0.524844  2 H  s          
    27     -0.501975  1 H  fxxy              34     -0.501975  1 H  fyzz       
    62      0.501975  2 H  fxxy              69      0.501975  2 H  fyzz       

 Vector    7  Occ=0.000000D+00  E=-6.865311D-08
              MO Center= -1.3D-12,  3.1D-09,  8.0D-13, r^2= 3.2D+00
   Bfn.  Coefficient  Atom+Function         Bfn.  Coefficient  Atom+Function  
  ----- ------------  ---------------      ----- ------------  ---------------
     9      1.430395  1 H  py                44      1.430395  2 H  py         
     3     -0.924306  1 H  s                 38      0.924306  2 H  s          
     2      0.844825  1 H  s                 37     -0.844825  2 H  s          
    27     -0.522687  1 H  fxxy              34     -0.522687  1 H  fyzz       
    62     -0.522687  2 H  fxxy              69     -0.522687  2 H  fyzz       

 Vector    8  Occ=0.000000D+00  E=-3.706195D-08
              MO Center= -2.2D-15,  3.5D-09,  1.2D-15, r^2= 4.1D+00
   Bfn.  Coefficient  Atom+Function         Bfn.  Coefficient  Atom+Function  
  ----- ------------  ---------------      ----- ------------  ---------------
     9      3.022260  1 H  py                44     -3.022260  2 H  py         
    27     -1.331669  1 H  fxxy              34     -1.331669  1 H  fyzz       
    62      1.331669  2 H  fxxy              69      1.331669  2 H  fyzz       
    32     -1.031248  1 H  fyyy              67      1.031248  2 H  fyyy       
     6     -0.746994  1 H  py                41      0.746994  2 H  py         

 Vector    9  Occ=0.000000D+00  E=-1.515467D-08
              MO Center= -3.1D-14,  9.8D-12, -5.1D-13, r^2= 3.1D+00
   Bfn.  Coefficient  Atom+Function         Bfn.  Coefficient  Atom+Function  
  ----- ------------  ---------------      ----- ------------  ---------------
    10      1.432606  1 H  pz                45     -1.432606  2 H  pz         
    28     -0.468998  1 H  fxxz              35     -0.468998  1 H  fzzz       
    63      0.468998  2 H  fxxz              70      0.468998  2 H  fzzz       
    24      0.384017  1 H  dyz               59      0.384017  2 H  dyz        
    33     -0.345110  1 H  fyyz              68      0.345110  2 H  fyyz       

 Vector   10  Occ=0.000000D+00  E=-1.515467D-08
              MO Center=  9.5D-13,  9.3D-12, -6.1D-14, r^2= 3.1D+00
   Bfn.  Coefficient  Atom+Function         Bfn.  Coefficient  Atom+Function  
  ----- ------------  ---------------      ----- ------------  ---------------
     8      1.432606  1 H  px                43     -1.432606  2 H  px         
    26     -0.468998  1 H  fxxx              31     -0.468998  1 H  fxzz       
    61      0.468998  2 H  fxxx              66      0.468998  2 H  fxzz       
    21      0.384017  1 H  dxy               56      0.384017  2 H  dxy        
    29     -0.345110  1 H  fxyy              64      0.345110  2 H  fxyy       

 Vector   11  Occ=0.000000D+00  E= 4.198055D-01
              MO Center=  2.5D-12,  1.3D-09, -1.5D-12, r^2= 8.8D+00
   Bfn.  Coefficient  Atom+Function         Bfn.  Coefficient  Atom+Function  
  ----- ------------  ---------------      ----- ------------  ---------------
     3      2.656984  1 H  s                 38     -2.656985  2 H  s          
     4     -1.595652  1 H  s                 39      1.595652  2 H  s          
     9     -1.209786  1 H  py                44     -1.209786  2 H  py         
     2     -0.650322  1 H  s                 37      0.650322  2 H  s          
    12      0.557791  1 H  py                47      0.557791  2 H  py         

 Vector   12  Occ=0.000000D+00  E= 6.193163D-01
              MO Center= -9.5D-13,  3.8D-09,  5.9D-13, r^2= 6.2D+00
   Bfn.  Coefficient  Atom+Function         Bfn.  Coefficient  Atom+Function  
  ----- ------------  ---------------      ----- ------------  ---------------
     3      1.940993  1 H  s                 38     -1.940993  2 H  s          
     9      1.174397  1 H  py                44      1.174397  2 H  py         
     4     -1.127338  1 H  s                 39      1.127338  2 H  s          
    12     -0.873682  1 H  py                47     -0.873682  2 H  py         
     2     -0.522836  1 H  s                 37      0.522836  2 H  s          


 center of mass
 --------------
 x =   0.00000000 y =   0.00000000 z =   0.00000000

 moments of inertia (a.u.)
 ------------------
          23.300914000000           0.000000000000           0.000000000000
           0.000000000000           0.000000000000           0.000000000000
           0.000000000000           0.000000000000          23.300914000000

  Mulliken analysis of the total density
  --------------------------------------

    Atom       Charge   Shell Charges
 -----------   ------   -------------------------------------------------------
    1 H    1     1.00   0.04  0.21  0.47  0.26 -0.00  0.00 -0.00  0.00  0.00 -0.00
    2 H    1     1.00   0.04  0.21  0.47  0.26 -0.00  0.00 -0.00  0.00  0.00 -0.00

       Multipole analysis of the density wrt the origin
       ------------------------------------------------

     L   x y z        total         open         nuclear
     -   - - -        -----         ----         -------
     0   0 0 0     -0.000000      0.000000      2.000000

     1   1 0 0     -0.000000      0.000000      0.000000
     1   0 1 0     -0.000000      0.000000      0.000000
     1   0 0 1      0.000000      0.000000      0.000000

     2   2 0 0     -2.055307      0.000000      0.000000
     2   1 1 0     -0.000000      0.000000      0.000000
     2   1 0 1      0.000000      0.000000      0.000000
     2   0 2 0     -1.591418      0.000000     23.120000
     2   0 1 1      0.000000      0.000000      0.000000
     2   0 0 2     -2.055307      0.000000      0.000000


 Parallel integral file used       8 records with       0 large values

 ------------------------------------
     Number of active orbitals     10
     Number of active alpha electrons      1
     Number of active beta electrons       1
 ------------------------------------
                   NWChem Extensible Many-Electron Theory Module
                   ---------------------------------------------

              ======================================================
                   This portion of the program was automatically
                  generated by a Tensor Contraction Engine (TCE).
                  The development of this portion of the program
                 and TCE was supported by US Department of Energy,
                Office of Science, Office of Basic Energy Science.
                      TCE is a product of Battelle and PNNL.
              Please cite: S.Hirata, J.Phys.Chem.A 107, 9887 (2003).
              ======================================================

                                        H2


            General Information
            -------------------
      Number of processors :     1
         Wavefunction type : Restricted Hartree-Fock
          No. of electrons :     2
           Alpha electrons :     1
            Beta electrons :     1
           No. of orbitals :   140
            Alpha orbitals :    70
             Beta orbitals :    70
        Alpha frozen cores :     0
         Beta frozen cores :     0
     Alpha frozen virtuals :    60
      Beta frozen virtuals :    60
         Spin multiplicity : singlet 
    Number of AO functions :    70
       Number of AO shells :    20
        Use of symmetry is : off
      Symmetry adaption is : off
         Schwarz screening : 0.10D-09

          Correlation Information
          -----------------------
          Calculation type : Coupled-cluster singles & doubles                           
   Perturbative correction : none                                                        
            Max iterations :      300
        Residual threshold : 0.10D-06
     T(0) DIIS level shift : 0.40D+00
     L(0) DIIS level shift : 0.00D+00
     T(1) DIIS level shift : 0.00D+00
     L(1) DIIS level shift : 0.00D+00
     T(R) DIIS level shift : 0.00D+00
     T(I) DIIS level shift : 0.00D+00
   CC-T/L Amplitude update :  5-th order DIIS
                I/O scheme : Global Array Library
        L-threshold :  0.10D-06
        EOM-threshold :  0.10D-06
 no EOMCCSD initial starts read in
 TCE RESTART OPTIONS
 READ_INT:   F
 WRITE_INT:  F
 READ_TA:    F
 WRITE_TA:   F
 READ_XA:    F
 WRITE_XA:   F
 READ_IN3:   F
 WRITE_IN3:  F
 SLICE:      F
 D4D5:       F
 quantumc:   T
 qrotation:  F
 pwtce:      F
 qducc:      F
 nacto:                         0
 nrotv:                         0
 nrot:                          0

            Memory Information
            ------------------
          Available GA space size is    1610607836 doubles
          Available MA space size is    1610610644 doubles

 Maximum block size supplied by input
 Maximum block size         1 doubles

 tile_dim =      1

 Block   Spin    Irrep     Size     Offset   Alpha
 -------------------------------------------------
   1    alpha     a      1 doubles       0       1
   2    beta      a      1 doubles       1       1
   3    alpha     a      1 doubles       2       3
   4    alpha     a      1 doubles       3       4
   5    alpha     a      1 doubles       4       5
   6    alpha     a      1 doubles       5       6
   7    alpha     a      1 doubles       6       7
   8    alpha     a      1 doubles       7       8
   9    alpha     a      1 doubles       8       9
  10    alpha     a      1 doubles       9      10
  11    alpha     a      1 doubles      10      11
  12    beta      a      1 doubles      11       3
  13    beta      a      1 doubles      12       4
  14    beta      a      1 doubles      13       5
  15    beta      a      1 doubles      14       6
  16    beta      a      1 doubles      15       7
  17    beta      a      1 doubles      16       8
  18    beta      a      1 doubles      17       9
  19    beta      a      1 doubles      18      10
  20    beta      a      1 doubles      19      11

 Global array virtual files algorithm will be used

 Parallel file system coherency ......... OK

 Integral file          = ./H2.aoints.0
 Record size in doubles =  65536        No. of integs per rec  =  43688
 Max. records in memory =     99        Max. records in file   = 280249
 No. of bits per label  =      8        No. of bits per value  =     64


 #quartets = 1.569D+04 #integrals = 3.647D+05 #direct =  0.0% #cached =100.0%


 Fock matrix recomputed
 1-e file size   =              100
 1-e file name   = ./H2.f1
 Cpu & wall time / sec            0.0            0.0
 4-electron integrals stored in orbital form

 v2    file size   =             1540
 4-index algorithm nr.  13 is used
 imaxsize =       30
 imaxsize ichop =        0
 begin_one_electron_integrals
    1    1        -0.6517869061
    3    1         0.0251243594
    6    1        -0.0003872895
    8    1        -0.0006409879
    2    2        -0.6420181464
    7    2        -0.0017976918
    1    3         0.0251243594
    3    3        -0.0631562656
    6    3        -0.0910240233
    7    3         0.0000000004
    8    3        -0.1299851001
    4    4        -0.0019556753
    5    5        -0.0019556753
    1    6        -0.0003872895
    3    6        -0.0910240233
    6    6         0.2220215730
    7    6        -0.0000000023
    8    6         0.3589550866
    2    7        -0.0017976918
    3    7         0.0000000004
    6    7        -0.0000000023
    7    7         0.7094945901
    8    7        -0.0000000026
    1    8        -0.0006409879
    3    8        -0.1299851001
    6    8         0.3589550866
    7    8        -0.0000000026
    8    8         1.3744103892
    9    9         0.6741044965
   10   10         0.6741044965
 end_one_electron_integrals
 begin_two_electron_integrals
    1    1    1    1        0.3812825675
    2    1    2    1        0.2390230513
    3    1    1    1       -0.0068377399
    3    1    3    1        0.0409767029
    3    1    2    2       -0.0044863371
    4    1    4    1        0.0404568349
    5    1    5    1        0.0404568349
    6    1    1    1        0.0852191948
    6    1    3    1       -0.0039193645
    6    1    6    1        0.0632188781
    6    1    2    2        0.0884251546
    6    1    3    3        0.0343721281
    6    1    4    4        0.0326157478
    6    1    5    5        0.0326157478
    7    1    1    1        0.0000000001
    7    1    2    1        0.0742430475
    7    1    7    1        0.0668322658
    7    1    2    2        0.0000000001
    7    1    3    2       -0.0060014729
    7    1    6    2        0.0650250386
    7    1    6    6        0.0000000001
    8    1    1    1       -0.0355756049
    8    1    2    1        0.0000000003
    8    1    3    1       -0.0143256816
    8    1    6    1       -0.0195951418
    8    1    7    1        0.0000000002
    8    1    8    1        0.0352985634
    8    1    2    2       -0.0375875244
    8    1    3    2       -0.0000000001
    8    1    6    2        0.0000000003
    8    1    7    2       -0.0190486343
    8    1    3    3        0.0050372172
    8    1    6    3       -0.0059872466
    8    1    4    4       -0.0135659987
    8    1    5    5       -0.0135659987
    8    1    6    6       -0.0235978305
    8    1    7    6        0.0000000003
    8    1    7    7       -0.0314253016
    9    1    9    1        0.0588694985
    9    1    4    2       -0.0439152710
    9    1    5    2       -0.0038316085
    9    1    7    4        0.0117647654
    9    1    7    5        0.0010264761
   10    1   10    1        0.0588694985
   10    1    4    2        0.0038316085
   10    1    5    2       -0.0439152710
   10    1    7    4       -0.0010264761
   10    1    7    5        0.0117647654
    2    2    1    1        0.3859920052
    2    2    2    2        0.3910817097
    3    2    2    1        0.0195441190
    3    2    3    2        0.0336086738
    4    2    4    2        0.0375402701
    5    2    5    2        0.0375402701
    6    2    2    1        0.0905266318
    6    2    3    2       -0.0034978058
    6    2    6    2        0.0663026332
    7    2    1    1        0.0781159590
    7    2    2    1        0.0000000001
    7    2    3    1       -0.0075572340
    7    2    6    1        0.0652879498
    7    2    2    2        0.0810370728
    7    2    7    2        0.0700676367
    7    2    3    3        0.0280627078
    7    2    6    3       -0.0111080464
    7    2    4    4        0.0255856409
    7    2    5    5        0.0255856409
    7    2    6    6        0.0804368531
    8    2    1    1        0.0000000003
    8    2    2    1       -0.0388096047
    8    2    3    1       -0.0000000002
    8    2    6    1        0.0000000003
    8    2    7    1       -0.0195197184
    8    2    2    2        0.0000000004
    8    2    3    2       -0.0139571758
    8    2    6    2       -0.0211298742
    8    2    7    2        0.0000000002
    8    2    8    2        0.0363936189
    8    2    3    3        0.0000000002
    8    2    7    3       -0.0021641449
    8    2    4    4        0.0000000002
    8    2    5    5        0.0000000002
    8    2    6    6        0.0000000004
    8    2    7    6       -0.0289901228
    8    2    7    7        0.0000000005
    9    2    4    1       -0.0466417518
    9    2    5    1       -0.0040694940
    9    2    9    2        0.0624807842
    9    2    4    3        0.0081044005
    9    2    5    3        0.0007071091
    9    2    6    4        0.0082718690
    9    2    8    4        0.0068293181
    9    2    6    5        0.0007217208
    9    2    8    5        0.0005958582
   10    2    4    1        0.0040694940
   10    2    5    1       -0.0466417518
   10    2   10    2        0.0624807842
   10    2    4    3       -0.0007071091
   10    2    5    3        0.0081044005
   10    2    6    4       -0.0007217208
   10    2    8    4       -0.0005958582
   10    2    6    5        0.0082718690
   10    2    8    5        0.0068293181
    3    3    1    1        0.3079895012
    3    3    2    1       -0.0000000004
    3    3    3    1       -0.0249001245
    3    3    2    2        0.3080714387
    3    3    3    3        0.3126166532
    4    3    4    1       -0.0064721574
    4    3    4    3        0.0145689571
    5    3    5    1       -0.0064721574
    5    3    5    3        0.0145689571
    6    3    1    1       -0.0069678662
    6    3    2    1       -0.0000000001
    6    3    3    1       -0.0067840103
    6    3    6    1       -0.0113294895
    6    3    2    2       -0.0084258001
    6    3    3    3        0.0040356258
    6    3    6    3        0.0156657810
    6    3    4    4        0.0009031747
    6    3    5    5        0.0009031747
    7    3    1    1        0.0000000002
    7    3    2    1       -0.0227819942
    7    3    6    1        0.0000000001
    7    3    7    1       -0.0131699512
    7    3    2    2        0.0000000002
    7    3    3    2       -0.0066326564
    7    3    6    2       -0.0129600166
    7    3    7    2        0.0000000002
    7    3    3    3        0.0000000002
    7    3    7    3        0.0132336872
    7    3    4    4        0.0000000001
    7    3    5    5        0.0000000001
    7    3    6    6        0.0000000002
    8    3    1    1       -0.0481531001
    8    3    2    1       -0.0000000006
    8    3    3    1        0.0330387168
    8    3    6    1       -0.0280655461
    8    3    8    1       -0.0049030235
    8    3    2    2       -0.0478953464
    8    3    3    2       -0.0000000001
    8    3    6    2       -0.0000000002
    8    3    7    2       -0.0279171895
    8    3    8    2       -0.0000000003
    8    3    3    3       -0.0401152468
    8    3    6    3        0.0020031526
    8    3    7    3       -0.0000000001
    8    3    8    3        0.0501107230
    8    3    4    4       -0.0353137667
    8    3    5    5       -0.0353137667
    8    3    6    6       -0.0555542386
    8    3    7    6       -0.0000000003
    8    3    7    7       -0.0669186468
    9    3    9    1       -0.0102951175
    9    3    4    2        0.0075086206
    9    3    5    2        0.0006551273
    9    3    9    3        0.0115151661
    9    3    7    4       -0.0020984897
    9    3    7    5       -0.0001830933
   10    3   10    1       -0.0102951175
   10    3    4    2       -0.0006551273
   10    3    5    2        0.0075086206
   10    3   10    3        0.0115151661
   10    3    7    4        0.0001830933
   10    3    7    5       -0.0020984897
    4    4    1    1        0.3088528968
    4    4    3    1       -0.0184221419
    4    4    2    2        0.3103783794
    4    4    3    3        0.2795529853
    4    4    4    4        0.3050162650
    5    4    5    4        0.0139501416
    6    4    4    1       -0.0152310817
    6    4    4    3        0.0020796328
    6    4    6    4        0.0169915272
    7    4    4    2       -0.0169605380
    7    4    7    4        0.0184152336
    8    4    4    1       -0.0045798408
    8    4    4    3       -0.0010181188
    8    4    6    4        0.0019165237
    8    4    8    4        0.0066888365
    9    4    2    1       -0.1620929562
    9    4    7    1       -0.0378372087
    9    4    8    1       -0.0000000002
    9    4    3    2       -0.0001155824
    9    4    6    2       -0.0508052355
    9    4    8    2        0.0185468878
    9    4    3    3        0.0000000003
    9    4    6    3        0.0000000001
    9    4    7    3        0.0119439599
    9    4    8    3        0.0000000004
    9    4    9    4        0.1379596258
    9    4    6    6       -0.0000000001
    9    4    7    6       -0.1395049098
    9    4    8    6       -0.0000000007
    9    4    7    7        0.0000000005
    9    4    8    7       -0.0007929273
    9    4    8    8       -0.0000000003
   10    4    2    1        0.0141426145
   10    4    7    1        0.0033012974
   10    4    3    2        0.0000100846
   10    4    6    2        0.0044327581
   10    4    8    2       -0.0016182164
   10    4    7    3       -0.0010421108
   10    4    9    4       -0.0110642850
   10    4   10    4        0.0121137314
   10    4    9    5        0.0101830131
   10    4    7    6        0.0121718069
   10    4    8    7        0.0000691829
    5    5    1    1        0.3088528968
    5    5    3    1       -0.0184221419
    5    5    2    2        0.3103783794
    5    5    3    3        0.2795529853
    5    5    4    4        0.2771159817
    5    5    5    5        0.3050162650
    6    5    5    1       -0.0152310817
    6    5    5    3        0.0020796328
    6    5    6    5        0.0169915272
    7    5    5    2       -0.0169605380
    7    5    7    5        0.0184152336
    8    5    5    1       -0.0045798408
    8    5    5    3       -0.0010181188
    8    5    6    5        0.0019165237
    8    5    8    5        0.0066888365
    9    5    2    1       -0.0141426145
    9    5    7    1       -0.0033012974
    9    5    3    2       -0.0000100846
    9    5    6    2       -0.0044327581
    9    5    8    2        0.0016182164
    9    5    7    3        0.0010421108
    9    5    9    4        0.0110642851
    9    5    9    5        0.0121137314
    9    5    7    6       -0.0121718069
    9    5    8    7       -0.0000691829
   10    5    2    1       -0.1620929562
   10    5    7    1       -0.0378372087
   10    5    8    1       -0.0000000002
   10    5    3    2       -0.0001155824
   10    5    6    2       -0.0508052355
   10    5    8    2        0.0185468878
   10    5    3    3        0.0000000003
   10    5    6    3        0.0000000001
   10    5    7    3        0.0119439599
   10    5    8    3        0.0000000004
   10    5    9    4        0.1156628814
   10    5   10    4       -0.0110642851
   10    5    9    5        0.0110642850
   10    5   10    5        0.1379596258
   10    5    6    6       -0.0000000001
   10    5    7    6       -0.1395049098
   10    5    8    6       -0.0000000007
   10    5    7    7        0.0000000005
   10    5    8    7       -0.0007929273
   10    5    8    8       -0.0000000003
    6    6    1    1        0.3507313694
    6    6    2    1        0.0000000001
    6    6    3    1       -0.0278832975
    6    6    6    1        0.0803499340
    6    6    2    2        0.3534215790
    6    6    6    2        0.0000000001
    6    6    3    3        0.2958712304
    6    6    6    3       -0.0030549453
    6    6    4    4        0.2916650547
    6    6    5    5        0.2916650547
    6    6    6    6        0.3473656988
    7    6    1    1       -0.0000000001
    7    6    2    1        0.2059329652
    7    6    3    1        0.0000000001
    7    6    7    1        0.0855727493
    7    6    2    2       -0.0000000001
    7    6    3    2       -0.0021232531
    7    6    6    2        0.0942710927
    7    6    3    3       -0.0000000005
    7    6    7    3       -0.0205052569
    7    6    4    4       -0.0000000002
    7    6    5    5       -0.0000000002
    7    6    7    6        0.2044057666
    8    6    1    1       -0.0046711403
    8    6    2    1        0.0000000010
    8    6    3    1       -0.0283852337
    8    6    6    1       -0.0089445928
    8    6    7    1        0.0000000003
    8    6    8    1        0.0273658223
    8    6    2    2       -0.0067447284
    8    6    6    2        0.0000000005
    8    6    7    2       -0.0088508441
    8    6    3    3        0.0224463001
    8    6    6    3       -0.0018490183
    8    6    8    3       -0.0248220858
    8    6    4    4        0.0133822029
    8    6    5    5        0.0133822029
    8    6    6    6        0.0087623483
    8    6    7    6        0.0000000009
    8    6    8    6        0.0368091616
    8    6    7    7        0.0067457011
    9    6    9    1        0.0165637165
    9    6    4    2       -0.0067052873
    9    6    5    2       -0.0005850365
    9    6    9    3       -0.0040588567
    9    6    7    4       -0.0084294358
    9    6    7    5       -0.0007354685
    9    6    9    6        0.0148893703
   10    6   10    1        0.0165637165
   10    6    4    2        0.0005850365
   10    6    5    2       -0.0067052873
   10    6   10    3       -0.0040588567
   10    6    7    4        0.0007354685
   10    6    7    5       -0.0084294358
   10    6   10    6        0.0148893703
    7    7    1    1        0.3935761170
    7    7    2    1       -0.0000000005
    7    7    3    1       -0.0310777129
    7    7    6    1        0.1063041533
    7    7    2    2        0.3977364093
    7    7    3    2        0.0000000002
    7    7    6    2       -0.0000000001
    7    7    7    2        0.1071076047
    7    7    3    3        0.3159734775
    7    7    6    3       -0.0088910441
    7    7    7    3        0.0000000004
    7    7    4    4        0.3159233740
    7    7    5    5        0.3159233740
    7    7    6    6        0.3888578860
    7    7    7    6       -0.0000000008
    7    7    7    7        0.4454966115
    8    7    1    1        0.0000000002
    8    7    2    1       -0.0185934287
    8    7    6    1        0.0000000002
    8    7    7    1       -0.0118247630
    8    7    8    1       -0.0000000001
    8    7    2    2        0.0000000003
    8    7    3    2       -0.0191962029
    8    7    6    2       -0.0117500095
    8    7    7    2        0.0000000001
    8    7    8    2        0.0256289693
    8    7    7    3       -0.0025293713
    8    7    6    6        0.0000000003
    8    7    7    6       -0.0091647265
    8    7    7    7        0.0000000002
    8    7    8    7        0.0306487998
    9    7    4    1        0.0004029506
    9    7    5    1        0.0000351575
    9    7    9    2        0.0094340292
    9    7    4    3        0.0004723456
    9    7    5    3        0.0000412122
    9    7    6    4       -0.0119025653
    9    7    8    4       -0.0007510497
    9    7    6    5       -0.0010384991
    9    7    8    5       -0.0000655291
    9    7    9    7        0.0173503403
   10    7    4    1       -0.0000351575
   10    7    5    1        0.0004029506
   10    7   10    2        0.0094340292
   10    7    4    3       -0.0000412122
   10    7    5    3        0.0004723456
   10    7    6    4        0.0010384991
   10    7    8    4        0.0000655291
   10    7    6    5       -0.0119025653
   10    7    8    5       -0.0007510497
   10    7   10    7        0.0173503403
    8    8    1    1        0.3664717622
    8    8    2    1        0.0000000002
    8    8    3    1       -0.0286741376
    8    8    6    1        0.0825075509
    8    8    8    1       -0.0018133491
    8    8    2    2        0.3693844080
    8    8    3    2       -0.0000000003
    8    8    6    2        0.0000000002
    8    8    7    2        0.0765919603
    8    8    8    2        0.0000000007
    8    8    3    3        0.3309131848
    8    8    6    3       -0.0140821715
    8    8    7    3        0.0000000003
    8    8    8    3       -0.0710909610
    8    8    4    4        0.3020399536
    8    8    5    5        0.3020399536
    8    8    6    6        0.3504867827
    8    8    8    6        0.0255627038
    8    8    7    7        0.3889323234
    8    8    8    7        0.0000000005
    8    8    8    8        0.4049652416
    9    8    9    1       -0.0121634119
    9    8    4    2        0.0088127508
    9    8    5    2        0.0007689127
    9    8    9    2        0.0000000001
    9    8    9    3       -0.0070422044
    9    8    7    4       -0.0032290354
    9    8    7    5       -0.0002817334
    9    8    9    6       -0.0012925435
    9    8    9    8        0.0157145031
   10    8   10    1       -0.0121634119
   10    8    4    2       -0.0007689127
   10    8    5    2        0.0088127508
   10    8   10    2        0.0000000001
   10    8   10    3       -0.0070422044
   10    8    7    4        0.0002817334
   10    8    7    5       -0.0032290354
   10    8   10    6       -0.0012925435
   10    8   10    8        0.0157145031
    9    9    1    1        0.3935444214
    9    9    3    1       -0.0287387138
    9    9    6    1        0.0853674971
    9    9    8    1       -0.0287400549
    9    9    2    2        0.3976012493
    9    9    7    2        0.0775240599
    9    9    8    2        0.0000000004
    9    9    3    3        0.3207152257
    9    9    6    3       -0.0079866738
    9    9    7    3        0.0000000003
    9    9    8    3       -0.0661464110
    9    9    4    4        0.3460230911
    9    9    5    4        0.0023335121
    9    9    5    5        0.3194815737
    9    9    6    6        0.3641582329
    9    9    7    6       -0.0000000002
    9    9    8    6        0.0135358131
    9    9    7    7        0.4095782083
    9    9    8    7        0.0000000002
    9    9    8    8        0.3832426316
    9    9    9    9        0.4559168633
   10    9    4    4       -0.0023335121
   10    9    5    4        0.0132707587
   10    9    5    5        0.0023335121
   10    9   10    9        0.0220692923
   10   10    1    1        0.3935444214
   10   10    3    1       -0.0287387138
   10   10    6    1        0.0853674971
   10   10    8    1       -0.0287400549
   10   10    2    2        0.3976012493
   10   10    7    2        0.0775240599
   10   10    8    2        0.0000000004
   10   10    3    3        0.3207152257
   10   10    6    3       -0.0079866738
   10   10    7    3        0.0000000003
   10   10    8    3       -0.0661464110
   10   10    4    4        0.3194815737
   10   10    5    4       -0.0023335121
   10   10    5    5        0.3460230911
   10   10    6    6        0.3641582329
   10   10    7    6       -0.0000000002
   10   10    8    6        0.0135358131
   10   10    7    7        0.4095782083
   10   10    8    7        0.0000000002
   10   10    8    8        0.3832426316
   10   10    9    9        0.4117782788
   10   10   10   10        0.4559168633
 end_two_electron_integrals
 enrep_tce =   0.14705882352941174     
  EHF(A)             =        -0.77523242
  EHF(total)         =        -0.77523242
  Shift (HFtot-HFA)  =        -0.00000000
 Cpu & wall time / sec            1.7            1.7
 T1-number-of-tasks                    9

 t1 file size   =                9
 t1 file name   = ./H2.t1
 t1 file handle =       -998
 T2-number-of-boxes                  126

 t2 file size   =              126
 t2 file name   = ./H2.t2
 t2 file handle =       -996
CCSD iterations
 ---------------------------------------------------------
 Iter          Residuum       Correlation     Cpu    Wall 
 ---------------------------------------------------------
NEW TASK SCHEDULING
CCSD_T1_NTS --- OK
CCSD_T2_NTS --- OK
    1   3.0595330526071  -0.6436191712680     0.6     0.6
    2   2.3263850533062  -0.3926840000956     0.4     0.6
    3   3.3664364436149   0.0132808546332     0.5     0.5
    4   4.3733965224371  -0.2013004604455     0.4     0.5
    5 187.5328545507187   1.9972519687303     0.5     0.5
 MICROCYCLE DIIS UPDATE:                    5                    5
    6   1.0975688110493  -0.4236949225445     0.5     0.5
    7   0.7565438633122  -0.2432826712021     0.4     0.5
    8   1.1122708777380  -0.2912164777109     0.1     0.5
    9   1.7919620609160  -0.1476302683773     0.4     0.5
   10   2.9959212256562  -0.0616939367414     0.4     0.5
 MICROCYCLE DIIS UPDATE:                   10                    5
   11   0.1064253924675  -0.2594455108240     0.6     0.6
   12   0.1590138998280  -0.2379584045641     0.5     0.5
   13   0.3625818738461  -0.2348799316168     0.4     0.5
   14   0.8698060231032  -0.2320955270065     0.5     0.5
   15   2.0994961836781  -0.2069509623510     0.3     0.5
 MICROCYCLE DIIS UPDATE:                   15                    5
   16   0.0035381187652  -0.2257462571303     0.5     0.5
   17   0.0063423467473  -0.2251962899540     0.4     0.5
   18   0.0140708561197  -0.2249711859125     0.4     0.5
   19   0.0324588463614  -0.2255303717894     0.3     0.5
   20   0.0747369742678  -0.2230107771971     0.5     0.5
 MICROCYCLE DIIS UPDATE:                   20                    5
   21   0.0002240045695  -0.2249127686033     0.4     0.5
   22   0.0001144767372  -0.2248885551606     0.4     0.5
   23   0.0002119545848  -0.2248802237884     0.3     0.5
   24   0.0005534493247  -0.2248694851938     0.5     0.6
   25   0.0014476957430  -0.2248454952074     0.5     0.5
 MICROCYCLE DIIS UPDATE:                   25                    5
   26   0.0000131949506  -0.2248611407365     0.4     0.5
   27   0.0000280529585  -0.2248589648183     0.4     0.5
   28   0.0000675508747  -0.2248607734508     0.5     0.5
   29   0.0001654571110  -0.2248561412295     0.5     0.5
   30   0.0004077040240  -0.2248651548349     0.6     0.6
 MICROCYCLE DIIS UPDATE:                   30                    5
   31   0.0000002853746  -0.2248588714149     0.2     0.5
   32   0.0000004039156  -0.2248588811867     0.3     0.5
   33   0.0000010548319  -0.2248587975669     0.4     0.6
   34   0.0000027581656  -0.2248589001161     0.4     0.6
   35   0.0000072230356  -0.2248586319368     0.3     0.6
 MICROCYCLE DIIS UPDATE:                   35                    5
   36   0.0000000366030  -0.2248588178692     0.4     0.6
 -----------------------------------------------------------------
 Iterations converged
 CCSD correlation energy / hartree =        -0.224858817869178
 CCSD total energy / hartree       =        -1.000091240364268

 Singles contributions

 Doubles contributions
     2a   (alpha)     2a   (beta ) ---     1a   (alpha)     1a   (beta )       -0.9382154337
 Ground state specification:
 exp(T)|Ref>~(1+T)|Ref>
 ------- a(p)+/a(q) strings ----------

 singles norm

 doubles norm

 Reference string
  0.72927681902902219      :(1a)+ (1b)+ |0>

 Singles strings

 Doubles strings
 -0.68421876708177976      :(2a)+ (2b)+ (1b)  (1a)  (1a)+ (1b)+ |0>
 -------------------------------------

 Parallel integral file used       9 records with       0 large values


 Task  times  cpu:       17.3s     wall:       22.0s


                                NWChem Input Module
                                -------------------


 Summary of allocated global arrays
-----------------------------------
  No active global arrays


MA_summarize_allocated_blocks: starting scan ...
MA_summarize_allocated_blocks: scan completed: 0 heap blocks, 0 stack blocks
MA usage statistics:

	allocation statistics:
					      heap	     stack
					      ----	     -----
	current number of blocks	         0	         0
	maximum number of blocks	        18	        42
	current total bytes		         0	         0
	maximum total bytes		  51983048	  61995224
	maximum total K-bytes		     51984	     61996
	maximum total M-bytes		        52	        62


                                     CITATION
                                     --------
                Please cite the following reference when publishing
                           results obtained with NWChem:

          E. Apra, E. J. Bylaska, W. A. de Jong, N. Govind, K. Kowalski,
       T. P. Straatsma, M. Valiev, H. J. J. van Dam, Y. Alexeev, J. Anchell,
       V. Anisimov, F. W. Aquino, R. Atta-Fynn, J. Autschbach, N. P. Bauman,
     J. C. Becca, D. E. Bernholdt, K. Bhaskaran-Nair, S. Bogatko, P. Borowski,
         J. Boschen, J. Brabec, A. Bruner, E. Cauet, Y. Chen, G. N. Chuev,
      C. J. Cramer, J. Daily, M. J. O. Deegan, T. H. Dunning Jr., M. Dupuis,
   K. G. Dyall, G. I. Fann, S. A. Fischer, A. Fonari, H. Fruchtl, L. Gagliardi,
      J. Garza, N. Gawande, S. Ghosh, K. Glaesemann, A. W. Gotz, J. Hammond,
       V. Helms, E. D. Hermes, K. Hirao, S. Hirata, M. Jacquelin, L. Jensen,
   B. G. Johnson, H. Jonsson, R. A. Kendall, M. Klemm, R. Kobayashi, V. Konkov,
      S. Krishnamoorthy, M. Krishnan, Z. Lin, R. D. Lins, R. J. Littlefield,
      A. J. Logsdail, K. Lopata, W. Ma, A. V. Marenich, J. Martin del Campo,
   D. Mejia-Rodriguez, J. E. Moore, J. M. Mullin, T. Nakajima, D. R. Nascimento,
    J. A. Nichols, P. J. Nichols, J. Nieplocha, A. Otero-de-la-Roza, B. Palmer,
    A. Panyala, T. Pirojsirikul, B. Peng, R. Peverati, J. Pittner, L. Pollack,
   R. M. Richard, P. Sadayappan, G. C. Schatz, W. A. Shelton, D. W. Silverstein,
   D. M. A. Smith, T. A. Soares, D. Song, M. Swart, H. L. Taylor, G. S. Thomas,
            V. Tipparaju, D. G. Truhlar, K. Tsemekhman, T. Van Voorhis,
      A. Vazquez-Mayagoitia, P. Verma, O. Villa, A. Vishnu, K. D. Vogiatzis,
        D. Wang, J. H. Weare, M. J. Williamson, T. L. Windus, K. Wolinski,
        A. T. Wong, Q. Wu, C. Yang, Q. Yu, M. Zacharias, Z. Zhang, Y. Zhao,
                                and R. J. Harrison
                        "NWChem: Past, present, and future
                         J. Chem. Phys. 152, 184102 (2020)
                               doi:10.1063/5.0004997

                                      AUTHORS
                                      -------
  E. Apra, E. J. Bylaska, N. Govind, K. Kowalski, M. Valiev, D. Mejia-Rodriguez,
       A. Kunitsa, N. P. Bauman, A. Panyala, W. A. de Jong, T. P. Straatsma,
        H. J. J. van Dam, D. Wang, T. L. Windus, J. Hammond, J. Autschbach,
    K. Bhaskaran-Nair, J. Brabec, K. Lopata, S. A. Fischer, S. Krishnamoorthy,
     M. Jacquelin, W. Ma, M. Klemm, O. Villa, Y. Chen, V. Anisimov, F. Aquino,
    S. Hirata, M. T. Hackler, Eric Hermes, L. Jensen, J. E. Moore, J. C. Becca,
      V. Konjkov, T. Risthaus, M. Malagoli, A. Marenich, A. Otero-de-la-Roza,
        J. Mullin, P. Nichols, R. Peverati, J. Pittner, Y. Zhao, P.-D. Fan,
        A. Fonari, M. J. Williamson, R. J. Harrison, J. R. Rehr, M. Dupuis,
     D. Silverstein, D. M. A. Smith, J. Nieplocha, V. Tipparaju, M. Krishnan,
     B. E. Van Kuiken, A. Vazquez-Mayagoitia, M. Swart, Q. Wu, T. Van Voorhis,
     A. A. Auer, M. Nooijen, L. D. Crosby, E. Brown, G. Cisneros, G. I. Fann,
   H. Fruchtl, J. Garza, K. Hirao, R. A. Kendall, J. A. Nichols, K. Tsemekhman,
    K. Wolinski, J. Anchell, D. E. Bernholdt, P. Borowski, T. Clark, D. Clerc,
   H. Dachsel, M. J. O. Deegan, K. Dyall, D. Elwood, E. Glendening, M. Gutowski,
   A. C. Hess, J. Jaffe, B. G. Johnson, J. Ju, R. Kobayashi, R. Kutteh, Z. Lin,
   R. Littlefield, X. Long, B. Meng, T. Nakajima, S. Niu, L. Pollack, M. Rosing,
   K. Glaesemann, G. Sandrone, M. Stave, H. Taylor, G. Thomas, J. H. van Lenthe,
                               A. T. Wong, Z. Zhang.

 Total times  cpu:       18.5s     wall:       23.4s
