 argument  1 = input.nw
  NWChem w/ OpenMP: maximum threads =    1



============================== echo of input deck ==============================
 echo
 start H2
 title "H2"

 memory total 24 gb

 geometry units bohr
 symmetry c1
        H  0.00000000  0.00000000  0.00000000
        H  0.00000000  3.15  0.00000000
 end

 basis
   * library cc-pVQZ
 end

 mcscf
   active  10
   actelec 2
   multiplicity 1
   maxiter 40
   vectors input H2.mos
   vectors output H2.mos
 end

 task mcscf

 scf
   vectors input H2.mos
   vectors output H2-3.15.mos
   noscf
 end

 tce
   2eorb
   2emet 13
   ccsd
   maxiter 300
 end

 set tce:print_integrals T
 set tce:qorb 10
 set tce:qela 1
 set tce:qelb 1

# set tce:qducc T
# set tce:nactv 1
# set tce:nonhf T
# set tce:ducc_model 6

 set tce:printtol 0.02

 task tce
================================================================================


                                         
                                         


             Northwest Computational Chemistry Package (NWChem) 7.0.1
             --------------------------------------------------------


                    Environmental Molecular Sciences Laboratory
                       Pacific Northwest National Laboratory
                                Richland, WA 99352

                              Copyright (c) 1994-2020
                       Pacific Northwest National Laboratory
                            Battelle Memorial Institute

             NWChem is an open-source computational chemistry package
                        distributed under the terms of the
                      Educational Community License (ECL) 2.0
             A copy of the license is included with this distribution
                              in the LICENSE.TXT file

                                  ACKNOWLEDGMENT
                                  --------------

            This software and its documentation were developed at the
            EMSL at Pacific Northwest National Laboratory, a multiprogram
            national laboratory, operated for the U.S. Department of Energy
            by Battelle under Contract Number DE-AC05-76RL01830. Support
            for this work was provided by the Department of Energy Office
            of Biological and Environmental Research, Office of Basic
            Energy Sciences, and the Office of Advanced Scientific Computing.


           Job information
           ---------------

    hostname        = WE46210
    program         = /home/baum612/code/nwchem/bin/LINUX64/nwchem
    date            = Thu Nov  9 15:59:52 2023

    compiled        = Mon_Nov_06_10:06:57_2023
    source          = /home/baum612/code/nwchem
    nwchem branch   = 7.0.0
    nwchem revision = nwchem_on_git-4191-g39d87d64de
    ga revision     = 5.8.1
    use scalapack   = F
    input           = input.nw
    prefix          = H2.
    data base       = ./H2.db
    status          = startup
    nproc           =        1
    time left       =     -1s



           Memory information
           ------------------

    heap     =  805306362 doubles =   6144.0 Mbytes
    stack    =  805306367 doubles =   6144.0 Mbytes
    global   = 1610612736 doubles =  12288.0 Mbytes (distinct from heap & stack)
    total    = 3221225465 doubles =  24576.0 Mbytes
    verify   = yes
    hardfail = no 


           Directory information
           ---------------------

  0 permanent = .
  0 scratch   = .




                                NWChem Input Module
                                -------------------


                                        H2
                                        --
 Turning off AUTOSYM since
 SYMMETRY directive was detected!


          ------
          auto-z
          ------
     1 autoz failed with cvr_scaling = 1.2 changing to 1.3
     2 autoz failed with cvr_scaling = 1.3 changing to 1.4
     3 autoz failed with cvr_scaling = 1.4 changing to 1.5
     4 autoz failed with cvr_scaling = 1.5 changing to 1.6
     5 autoz failed with cvr_scaling = 1.6 changing to 1.7

 AUTOZ failed to generate good internal coordinates.
 Cartesian coordinates will be used in optimizations.



                             Geometry "geometry" -> ""
                             -------------------------

 Output coordinates in a.u. (scale by  1.000000000 to convert to a.u.)

  No.       Tag          Charge          X              Y              Z
 ---- ---------------- ---------- -------------- -------------- --------------
    1 H                    1.0000     0.00000000    -1.57500000     0.00000000
    2 H                    1.0000     0.00000000     1.57500000     0.00000000

      Atomic Mass 
      ----------- 

      H                  1.007825


 Effective nuclear repulsion energy (a.u.)       0.3174603175

            Nuclear Dipole moment (a.u.) 
            ----------------------------
        X                 Y               Z
 ---------------- ---------------- ----------------
     0.0000000000     0.0000000000     0.0000000000


            XYZ format geometry
            -------------------
     2
 geometry
 H                     0.00000000    -0.83345417     0.00000000
 H                     0.00000000     0.83345417     0.00000000



 Summary of "ao basis" -> "" (cartesian)
 ------------------------------------------------------------------------------
       Tag                 Description            Shells   Functions and Types
 ---------------- ------------------------------  ------  ---------------------
 *                          cc-pVQZ                   on all atoms 


                      Basis "ao basis" -> "ao basis" (cartesian)
                      -----
  H (Hydrogen)
  ------------
            Exponent  Coefficients 
       -------------- ---------------------------------------------------------
  1 S  8.26400000E+01  0.002006
  1 S  1.24100000E+01  0.015343
  1 S  2.82400000E+00  0.075579

  2 S  7.97700000E-01  1.000000

  3 S  2.58100000E-01  1.000000

  4 S  8.98900000E-02  1.000000

  5 P  2.29200000E+00  1.000000

  6 P  8.38000000E-01  1.000000

  7 P  2.92000000E-01  1.000000

  8 D  2.06200000E+00  1.000000

  9 D  6.62000000E-01  1.000000

 10 F  1.39700000E+00  1.000000



 Summary of "ao basis" -> "ao basis" (cartesian)
 ------------------------------------------------------------------------------
       Tag                 Description            Shells   Functions and Types
 ---------------- ------------------------------  ------  ---------------------
 H                          cc-pVQZ                 10       35   4s3p2d1f



                            NWChem Direct MCSCF Module
                            --------------------------


                                        H2


     -----------------------------------
       Basis functions:             70
       Inactive shells:              0
       Active shells:               10
       Active electrons:             2
       Symmetry:                    a       
       Multiplicity:                 1
       Orbital rotations:          600
     -----------------------------------

     -----------------------------------
       E2 extrapolation:             F
       Conjugacy:                    T
       Micro CI relax:               T
       Canonical orbitals:           T
       Maximum iterations:          40
       Converge threshold:    1.00E-04
       Conjugacy resets:            20
       Initial levelshift:        0.10
     -----------------------------------

 Loading old vectors from job with title :

H2


   input molecular orbitals = ./H2.mos
  output molecular orbtials = ./H2.mos

       No. of determinants:           100


  Starting Orbital Energies
    -0.432032    -0.074970    -0.001856    -0.001479    -0.001479    -0.000200
    -0.000113    -0.000104    -0.000104    -0.000047     0.478805     0.828094
     1.052230     1.401609     1.401609     1.617721     1.617721     1.920940
     1.920940     1.931835     2.004372     2.004372     2.184748     2.184748
     2.322933     2.575759     2.575759     2.929004     2.981956     3.465996
     4.399806     4.399806     4.442538     4.442538     4.535290     4.712306
     5.701251     5.785426     5.785426     5.956023     5.956023     6.057798
     6.057798     6.080444     6.080444     6.193183     6.193183     6.612664
     6.612664     7.461122     8.092056     8.092056     8.117909     8.117909
     8.198188     8.198188     8.500602     8.526766     8.526766     9.225161
     9.611079     9.719817     9.719817     9.737105     9.737105     9.840303
     9.965066    10.035292    22.699632    23.313497

  Orbital Symmetry Irreps
a    a    a    a    a    a    a    a    a    a    a    a    a    a    a   
a    a    a    a    a    a    a    a    a    a    a    a    a    a    a   
a    a    a    a    a    a    a    a    a    a    a    a    a    a    a   
a    a    a    a    a    a    a    a    a    a    a    a    a    a    a   
a    a    a    a    a    a    a    a    a    a   

 Integral file          = ./H2.aoints.0
 Record size in doubles =  65536        No. of integs per rec  =  43688
 Max. records in memory =     99        Max. records in file   = 280222
 No. of bits per label  =      8        No. of bits per value  =     64


 #quartets = 2.215D+04 #integrals = 8.571D+05 #direct =  0.0% #cached =100.0%




          %%%%% MacroIteration   1 %%%%%


          Number of sigma calls:       13
                       o<<<<< (aa):             0.00
                       o<<<<< (bb):             0.00
                       o<<<<< (ab):             0.01
                       o<<<<< (total)           0.01
                       o<<<<< (aa) ff           0.00
                       o<<<<< (aa) gop          0.00
                       o<<<<< (aa) dot          0.00
                       o<<<<< (ab) str          0.00
                       o<<<<< (ab) gath         0.00
                       o<<<<< (ab) dotab        0.00
                       o<<<<< (ab) scat         0.00
                       o<<<<< (ab) sync         0.00
                       o<<<<< Density           0.00
                       o<<<<< Density one       0.00
                       o<<<<< Density two       0.00
                       o<<<<< Density ab        0.00
                       o<<<<< Spin adapt        0.00
                       o<<<<< Symm adapt        0.00

                       o<<<<< (ab) max sync:      0.00

           >>>| Valence CI:             -1.364746606286
           >>>| MCSCF energy:           -1.047286288826
           >>>| Gradient norm:          0.391910998D-02
     --- Warning:  374 Hessian diagonals < 0.05 ---

                              ----- Line search ------

        step       energy         lsg     num-lsg   num-lsh   lsrat    time
      ------- ---------------- --------- --------- --------- ------- --------
       0.0000      -1.04728629 -2.28D-06  0.00D+00  0.00D+00 0.0D+00      0.5

          Number of sigma calls:       13
                       o<<<<< (aa):             0.00
                       o<<<<< (bb):             0.00
                       o<<<<< (ab):             0.00
                       o<<<<< (total)           0.00
                       o<<<<< (aa) ff           0.00
                       o<<<<< (aa) gop          0.00
                       o<<<<< (aa) dot          0.00
                       o<<<<< (ab) str          0.00
                       o<<<<< (ab) gath         0.00
                       o<<<<< (ab) dotab        0.00
                       o<<<<< (ab) scat         0.00
                       o<<<<< (ab) sync         0.00
                       o<<<<< Density           0.00
                       o<<<<< Density one       0.00
                       o<<<<< Density two       0.00
                       o<<<<< Density ab        0.00
                       o<<<<< Spin adapt        0.00
                       o<<<<< Symm adapt        0.00

                       o<<<<< (ab) max sync:      0.00
       1.0000      -1.04728774 -6.18D-07 -6.18D-07  1.66D-06 2.7D-01      0.6

          Number of sigma calls:       11
                       o<<<<< (aa):             0.00
                       o<<<<< (bb):             0.00
                       o<<<<< (ab):             0.00
                       o<<<<< (total)           0.00
                       o<<<<< (aa) ff           0.00
                       o<<<<< (aa) gop          0.00
                       o<<<<< (aa) dot          0.00
                       o<<<<< (ab) str          0.00
                       o<<<<< (ab) gath         0.00
                       o<<<<< (ab) dotab        0.00
                       o<<<<< (ab) scat         0.00
                       o<<<<< (ab) sync         0.00
                       o<<<<< Density           0.00
                       o<<<<< Density one       0.00
                       o<<<<< Density two       0.00
                       o<<<<< Density ab        0.00
                       o<<<<< Spin adapt        0.00
                       o<<<<< Symm adapt        0.00

                       o<<<<< (ab) max sync:      0.00
       1.3720      -1.04728785  7.29D-10  6.98D-10  1.66D-06 3.2D-04      0.7
     --- Orbitals canonicalized ---



          %%%%% MacroIteration   2 %%%%%


          Number of sigma calls:       13
                       o<<<<< (aa):             0.00
                       o<<<<< (bb):             0.00
                       o<<<<< (ab):             0.00
                       o<<<<< (total)           0.00
                       o<<<<< (aa) ff           0.00
                       o<<<<< (aa) gop          0.00
                       o<<<<< (aa) dot          0.00
                       o<<<<< (ab) str          0.00
                       o<<<<< (ab) gath         0.00
                       o<<<<< (ab) dotab        0.00
                       o<<<<< (ab) scat         0.00
                       o<<<<< (ab) sync         0.00
                       o<<<<< Density           0.00
                       o<<<<< Density one       0.00
                       o<<<<< Density two       0.00
                       o<<<<< Density ab        0.00
                       o<<<<< Spin adapt        0.00
                       o<<<<< Symm adapt        0.00

                       o<<<<< (ab) max sync:      0.00

           >>>| Valence CI:             -1.364748170534
           >>>| MCSCF energy:           -1.047287853073
           >>>| Gradient norm:          0.123500158D-02
     --- Warning:  374 Hessian diagonals < 0.05 ---
     --- Conjugacy reset ---

                              ----- Line search ------

        step       energy         lsg     num-lsg   num-lsh   lsrat    time
      ------- ---------------- --------- --------- --------- ------- --------
       0.0000      -1.04728785 -1.47D-07  0.00D+00  0.00D+00 0.0D+00      0.8

          Number of sigma calls:       10
                       o<<<<< (aa):             0.00
                       o<<<<< (bb):             0.00
                       o<<<<< (ab):             0.00
                       o<<<<< (total)           0.00
                       o<<<<< (aa) ff           0.00
                       o<<<<< (aa) gop          0.00
                       o<<<<< (aa) dot          0.00
                       o<<<<< (ab) str          0.00
                       o<<<<< (ab) gath         0.00
                       o<<<<< (ab) dotab        0.00
                       o<<<<< (ab) scat         0.00
                       o<<<<< (ab) sync         0.00
                       o<<<<< Density           0.00
                       o<<<<< Density one       0.00
                       o<<<<< Density two       0.00
                       o<<<<< Density ab        0.00
                       o<<<<< Spin adapt        0.00
                       o<<<<< Symm adapt        0.00

                       o<<<<< (ab) max sync:      0.00
       1.0000      -1.04728795 -5.51D-08 -5.51D-08  9.16D-08 3.8D-01      0.9

          Number of sigma calls:       10
                       o<<<<< (aa):             0.00
                       o<<<<< (bb):             0.00
                       o<<<<< (ab):             0.01
                       o<<<<< (total)           0.01
                       o<<<<< (aa) ff           0.00
                       o<<<<< (aa) gop          0.00
                       o<<<<< (aa) dot          0.00
                       o<<<<< (ab) str          0.00
                       o<<<<< (ab) gath         0.00
                       o<<<<< (ab) dotab        0.00
                       o<<<<< (ab) scat         0.00
                       o<<<<< (ab) sync         0.00
                       o<<<<< Density           0.00
                       o<<<<< Density one       0.00
                       o<<<<< Density two       0.00
                       o<<<<< Density ab        0.00
                       o<<<<< Spin adapt        0.00
                       o<<<<< Symm adapt        0.00

                       o<<<<< (ab) max sync:      0.00
       1.6018      -1.04728797  1.17D-11  1.02D-11  9.16D-08 8.0D-05      1.0



          %%%%% MacroIteration   3 %%%%%


          Number of sigma calls:        1
                       o<<<<< (aa):             0.00
                       o<<<<< (bb):             0.00
                       o<<<<< (ab):             0.00
                       o<<<<< (total)           0.00
                       o<<<<< (aa) ff           0.00
                       o<<<<< (aa) gop          0.00
                       o<<<<< (aa) dot          0.00
                       o<<<<< (ab) str          0.00
                       o<<<<< (ab) gath         0.00
                       o<<<<< (ab) dotab        0.00
                       o<<<<< (ab) scat         0.00
                       o<<<<< (ab) sync         0.00
                       o<<<<< Density           0.00
                       o<<<<< Density one       0.00
                       o<<<<< Density two       0.00
                       o<<<<< Density ab        0.00
                       o<<<<< Spin adapt        0.00
                       o<<<<< Symm adapt        0.00

                       o<<<<< (ab) max sync:      0.00

           >>>| Valence CI:             -1.364748288067
           >>>| MCSCF energy:           -1.047287970606
           >>>| Gradient norm:          0.714798848D-03
     --- Warning:  374 Hessian diagonals < 0.05 ---

                              ----- Line search ------

        step       energy         lsg     num-lsg   num-lsh   lsrat    time
      ------- ---------------- --------- --------- --------- ------- --------
       0.0000      -1.04728797 -4.29D-08  0.00D+00  0.00D+00 0.0D+00      1.1

          Number of sigma calls:        9
                       o<<<<< (aa):             0.00
                       o<<<<< (bb):             0.00
                       o<<<<< (ab):             0.00
                       o<<<<< (total)           0.00
                       o<<<<< (aa) ff           0.00
                       o<<<<< (aa) gop          0.00
                       o<<<<< (aa) dot          0.00
                       o<<<<< (ab) str          0.00
                       o<<<<< (ab) gath         0.00
                       o<<<<< (ab) dotab        0.00
                       o<<<<< (ab) scat         0.00
                       o<<<<< (ab) sync         0.00
                       o<<<<< Density           0.00
                       o<<<<< Density one       0.00
                       o<<<<< Density two       0.00
                       o<<<<< Density ab        0.00
                       o<<<<< Spin adapt        0.00
                       o<<<<< Symm adapt        0.00

                       o<<<<< (ab) max sync:      0.00
       1.0000      -1.04728800 -1.75D-08 -1.75D-08  2.54D-08 4.1D-01      1.2

          Number of sigma calls:        8
                       o<<<<< (aa):             0.00
                       o<<<<< (bb):             0.00
                       o<<<<< (ab):             0.01
                       o<<<<< (total)           0.01
                       o<<<<< (aa) ff           0.00
                       o<<<<< (aa) gop          0.00
                       o<<<<< (aa) dot          0.00
                       o<<<<< (ab) str          0.00
                       o<<<<< (ab) gath         0.00
                       o<<<<< (ab) dotab        0.00
                       o<<<<< (ab) scat         0.00
                       o<<<<< (ab) sync         0.00
                       o<<<<< Density           0.00
                       o<<<<< Density one       0.00
                       o<<<<< Density two       0.00
                       o<<<<< Density ab        0.00
                       o<<<<< Spin adapt        0.00
                       o<<<<< Symm adapt        0.00

                       o<<<<< (ab) max sync:      0.00
       1.6900      -1.04728801  1.59D-12  1.48D-12  2.54D-08 3.7D-05      1.4



          %%%%% MacroIteration   4 %%%%%


          Number of sigma calls:        1
                       o<<<<< (aa):             0.00
                       o<<<<< (bb):             0.00
                       o<<<<< (ab):             0.00
                       o<<<<< (total)           0.00
                       o<<<<< (aa) ff           0.00
                       o<<<<< (aa) gop          0.00
                       o<<<<< (aa) dot          0.00
                       o<<<<< (ab) str          0.00
                       o<<<<< (ab) gath         0.00
                       o<<<<< (ab) dotab        0.00
                       o<<<<< (ab) scat         0.00
                       o<<<<< (ab) sync         0.00
                       o<<<<< Density           0.00
                       o<<<<< Density one       0.00
                       o<<<<< Density two       0.00
                       o<<<<< Density ab        0.00
                       o<<<<< Spin adapt        0.00
                       o<<<<< Symm adapt        0.00

                       o<<<<< (ab) max sync:      0.00

           >>>| Valence CI:             -1.364748324357
           >>>| MCSCF energy:           -1.047288006897
           >>>| Gradient norm:          0.493947111D-03
     --- Warning:  374 Hessian diagonals < 0.05 ---

                              ----- Line search ------

        step       energy         lsg     num-lsg   num-lsh   lsrat    time
      ------- ---------------- --------- --------- --------- ------- --------
       0.0000      -1.04728801 -2.07D-08  0.00D+00  0.00D+00 0.0D+00      1.5

          Number of sigma calls:        9
                       o<<<<< (aa):             0.00
                       o<<<<< (bb):             0.00
                       o<<<<< (ab):             0.01
                       o<<<<< (total)           0.01
                       o<<<<< (aa) ff           0.00
                       o<<<<< (aa) gop          0.00
                       o<<<<< (aa) dot          0.00
                       o<<<<< (ab) str          0.00
                       o<<<<< (ab) gath         0.00
                       o<<<<< (ab) dotab        0.00
                       o<<<<< (ab) scat         0.00
                       o<<<<< (ab) sync         0.00
                       o<<<<< Density           0.00
                       o<<<<< Density one       0.00
                       o<<<<< Density two       0.00
                       o<<<<< Density ab        0.00
                       o<<<<< Spin adapt        0.00
                       o<<<<< Symm adapt        0.00

                       o<<<<< (ab) max sync:      0.00
       1.0000      -1.04728803 -1.65D-08 -1.65D-08  4.21D-09 8.0D-01      1.6

          Number of sigma calls:       10
                       o<<<<< (aa):             0.00
                       o<<<<< (bb):             0.00
                       o<<<<< (ab):             0.01
                       o<<<<< (total)           0.01
                       o<<<<< (aa) ff           0.00
                       o<<<<< (aa) gop          0.00
                       o<<<<< (aa) dot          0.00
                       o<<<<< (ab) str          0.00
                       o<<<<< (ab) gath         0.00
                       o<<<<< (ab) dotab        0.00
                       o<<<<< (ab) scat         0.00
                       o<<<<< (ab) sync         0.00
                       o<<<<< Density           0.00
                       o<<<<< Density one       0.00
                       o<<<<< Density two       0.00
                       o<<<<< Density ab        0.00
                       o<<<<< Spin adapt        0.00
                       o<<<<< Symm adapt        0.00

                       o<<<<< (ab) max sync:      0.00
       4.9152      -1.04728806  2.34D-11  2.03D-11  4.22D-09 1.1D-03      1.8



          %%%%% MacroIteration   5 %%%%%


          Number of sigma calls:        1
                       o<<<<< (aa):             0.00
                       o<<<<< (bb):             0.00
                       o<<<<< (ab):             0.00
                       o<<<<< (total)           0.00
                       o<<<<< (aa) ff           0.00
                       o<<<<< (aa) gop          0.00
                       o<<<<< (aa) dot          0.00
                       o<<<<< (ab) str          0.00
                       o<<<<< (ab) gath         0.00
                       o<<<<< (ab) dotab        0.00
                       o<<<<< (ab) scat         0.00
                       o<<<<< (ab) sync         0.00
                       o<<<<< Density           0.00
                       o<<<<< Density one       0.00
                       o<<<<< Density two       0.00
                       o<<<<< Density ab        0.00
                       o<<<<< Spin adapt        0.00
                       o<<<<< Symm adapt        0.00

                       o<<<<< (ab) max sync:      0.00

           >>>| Valence CI:             -1.364748375215
           >>>| MCSCF energy:           -1.047288057755
           >>>| Gradient norm:          0.207982426D-03
     --- Warning:  374 Hessian diagonals < 0.05 ---

                              ----- Line search ------

        step       energy         lsg     num-lsg   num-lsh   lsrat    time
      ------- ---------------- --------- --------- --------- ------- --------
       0.0000      -1.04728806 -3.21D-07  0.00D+00  0.00D+00 0.0D+00      2.1

          Number of sigma calls:        9
                       o<<<<< (aa):             0.00
                       o<<<<< (bb):             0.00
                       o<<<<< (ab):             0.01
                       o<<<<< (total)           0.01
                       o<<<<< (aa) ff           0.00
                       o<<<<< (aa) gop          0.00
                       o<<<<< (aa) dot          0.00
                       o<<<<< (ab) str          0.00
                       o<<<<< (ab) gath         0.00
                       o<<<<< (ab) dotab        0.00
                       o<<<<< (ab) scat         0.00
                       o<<<<< (ab) sync         0.00
                       o<<<<< Density           0.00
                       o<<<<< Density one       0.00
                       o<<<<< Density two       0.00
                       o<<<<< Density ab        0.00
                       o<<<<< Spin adapt        0.00
                       o<<<<< Symm adapt        0.00

                       o<<<<< (ab) max sync:      0.00
       1.0000      -1.04728828 -1.26D-07 -1.27D-07  1.94D-07 3.9D-01      2.3

          Number of sigma calls:        8
                       o<<<<< (aa):             0.00
                       o<<<<< (bb):             0.00
                       o<<<<< (ab):             0.00
                       o<<<<< (total)           0.00
                       o<<<<< (aa) ff           0.00
                       o<<<<< (aa) gop          0.00
                       o<<<<< (aa) dot          0.00
                       o<<<<< (ab) str          0.00
                       o<<<<< (ab) gath         0.00
                       o<<<<< (ab) dotab        0.00
                       o<<<<< (ab) scat         0.00
                       o<<<<< (ab) sync         0.00
                       o<<<<< Density           0.00
                       o<<<<< Density one       0.00
                       o<<<<< Density two       0.00
                       o<<<<< Density ab        0.00
                       o<<<<< Spin adapt        0.00
                       o<<<<< Symm adapt        0.00

                       o<<<<< (ab) max sync:      0.00
       1.6506      -1.04728832  3.13D-09  2.95D-09  1.99D-07 9.8D-03      2.5



          %%%%% MacroIteration   6 %%%%%


          Number of sigma calls:        1
                       o<<<<< (aa):             0.00
                       o<<<<< (bb):             0.00
                       o<<<<< (ab):             0.00
                       o<<<<< (total)           0.00
                       o<<<<< (aa) ff           0.00
                       o<<<<< (aa) gop          0.00
                       o<<<<< (aa) dot          0.00
                       o<<<<< (ab) str          0.00
                       o<<<<< (ab) gath         0.00
                       o<<<<< (ab) dotab        0.00
                       o<<<<< (ab) scat         0.00
                       o<<<<< (ab) sync         0.00
                       o<<<<< Density           0.00
                       o<<<<< Density one       0.00
                       o<<<<< Density two       0.00
                       o<<<<< Density ab        0.00
                       o<<<<< Spin adapt        0.00
                       o<<<<< Symm adapt        0.00

                       o<<<<< (ab) max sync:      0.00

           >>>| Valence CI:             -1.364748639681
           >>>| MCSCF energy:           -1.047288322221
           >>>| Gradient norm:          0.385527197D-04




     ==============================
            MCSCF Converged
     ==============================



          Canonical Eigenvalues

              1      
    1   -0.4278
    2   -0.0782
    3   -0.0018
    4   -0.0014
    5   -0.0014
    6   -0.0002
    7   -0.0001
    8   -0.0001
    9   -0.0001
   10   -0.0000
   11    0.4793
   12    0.8271
   13    1.0495
   14    1.4010
   15    1.4010
   16    1.6284
   17    1.6284
   18    1.9137
   19    1.9137
   20    1.9213
   21    2.0094
   22    2.0094
   23    2.1780
   24    2.1780
   25    2.3121
   26    2.5559
   27    2.5559
   28    2.9296
   29    2.9810
   30    3.4272
   31    4.3972
   32    4.3972
   33    4.4431
   34    4.4431
   35    4.5352
   36    4.6979
   37    5.7135
   38    5.8062
   39    5.8062
   40    5.9703
   41    5.9703
   42    6.0592
   43    6.0592
   44    6.0780
   45    6.0780
   46    6.1755
   47    6.1755
   48    6.5514
   49    6.5514
   50    7.3507
   51    8.0927
   52    8.0927
   53    8.1047
   54    8.1047
   55    8.1938
   56    8.1938
   57    8.4519
   58    8.5105
   59    8.5105
   60    9.2193
   61    9.6154
   62    9.7179
   63    9.7179
   64    9.7365
   65    9.7365
   66    9.8126
   67    9.9730
   68   10.0140
   69   22.7180
   70   23.2776


          Converged CI vector

   Index           Coefficient          Config. Occupation
         1          0.93696606          1  1
        12         -0.34320308          2  2
        23         -0.03859928          3  3
        34         -0.03449300          4  4
        45         -0.03449300          5  5

          Number of sigma calls:        1
                       o<<<<< (aa):             0.00
                       o<<<<< (bb):             0.00
                       o<<<<< (ab):             0.00
                       o<<<<< (total)           0.00
                       o<<<<< (aa) ff           0.00
                       o<<<<< (aa) gop          0.00
                       o<<<<< (aa) dot          0.00
                       o<<<<< (ab) str          0.00
                       o<<<<< (ab) gath         0.00
                       o<<<<< (ab) dotab        0.00
                       o<<<<< (ab) scat         0.00
                       o<<<<< (ab) sync         0.00
                       o<<<<< Density           0.00
                       o<<<<< Density one       0.00
                       o<<<<< Density two       0.00
                       o<<<<< Density ab        0.00
                       o<<<<< Spin adapt        0.00
                       o<<<<< Symm adapt        0.00

                       o<<<<< (ab) max sync:      0.00



          Natural orbital occupation numbers

              1      
    1    1.7560
    2    0.2356
    3    0.0030
    4    0.0024
    5    0.0024
    6    0.0003
    7    0.0001
    8    0.0001
    9    0.0001
   10    0.0000


          Number of sigma calls:       13
                       o<<<<< (aa):             0.00
                       o<<<<< (bb):             0.00
                       o<<<<< (ab):             0.01
                       o<<<<< (total)           0.01
                       o<<<<< (aa) ff           0.00
                       o<<<<< (aa) gop          0.00
                       o<<<<< (aa) dot          0.00
                       o<<<<< (ab) str          0.00
                       o<<<<< (ab) gath         0.00
                       o<<<<< (ab) dotab        0.00
                       o<<<<< (ab) scat         0.00
                       o<<<<< (ab) sync         0.00
                       o<<<<< Density           0.00
                       o<<<<< Density one       0.00
                       o<<<<< Density two       0.00
                       o<<<<< Density ab        0.00
                       o<<<<< Spin adapt        0.00
                       o<<<<< Symm adapt        0.00

                       o<<<<< (ab) max sync:      0.00


       Final MCSCF results 
       ------------------- 

       Total MCSCF energy =     -1.047288322220
            Gradient norm =      3.9D-05

    CPU time for solution =      2.8s
   Wall time for solution =      3.8s



                        Analysis of MCSCF natural orbitals
                        ----------------------------------

 Vector    1  Occ=1.756029D+00  E=-4.278373D-01  Symmetry=a
              MO Center=  4.5D-16,  1.3D-12, -3.6D-16, r^2= 1.4D+00
   Bfn.  Coefficient  Atom+Function         Bfn.  Coefficient  Atom+Function  
  ----- ------------  ---------------      ----- ------------  ---------------
     3      0.293266  1 H  s                 38      0.293266  2 H  s          
     4      0.186930  1 H  s                 39      0.186930  2 H  s          
     2      0.154962  1 H  s                 37      0.154962  2 H  s          

 Vector    2  Occ=2.355770D-01  E=-7.816704D-02  Symmetry=a
              MO Center=  4.8D-15, -1.7D-12, -3.8D-15, r^2= 1.5D+00
   Bfn.  Coefficient  Atom+Function         Bfn.  Coefficient  Atom+Function  
  ----- ------------  ---------------      ----- ------------  ---------------
     3      0.450444  1 H  s                 38     -0.450444  2 H  s          
     2      0.238487  1 H  s                 37     -0.238487  2 H  s          
     4      0.178210  1 H  s                 39     -0.178210  2 H  s          

 Vector    3  Occ=2.994085D-03  E=-1.785665D-03  Symmetry=a
              MO Center= -4.8D-14, -1.7D-11,  3.2D-14, r^2= 2.3D+00
   Bfn.  Coefficient  Atom+Function         Bfn.  Coefficient  Atom+Function  
  ----- ------------  ---------------      ----- ------------  ---------------
     4      0.490187  1 H  s                 39      0.490187  2 H  s          
     9     -0.481011  1 H  py                44      0.481011  2 H  py         
    12     -0.277197  1 H  py                47      0.277197  2 H  py         
     2     -0.173620  1 H  s                 37     -0.173620  2 H  s          
     3     -0.162505  1 H  s                 38     -0.162505  2 H  s          

 Vector    4  Occ=2.379534D-03  E=-1.409801D-03  Symmetry=a
              MO Center=  7.4D-14,  1.1D-11, -2.9D-15, r^2= 1.4D+00
   Bfn.  Coefficient  Atom+Function         Bfn.  Coefficient  Atom+Function  
  ----- ------------  ---------------      ----- ------------  ---------------
    11      0.607118  1 H  px                46      0.607118  2 H  px         
     8     -0.301793  1 H  px                43     -0.301793  2 H  px         
    21      0.266891  1 H  dxy               56     -0.266891  2 H  dxy        
    29      0.203848  1 H  fxyy              64      0.203848  2 H  fxyy       

 Vector    5  Occ=2.379534D-03  E=-1.409801D-03  Symmetry=a
              MO Center= -1.2D-15,  1.1D-11, -4.2D-14, r^2= 1.4D+00
   Bfn.  Coefficient  Atom+Function         Bfn.  Coefficient  Atom+Function  
  ----- ------------  ---------------      ----- ------------  ---------------
    13      0.607118  1 H  pz                48      0.607118  2 H  pz         
    10     -0.301793  1 H  pz                45     -0.301793  2 H  pz         
    24      0.266891  1 H  dyz               59     -0.266891  2 H  dyz        
    33      0.203848  1 H  fyyz              68      0.203848  2 H  fyyz       

 Vector    6  Occ=2.585349D-04  E=-1.905946D-04  Symmetry=a
              MO Center= -1.3D-14,  4.2D-11,  6.1D-15, r^2= 1.4D+00
   Bfn.  Coefficient  Atom+Function         Bfn.  Coefficient  Atom+Function  
  ----- ------------  ---------------      ----- ------------  ---------------
     2      0.732783  1 H  s                 37      0.732783  2 H  s          
    12     -0.335415  1 H  py                47      0.335415  2 H  py         
     3     -0.280601  1 H  s                 38     -0.280601  2 H  s          
     4     -0.243040  1 H  s                 39     -0.243040  2 H  s          
     9      0.167870  1 H  py                44     -0.167870  2 H  py         

 Vector    7  Occ=1.168468D-04  E=-1.063605D-04  Symmetry=a
              MO Center= -4.5D-12,  2.0D-10,  2.7D-12, r^2= 1.8D+00
   Bfn.  Coefficient  Atom+Function         Bfn.  Coefficient  Atom+Function  
  ----- ------------  ---------------      ----- ------------  ---------------
     2      0.670565  1 H  s                 37     -0.670565  2 H  s          
     9      0.524049  1 H  py                44      0.524049  2 H  py         
     3     -0.515242  1 H  s                 38      0.515242  2 H  s          
     4     -0.301564  1 H  s                 39      0.301564  2 H  s          

 Vector    8  Occ=1.118639D-04  E=-9.876689D-05  Symmetry=a
              MO Center=  4.6D-12, -1.0D-11, -2.6D-13, r^2= 1.3D+00
   Bfn.  Coefficient  Atom+Function         Bfn.  Coefficient  Atom+Function  
  ----- ------------  ---------------      ----- ------------  ---------------
     8      0.722642  1 H  px                43     -0.722642  2 H  px         
    11      0.369209  1 H  px                46     -0.369209  2 H  px         
    21      0.209801  1 H  dxy               56      0.209801  2 H  dxy        
    26     -0.165568  1 H  fxxx              31     -0.165568  1 H  fxzz       
    61      0.165568  2 H  fxxx              66      0.165568  2 H  fxzz       

 Vector    9  Occ=1.118639D-04  E=-9.876689D-05  Symmetry=a
              MO Center= -1.4D-13, -1.0D-11, -2.5D-12, r^2= 1.3D+00
   Bfn.  Coefficient  Atom+Function         Bfn.  Coefficient  Atom+Function  
  ----- ------------  ---------------      ----- ------------  ---------------
    10      0.722642  1 H  pz                45     -0.722642  2 H  pz         
    13      0.369209  1 H  pz                48     -0.369209  2 H  pz         
    24      0.209801  1 H  dyz               59      0.209801  2 H  dyz        
    28     -0.165568  1 H  fxxz              35     -0.165568  1 H  fzzz       
    63      0.165568  2 H  fxxz              70      0.165568  2 H  fzzz       

 Vector   10  Occ=4.136733D-05  E=-4.461789D-05  Symmetry=a
              MO Center=  1.8D-16,  1.3D-09, -4.5D-17, r^2= 2.3D+00
   Bfn.  Coefficient  Atom+Function         Bfn.  Coefficient  Atom+Function  
  ----- ------------  ---------------      ----- ------------  ---------------
     9      2.186621  1 H  py                44     -2.186621  2 H  py         
     3     -1.332335  1 H  s                 38     -1.332335  2 H  s          
    27     -0.888985  1 H  fxxy              34     -0.888985  1 H  fyzz       
    62      0.888985  2 H  fxxy              69      0.888985  2 H  fyzz       
    12     -0.765549  1 H  py                47      0.765549  2 H  py         

 Vector   11  Occ=0.000000D+00  E= 4.792680D-01  Symmetry=a
              MO Center=  3.9D-13,  4.1D-11, -2.3D-13, r^2= 7.4D+00
   Bfn.  Coefficient  Atom+Function         Bfn.  Coefficient  Atom+Function  
  ----- ------------  ---------------      ----- ------------  ---------------
     3      2.694939  1 H  s                 38     -2.694939  2 H  s          
     4     -2.652656  1 H  s                 39      2.652656  2 H  s          
     9      0.791812  1 H  py                44      0.791812  2 H  py         
     2     -0.683971  1 H  s                 37      0.683971  2 H  s          
    12     -0.667387  1 H  py                47     -0.667387  2 H  py         

 Vector   12  Occ=0.000000D+00  E= 8.270885D-01  Symmetry=a
              MO Center= -7.2D-16,  1.6D-10,  6.0D-17, r^2= 5.1D+00
   Bfn.  Coefficient  Atom+Function         Bfn.  Coefficient  Atom+Function  
  ----- ------------  ---------------      ----- ------------  ---------------
     3      3.619910  1 H  s                 38      3.619909  2 H  s          
     9      1.468328  1 H  py                44     -1.468328  2 H  py         
     4     -1.394695  1 H  s                 39     -1.394695  2 H  s          
     2     -1.162112  1 H  s                 37     -1.162112  2 H  s          
    12     -0.626673  1 H  py                47      0.626673  2 H  py         

 Vector   13  Occ=0.000000D+00  E= 1.049468D+00  Symmetry=a
              MO Center= -2.1D-12, -1.9D-09,  1.3D-12, r^2= 2.8D+00
   Bfn.  Coefficient  Atom+Function         Bfn.  Coefficient  Atom+Function  
  ----- ------------  ---------------      ----- ------------  ---------------
     3      3.466573  1 H  s                 38     -3.466573  2 H  s          
     9     -2.895679  1 H  py                44     -2.895679  2 H  py         
    12      2.314935  1 H  py                47      2.314935  2 H  py         
     2     -1.109828  1 H  s                 32      1.113134  1 H  fyyy       
    37      1.109828  2 H  s                 67      1.113134  2 H  fyyy       

 Vector   14  Occ=0.000000D+00  E= 1.400981D+00  Symmetry=a
              MO Center=  2.0D-12, -3.6D-11,  8.6D-14, r^2= 3.1D+00
   Bfn.  Coefficient  Atom+Function         Bfn.  Coefficient  Atom+Function  
  ----- ------------  ---------------      ----- ------------  ---------------
     8      5.713131  1 H  px                43     -5.713131  2 H  px         
    29     -2.224357  1 H  fxyy              64      2.224357  2 H  fxyy       
    26     -2.195007  1 H  fxxx              31     -2.195007  1 H  fxzz       
    61      2.195007  2 H  fxxx              66      2.195007  2 H  fxzz       
    11     -1.740603  1 H  px                46      1.740603  2 H  px         

 Vector   15  Occ=0.000000D+00  E= 1.400981D+00  Symmetry=a
              MO Center=  5.6D-14, -3.5D-11, -1.3D-12, r^2= 3.1D+00
   Bfn.  Coefficient  Atom+Function         Bfn.  Coefficient  Atom+Function  
  ----- ------------  ---------------      ----- ------------  ---------------
    10      5.713131  1 H  pz                45     -5.713131  2 H  pz         
    33     -2.224357  1 H  fyyz              68      2.224357  2 H  fyyz       
    28     -2.195007  1 H  fxxz              35     -2.195007  1 H  fzzz       
    63      2.195007  2 H  fxxz              70      2.195007  2 H  fzzz       
    13     -1.740603  1 H  pz                48      1.740603  2 H  pz         

 Vector   16  Occ=0.000000D+00  E= 1.628398D+00  Symmetry=a
              MO Center= -1.3D-14,  2.2D-11,  2.4D-16, r^2= 2.2D+00
   Bfn.  Coefficient  Atom+Function         Bfn.  Coefficient  Atom+Function  
  ----- ------------  ---------------      ----- ------------  ---------------
     8      5.211029  1 H  px                43      5.211029  2 H  px         
    26     -2.054842  1 H  fxxx              31     -2.054842  1 H  fxzz       
    61     -2.054842  2 H  fxxx              66     -2.054842  2 H  fxzz       
    29     -2.004827  1 H  fxyy              64     -2.004827  2 H  fxyy       
     5     -1.386598  1 H  px                40     -1.386598  2 H  px         

 Vector   17  Occ=0.000000D+00  E= 1.628398D+00  Symmetry=a
              MO Center= -6.6D-17,  2.2D-11,  8.7D-15, r^2= 2.2D+00
   Bfn.  Coefficient  Atom+Function         Bfn.  Coefficient  Atom+Function  
  ----- ------------  ---------------      ----- ------------  ---------------
    10      5.211029  1 H  pz                45      5.211029  2 H  pz         
    28     -2.054842  1 H  fxxz              35     -2.054842  1 H  fzzz       
    63     -2.054842  2 H  fxxz              70     -2.054842  2 H  fzzz       
    33     -2.004827  1 H  fyyz              68     -2.004827  2 H  fyyz       
     7     -1.386598  1 H  pz                42     -1.386598  2 H  pz         

 Vector   18  Occ=0.000000D+00  E= 1.913678D+00  Symmetry=a
              MO Center= -4.5D-15,  1.5D-11,  5.3D-15, r^2= 1.8D+00
   Bfn.  Coefficient  Atom+Function         Bfn.  Coefficient  Atom+Function  
  ----- ------------  ---------------      ----- ------------  ---------------
     8      3.441663  1 H  px                43      3.441663  2 H  px         
    26     -1.342339  1 H  fxxx              29     -1.344615  1 H  fxyy       
    31     -1.342339  1 H  fxzz              61     -1.342339  2 H  fxxx       
    64     -1.344615  2 H  fxyy              66     -1.342339  2 H  fxzz       
    21     -0.921909  1 H  dxy               56      0.921909  2 H  dxy        

 Vector   19  Occ=0.000000D+00  E= 1.913678D+00  Symmetry=a
              MO Center= -3.0D-15,  1.5D-11,  6.1D-15, r^2= 1.8D+00
   Bfn.  Coefficient  Atom+Function         Bfn.  Coefficient  Atom+Function  
  ----- ------------  ---------------      ----- ------------  ---------------
    10      3.441663  1 H  pz                45      3.441663  2 H  pz         
    28     -1.342339  1 H  fxxz              33     -1.344615  1 H  fyyz       
    35     -1.342339  1 H  fzzz              63     -1.342339  2 H  fxxz       
    68     -1.344615  2 H  fyyz              70     -1.342339  2 H  fzzz       
    24     -0.921909  1 H  dyz               59      0.921909  2 H  dyz        

 Vector   20  Occ=0.000000D+00  E= 1.921261D+00  Symmetry=a
              MO Center= -4.6D-13,  9.9D-10,  2.7D-13, r^2= 3.5D+00
   Bfn.  Coefficient  Atom+Function         Bfn.  Coefficient  Atom+Function  
  ----- ------------  ---------------      ----- ------------  ---------------
     9      5.663020  1 H  py                44      5.663020  2 H  py         
    27     -2.129733  1 H  fxxy              32     -2.126660  1 H  fyyy       
    34     -2.129733  1 H  fyzz              62     -2.129733  2 H  fxxy       
    67     -2.126660  2 H  fyyy              69     -2.129733  2 H  fyzz       
     3      2.028462  1 H  s                 38     -2.028462  2 H  s          


 Wrote Lagrangian and 1- and 2-particle density matrices to ./H2.mcpdm


     Multipole analysis of the density
     ---------------------------------

     L   x y z        total        nuclear
     -   - - -        -----        -------
     0   0 0 0     -0.000000      2.000000

     1   1 0 0     -0.000000      0.000000
     1   0 1 0     -0.000000      0.000000
     1   0 0 1      0.000000      0.000000

     2   2 0 0     -2.105460      0.000000
     2   1 1 0      0.000000      0.000000
     2   1 0 1     -0.000000      0.000000
     2   0 2 0     -1.170695      4.961250
     2   0 1 1     -0.000000      0.000000
     2   0 0 2     -2.105460      0.000000


  Mulliken analysis of the total density
  --------------------------------------

    Atom       Charge   Shell Charges
 -----------   ------   -------------------------------------------------------
    1 H    1     1.00   0.04  0.20  0.47  0.28  0.00 -0.00  0.01  0.00  0.00  0.00
    2 H    1     1.00   0.04  0.20  0.47  0.28  0.00 -0.00  0.01  0.00  0.00  0.00

    Mulliken analysis of the active space density
    ---------------------------------------------

    Atom       Charge   Shell Charges
 -----------   ------   -------------------------------------------------------
    1 H    1     1.00   0.04  0.20  0.47  0.28  0.00 -0.00  0.01  0.00  0.00  0.00
    2 H    1     1.00   0.04  0.20  0.47  0.28  0.00 -0.00  0.01  0.00  0.00  0.00

 Parallel integral file used      20 records with       0 large values


 Task  times  cpu:        2.8s     wall:        3.8s


                                NWChem Input Module
                                -------------------


                                 NWChem SCF Module
                                 -----------------


                                        H2



  ao basis        = "ao basis"
  functions       =    70
  atoms           =     2
  closed shells   =     1
  open shells     =     0
  charge          =   0.00
  wavefunction    = RHF 
  input vectors   = ./H2.mos
  output vectors  = ./H2-3.15.mos
  use symmetry    = F
  symmetry adapt  = F


 Summary of "ao basis" -> "ao basis" (cartesian)
 ------------------------------------------------------------------------------
       Tag                 Description            Shells   Functions and Types
 ---------------- ------------------------------  ------  ---------------------
 H                          cc-pVQZ                 10       35   4s3p2d1f



 Forming initial guess at       3.9s


 Loading old vectors from job with title :

H2


 Starting SCF solution at       3.9s



 ----------------------------------------------
         Quadratically convergent ROHF

 Convergence threshold     :          1.000E-04
 Maximum no. of iterations :           30
 Final Fock-matrix accuracy:          1.000E-07
 ----------------------------------------------


 Integral file          = ./H2.aoints.0
 Record size in doubles =  65536        No. of integs per rec  =  43688
 Max. records in memory =     99        Max. records in file   = 280274
 No. of bits per label  =      8        No. of bits per value  =     64


 #quartets = 2.211D+04 #integrals = 8.310D+05 #direct =  0.0% #cached =100.0%



       Final RHF  results 
       ------------------ 

         Total SCF energy =     -0.971230702271
      One-electron energy =     -1.754996297136
      Two-electron energy =      0.466305277405
 Nuclear repulsion energy =      0.317460317460

        Time for solution =      0.1s


             Final eigenvalues
             -----------------

              1      
    1   -0.4278
    2   -0.0782
    3   -0.0018
    4   -0.0014
    5   -0.0014
    6   -0.0002
    7   -0.0001
    8   -0.0001
    9   -0.0001
   10   -0.0000
   11    0.4793

                       ROHF Final Molecular Orbital Analysis
                       -------------------------------------

 Vector    1  Occ=2.000000D+00  E=-4.278373D-01
              MO Center=  4.5D-16,  1.3D-12, -3.6D-16, r^2= 1.4D+00
   Bfn.  Coefficient  Atom+Function         Bfn.  Coefficient  Atom+Function  
  ----- ------------  ---------------      ----- ------------  ---------------
     3      0.293266  1 H  s                 38      0.293266  2 H  s          
     4      0.186930  1 H  s                 39      0.186930  2 H  s          
     2      0.154962  1 H  s                 37      0.154962  2 H  s          

 Vector    2  Occ=0.000000D+00  E=-7.816704D-02
              MO Center=  4.8D-15, -1.7D-12, -3.8D-15, r^2= 1.5D+00
   Bfn.  Coefficient  Atom+Function         Bfn.  Coefficient  Atom+Function  
  ----- ------------  ---------------      ----- ------------  ---------------
     3      0.450444  1 H  s                 38     -0.450444  2 H  s          
     2      0.238487  1 H  s                 37     -0.238487  2 H  s          
     4      0.178210  1 H  s                 39     -0.178210  2 H  s          

 Vector    3  Occ=0.000000D+00  E=-1.785665D-03
              MO Center= -4.8D-14, -1.7D-11,  3.2D-14, r^2= 2.3D+00
   Bfn.  Coefficient  Atom+Function         Bfn.  Coefficient  Atom+Function  
  ----- ------------  ---------------      ----- ------------  ---------------
     4      0.490187  1 H  s                 39      0.490187  2 H  s          
     9     -0.481011  1 H  py                44      0.481011  2 H  py         
    12     -0.277197  1 H  py                47      0.277197  2 H  py         
     2     -0.173620  1 H  s                 37     -0.173620  2 H  s          
     3     -0.162505  1 H  s                 38     -0.162505  2 H  s          

 Vector    4  Occ=0.000000D+00  E=-1.409801D-03
              MO Center=  7.4D-14,  1.1D-11, -2.9D-15, r^2= 1.4D+00
   Bfn.  Coefficient  Atom+Function         Bfn.  Coefficient  Atom+Function  
  ----- ------------  ---------------      ----- ------------  ---------------
    11      0.607118  1 H  px                46      0.607118  2 H  px         
     8     -0.301793  1 H  px                43     -0.301793  2 H  px         
    21      0.266891  1 H  dxy               56     -0.266891  2 H  dxy        
    29      0.203848  1 H  fxyy              64      0.203848  2 H  fxyy       

 Vector    5  Occ=0.000000D+00  E=-1.409801D-03
              MO Center= -1.2D-15,  1.1D-11, -4.2D-14, r^2= 1.4D+00
   Bfn.  Coefficient  Atom+Function         Bfn.  Coefficient  Atom+Function  
  ----- ------------  ---------------      ----- ------------  ---------------
    13      0.607118  1 H  pz                48      0.607118  2 H  pz         
    10     -0.301793  1 H  pz                45     -0.301793  2 H  pz         
    24      0.266891  1 H  dyz               59     -0.266891  2 H  dyz        
    33      0.203848  1 H  fyyz              68      0.203848  2 H  fyyz       

 Vector    6  Occ=0.000000D+00  E=-1.905946D-04
              MO Center= -1.3D-14,  4.2D-11,  6.1D-15, r^2= 1.4D+00
   Bfn.  Coefficient  Atom+Function         Bfn.  Coefficient  Atom+Function  
  ----- ------------  ---------------      ----- ------------  ---------------
     2      0.732783  1 H  s                 37      0.732783  2 H  s          
    12     -0.335415  1 H  py                47      0.335415  2 H  py         
     3     -0.280601  1 H  s                 38     -0.280601  2 H  s          
     4     -0.243040  1 H  s                 39     -0.243040  2 H  s          
     9      0.167870  1 H  py                44     -0.167870  2 H  py         

 Vector    7  Occ=0.000000D+00  E=-1.063605D-04
              MO Center= -4.5D-12,  2.0D-10,  2.7D-12, r^2= 1.8D+00
   Bfn.  Coefficient  Atom+Function         Bfn.  Coefficient  Atom+Function  
  ----- ------------  ---------------      ----- ------------  ---------------
     2      0.670565  1 H  s                 37     -0.670565  2 H  s          
     9      0.524049  1 H  py                44      0.524049  2 H  py         
     3     -0.515242  1 H  s                 38      0.515242  2 H  s          
     4     -0.301564  1 H  s                 39      0.301564  2 H  s          

 Vector    8  Occ=0.000000D+00  E=-9.876689D-05
              MO Center=  4.6D-12, -1.0D-11, -2.6D-13, r^2= 1.3D+00
   Bfn.  Coefficient  Atom+Function         Bfn.  Coefficient  Atom+Function  
  ----- ------------  ---------------      ----- ------------  ---------------
     8      0.722642  1 H  px                43     -0.722642  2 H  px         
    11      0.369209  1 H  px                46     -0.369209  2 H  px         
    21      0.209801  1 H  dxy               56      0.209801  2 H  dxy        
    26     -0.165568  1 H  fxxx              31     -0.165568  1 H  fxzz       
    61      0.165568  2 H  fxxx              66      0.165568  2 H  fxzz       

 Vector    9  Occ=0.000000D+00  E=-9.876689D-05
              MO Center= -1.4D-13, -1.0D-11, -2.5D-12, r^2= 1.3D+00
   Bfn.  Coefficient  Atom+Function         Bfn.  Coefficient  Atom+Function  
  ----- ------------  ---------------      ----- ------------  ---------------
    10      0.722642  1 H  pz                45     -0.722642  2 H  pz         
    13      0.369209  1 H  pz                48     -0.369209  2 H  pz         
    24      0.209801  1 H  dyz               59      0.209801  2 H  dyz        
    28     -0.165568  1 H  fxxz              35     -0.165568  1 H  fzzz       
    63      0.165568  2 H  fxxz              70      0.165568  2 H  fzzz       

 Vector   10  Occ=0.000000D+00  E=-4.461789D-05
              MO Center=  1.8D-16,  1.3D-09, -4.5D-17, r^2= 2.3D+00
   Bfn.  Coefficient  Atom+Function         Bfn.  Coefficient  Atom+Function  
  ----- ------------  ---------------      ----- ------------  ---------------
     9      2.186621  1 H  py                44     -2.186621  2 H  py         
     3     -1.332335  1 H  s                 38     -1.332335  2 H  s          
    27     -0.888985  1 H  fxxy              34     -0.888985  1 H  fyzz       
    62      0.888985  2 H  fxxy              69      0.888985  2 H  fyzz       
    12     -0.765549  1 H  py                47      0.765549  2 H  py         

 Vector   11  Occ=0.000000D+00  E= 4.792680D-01
              MO Center=  3.9D-13,  4.1D-11, -2.3D-13, r^2= 7.4D+00
   Bfn.  Coefficient  Atom+Function         Bfn.  Coefficient  Atom+Function  
  ----- ------------  ---------------      ----- ------------  ---------------
     3      2.694939  1 H  s                 38     -2.694939  2 H  s          
     4     -2.652656  1 H  s                 39      2.652656  2 H  s          
     9      0.791812  1 H  py                44      0.791812  2 H  py         
     2     -0.683971  1 H  s                 37      0.683971  2 H  s          
    12     -0.667387  1 H  py                47     -0.667387  2 H  py         

 Vector   12  Occ=0.000000D+00  E= 8.270885D-01
              MO Center= -7.2D-16,  1.6D-10,  6.0D-17, r^2= 5.1D+00
   Bfn.  Coefficient  Atom+Function         Bfn.  Coefficient  Atom+Function  
  ----- ------------  ---------------      ----- ------------  ---------------
     3      3.619910  1 H  s                 38      3.619909  2 H  s          
     9      1.468328  1 H  py                44     -1.468328  2 H  py         
     4     -1.394695  1 H  s                 39     -1.394695  2 H  s          
     2     -1.162112  1 H  s                 37     -1.162112  2 H  s          
    12     -0.626673  1 H  py                47      0.626673  2 H  py         


 center of mass
 --------------
 x =   0.00000000 y =   0.00000000 z =   0.00000000

 moments of inertia (a.u.)
 ------------------
           5.000071781250           0.000000000000           0.000000000000
           0.000000000000           0.000000000000           0.000000000000
           0.000000000000           0.000000000000           5.000071781250

  Mulliken analysis of the total density
  --------------------------------------

    Atom       Charge   Shell Charges
 -----------   ------   -------------------------------------------------------
    1 H    1     1.00   0.04  0.19  0.46  0.30  0.00 -0.00  0.01  0.00  0.00  0.00
    2 H    1     1.00   0.04  0.19  0.46  0.30  0.00 -0.00  0.01  0.00  0.00  0.00

       Multipole analysis of the density wrt the origin
       ------------------------------------------------

     L   x y z        total         open         nuclear
     -   - - -        -----         ----         -------
     0   0 0 0     -0.000000      0.000000      2.000000

     1   1 0 0     -0.000000      0.000000      0.000000
     1   0 1 0     -0.000000      0.000000      0.000000
     1   0 0 1      0.000000      0.000000      0.000000

     2   2 0 0     -2.183872      0.000000      0.000000
     2   1 1 0      0.000000      0.000000      0.000000
     2   1 0 1     -0.000000      0.000000      0.000000
     2   0 2 0     -0.931247      0.000000      4.961250
     2   0 1 1      0.000000      0.000000      0.000000
     2   0 0 2     -2.183872      0.000000      0.000000


 Parallel integral file used      20 records with       0 large values

 ------------------------------------
     Number of active orbitals     10
     Number of active alpha electrons      1
     Number of active beta electrons       1
 ------------------------------------
                   NWChem Extensible Many-Electron Theory Module
                   ---------------------------------------------

              ======================================================
                   This portion of the program was automatically
                  generated by a Tensor Contraction Engine (TCE).
                  The development of this portion of the program
                 and TCE was supported by US Department of Energy,
                Office of Science, Office of Basic Energy Science.
                      TCE is a product of Battelle and PNNL.
              Please cite: S.Hirata, J.Phys.Chem.A 107, 9887 (2003).
              ======================================================

                                        H2


            General Information
            -------------------
      Number of processors :     1
         Wavefunction type : Restricted Hartree-Fock
          No. of electrons :     2
           Alpha electrons :     1
            Beta electrons :     1
           No. of orbitals :   140
            Alpha orbitals :    70
             Beta orbitals :    70
        Alpha frozen cores :     0
         Beta frozen cores :     0
     Alpha frozen virtuals :    60
      Beta frozen virtuals :    60
         Spin multiplicity : singlet 
    Number of AO functions :    70
       Number of AO shells :    20
        Use of symmetry is : off
      Symmetry adaption is : off
         Schwarz screening : 0.10D-09

          Correlation Information
          -----------------------
          Calculation type : Coupled-cluster singles & doubles                           
   Perturbative correction : none                                                        
            Max iterations :      300
        Residual threshold : 0.10D-06
     T(0) DIIS level shift : 0.00D+00
     L(0) DIIS level shift : 0.00D+00
     T(1) DIIS level shift : 0.00D+00
     L(1) DIIS level shift : 0.00D+00
     T(R) DIIS level shift : 0.00D+00
     T(I) DIIS level shift : 0.00D+00
   CC-T/L Amplitude update :  5-th order DIIS
                I/O scheme : Global Array Library
        L-threshold :  0.10D-06
        EOM-threshold :  0.10D-06
 no EOMCCSD initial starts read in
 TCE RESTART OPTIONS
 READ_INT:   F
 WRITE_INT:  F
 READ_TA:    F
 WRITE_TA:   F
 READ_XA:    F
 WRITE_XA:   F
 READ_IN3:   F
 WRITE_IN3:  F
 SLICE:      F
 D4D5:       F
 quantumc:   T
 qrotation:  F
 pwtce:      F
 qducc:      F
 nacto:                         0
 nrotv:                         0
 nrot:                          0

            Memory Information
            ------------------
          Available GA space size is    1610607836 doubles
          Available MA space size is    1610610644 doubles

 Maximum block size supplied by input
 Maximum block size         1 doubles

 tile_dim =      1

 Block   Spin    Irrep     Size     Offset   Alpha
 -------------------------------------------------
   1    alpha     a      1 doubles       0       1
   2    beta      a      1 doubles       1       1
   3    alpha     a      1 doubles       2       3
   4    alpha     a      1 doubles       3       4
   5    alpha     a      1 doubles       4       5
   6    alpha     a      1 doubles       5       6
   7    alpha     a      1 doubles       6       7
   8    alpha     a      1 doubles       7       8
   9    alpha     a      1 doubles       8       9
  10    alpha     a      1 doubles       9      10
  11    alpha     a      1 doubles      10      11
  12    beta      a      1 doubles      11       3
  13    beta      a      1 doubles      12       4
  14    beta      a      1 doubles      13       5
  15    beta      a      1 doubles      14       6
  16    beta      a      1 doubles      15       7
  17    beta      a      1 doubles      16       8
  18    beta      a      1 doubles      17       9
  19    beta      a      1 doubles      18      10
  20    beta      a      1 doubles      19      11

 Global array virtual files algorithm will be used

 Parallel file system coherency ......... OK

 Integral file          = ./H2.aoints.0
 Record size in doubles =  65536        No. of integs per rec  =  43688
 Max. records in memory =     99        Max. records in file   = 280274
 No. of bits per label  =      8        No. of bits per value  =     64


 #quartets = 2.215D+04 #integrals = 8.582D+05 #direct =  0.0% #cached =100.0%


 Fock matrix recomputed
 1-e file size   =              100
 1-e file name   = ./H2.f1
 Cpu & wall time / sec            0.1            0.1
 4-electron integrals stored in orbital form

 v2    file size   =             1540
 4-index algorithm nr.  13 is used
 imaxsize =       30
 imaxsize ichop =        0
 begin_one_electron_integrals
    1    1        -0.8774981486
    3    1         0.0906145778
    6    1        -0.0069810072
   10    1        -0.0026877164
    2    2        -0.7011285020
    7    2         0.0222534008
    1    3         0.0906145778
    3    3        -0.1562661480
    6    3         0.0236157992
   10    3        -0.3029443339
    4    4        -0.1789438385
    5    5        -0.1789438385
    1    6        -0.0069810072
    3    6         0.0236157992
    6    6         0.1124564032
   10    6        -0.0755332719
    2    7         0.0222534008
    7    7         0.4595500880
   10    7        -0.0000000003
    8    8         0.4054969507
    9    9         0.4054969507
    1   10        -0.0026877164
    3   10        -0.3029443339
    6   10        -0.0755332719
    7   10        -0.0000000003
   10   10         0.9001260773
 end_one_electron_integrals
 begin_two_electron_integrals
    1    1    1    1        0.4663052775
    2    1    2    1        0.1788202126
    3    1    1    1       -0.0935486575
    3    1    3    1        0.0757427596
    3    1    2    2       -0.0765502211
    4    1    4    1        0.0685209179
    5    1    5    1        0.0685209179
    6    1    1    1        0.0522162161
    6    1    3    1        0.0022941497
    6    1    6    1        0.0723679236
    6    1    2    2        0.0890068778
    6    1    3    3        0.0155153633
    6    1    4    4        0.0047663493
    6    1    5    5        0.0047663493
    7    1    2    1        0.0459765512
    7    1    7    1        0.0619000840
    7    1    3    2       -0.0396961234
    7    1    6    2        0.0412256296
    8    1    8    1        0.0541472624
    8    1    4    2        0.0410268134
    8    1    5    2       -0.0010940265
    8    1    7    4        0.0029697826
    8    1    7    5       -0.0000791926
    9    1    9    1        0.0541472624
    9    1    4    2        0.0010940265
    9    1    5    2        0.0410268134
    9    1    7    4        0.0000791926
    9    1    7    5        0.0029697826
   10    1    1    1       -0.0034485799
   10    1    3    1       -0.0200378087
   10    1    6    1       -0.0082641903
   10    1   10    1        0.0291850402
   10    1    2    2       -0.0122407712
   10    1    7    2        0.0095332938
   10    1    3    3        0.0269917997
   10    1    6    3        0.0099152428
   10    1    4    4       -0.0094632799
   10    1    5    5       -0.0094632799
   10    1    6    6       -0.0136349938
   10    1    7    7        0.0144679063
   10    1    8    8       -0.0150871641
   10    1    9    9       -0.0150871641
    2    2    1    1        0.4753334799
    2    2    2    2        0.5065423225
    3    2    2    1       -0.0021899302
    3    2    3    2        0.0317170336
    4    2    4    2        0.0315366556
    5    2    5    2        0.0315366556
    6    2    2    1        0.1294842397
    6    2    3    2       -0.0041529891
    6    2    6    2        0.1166163272
    7    2    1    1        0.0981013580
    7    2    3    1       -0.0705385592
    7    2    6    1        0.0283150428
    7    2    2    2        0.0970118052
    7    2    7    2        0.0895518889
    7    2    3    3        0.0843837651
    7    2    6    3        0.0016318070
    7    2    4    4        0.0737247598
    7    2    5    5        0.0737247598
    7    2    6    6        0.1067209537
    8    2    4    1        0.0635968580
    8    2    5    1       -0.0016958824
    8    2    8    2        0.0737558831
    8    2    4    3       -0.0079038696
    8    2    5    3        0.0002107656
    8    2    6    4       -0.0171813666
    8    2    6    5        0.0004581606
    9    2    4    1        0.0016958824
    9    2    5    1        0.0635968580
    9    2    9    2        0.0737558831
    9    2    4    3       -0.0002107656
    9    2    5    3       -0.0079038696
    9    2    6    4       -0.0004581606
    9    2    6    5       -0.0171813666
   10    2    2    1       -0.0202739456
   10    2    7    1       -0.0026314972
   10    2    3    2       -0.0005615384
   10    2    6    2       -0.0182363808
   10    2   10    2        0.0150762301
   10    2    7    3       -0.0010375919
   10    2    8    4       -0.0169878408
   10    2    9    4       -0.0004530000
   10    2    8    5        0.0004530000
   10    2    9    5       -0.0169878408
   10    2    7    6       -0.0090759592
    3    3    1    1        0.4203213086
    3    3    3    1       -0.1013508299
    3    3    2    2        0.4086277390
    3    3    3    3        0.4201136322
    4    3    4    1       -0.0139092393
    4    3    4    3        0.0207678565
    5    3    5    1       -0.0139092393
    5    3    5    3        0.0207678565
    6    3    1    1        0.0318888728
    6    3    3    1       -0.0196771912
    6    3    6    1       -0.0116569928
    6    3    2    2        0.0224129905
    6    3    3    3        0.0427145461
    6    3    6    3        0.0211689973
    6    3    4    4        0.0355652801
    6    3    5    5        0.0355652801
    7    3    2    1       -0.1242690076
    7    3    7    1       -0.0379349828
    7    3    3    2        0.0058967431
    7    3    6    2       -0.0797075502
    7    3    7    3        0.1070295897
    8    3    8    1       -0.0045609988
    8    3    4    2       -0.0022724095
    8    3    5    2        0.0000605964
    8    3    8    3        0.0121041656
    8    3    7    4       -0.0116477538
    8    3    7    5        0.0003106006
    9    3    9    1       -0.0045609988
    9    3    4    2       -0.0000605964
    9    3    5    2       -0.0022724095
    9    3    9    3        0.0121041656
    9    3    7    4       -0.0003106006
    9    3    7    5       -0.0116477538
   10    3    1    1       -0.1009187530
   10    3    3    1        0.0784740885
   10    3    6    1        0.0077580911
   10    3   10    1       -0.0290365009
   10    3    2    2       -0.0806277539
   10    3    7    2       -0.0636602743
   10    3    3    3       -0.1196469030
   10    3    6    3       -0.0267309776
   10    3   10    3        0.0985205847
   10    3    4    4       -0.0929029740
   10    3    5    5       -0.0929029740
   10    3    6    6       -0.0946104993
   10    3    7    7       -0.1092144078
   10    3    8    8       -0.0882533716
   10    3    9    9       -0.0882533716
    4    4    1    1        0.4304057428
    4    4    3    1       -0.0862078431
    4    4    2    2        0.4174304991
    4    4    3    3        0.3979415998
    4    4    4    4        0.4516320342
    5    4    5    4        0.0210555128
    6    4    4    1       -0.0355562074
    6    4    4    3        0.0099852282
    6    4    6    4        0.0361824766
    7    4    4    2        0.0006525470
    7    4    7    4        0.0119783218
    8    4    2    1        0.1234362704
    8    4    7    1        0.0271120326
    8    4    3    2       -0.0016689148
    8    4    6    2        0.0719207186
    8    4    7    3       -0.0874730305
    8    4    8    4        0.1145265914
    8    4    7    6        0.0388388039
    9    4    2    1        0.0032915682
    9    4    7    1        0.0007229731
    9    4    3    2       -0.0000445035
    9    4    6    2        0.0019178475
    9    4    7    3       -0.0023325676
    9    4    8    4        0.0027090641
    9    4    9    4        0.0130069009
    9    4    8    5        0.0128624203
    9    4    7    6        0.0010356808
   10    4    4    1       -0.0243546281
   10    4    8    2       -0.0222967924
   10    4    9    2       -0.0005945693
   10    4    4    3       -0.0013176277
   10    4    6    4        0.0152908890
   10    4   10    4        0.0193384066
   10    4    8    7        0.0018073194
   10    4    9    7        0.0000481942
    5    5    1    1        0.4304057428
    5    5    3    1       -0.0862078431
    5    5    2    2        0.4174304991
    5    5    3    3        0.3979415998
    5    5    4    4        0.4095210086
    5    5    5    5        0.4516320342
    6    5    5    1       -0.0355562074
    6    5    5    3        0.0099852282
    6    5    6    5        0.0361824766
    7    5    5    2        0.0006525470
    7    5    7    5        0.0119783218
    8    5    2    1       -0.0032915682
    8    5    7    1       -0.0007229731
    8    5    3    2        0.0000445035
    8    5    6    2       -0.0019178475
    8    5    7    3        0.0023325676
    8    5    8    4       -0.0027090641
    8    5    8    5        0.0130069009
    8    5    7    6       -0.0010356808
    9    5    2    1        0.1234362704
    9    5    7    1        0.0271120326
    9    5    3    2       -0.0016689148
    9    5    6    2        0.0719207186
    9    5    7    3       -0.0874730305
    9    5    8    4        0.0886572702
    9    5    9    4        0.0027090641
    9    5    8    5       -0.0027090641
    9    5    9    5        0.1145265914
    9    5    7    6        0.0388388039
   10    5    5    1       -0.0243546281
   10    5    8    2        0.0005945693
   10    5    9    2       -0.0222967924
   10    5    5    3       -0.0013176277
   10    5    6    5        0.0152908890
   10    5   10    5        0.0193384066
   10    5    8    7       -0.0000481942
   10    5    9    7        0.0018073194
    6    6    1    1        0.4739941023
    6    6    3    1       -0.0912614636
    6    6    6    1        0.0680609725
    6    6    2    2        0.4902207833
    6    6    3    3        0.4131610246
    6    6    6    3        0.0279217543
    6    6    4    4        0.4302678289
    6    6    5    5        0.4302678289
    6    6    6    6        0.5038515612
    7    6    2    1        0.0648709210
    7    6    7    1        0.0406481866
    7    6    3    2       -0.0176004851
    7    6    6    2        0.0562529916
    7    6    7    3       -0.0444299995
    7    6    7    6        0.0461077623
    8    6    8    1        0.0135317745
    8    6    4    2        0.0085043537
    8    6    5    2       -0.0002267782
    8    6    8    3       -0.0005217992
    8    6    7    4        0.0030260159
    8    6    7    5       -0.0000806921
    8    6    8    6        0.0158463130
    9    6    9    1        0.0135317745
    9    6    4    2        0.0002267782
    9    6    5    2        0.0085043537
    9    6    9    3       -0.0005217992
    9    6    7    4        0.0000806921
    9    6    7    5        0.0030260159
    9    6    9    6        0.0158463130
   10    6    1    1       -0.0183350338
   10    6    2    1       -0.0000000001
   10    6    3    1        0.0128184466
   10    6    6    1       -0.0192320897
   10    6   10    1       -0.0101686171
   10    6    2    2       -0.0251120750
   10    6    7    2       -0.0146518693
   10    6    3    3       -0.0202910823
   10    6    6    3       -0.0053331633
   10    6   10    3        0.0178470803
   10    6    4    4       -0.0003563501
   10    6    5    5       -0.0003563501
   10    6    6    6       -0.0198714537
   10    6   10    6        0.0176875554
   10    6    7    7       -0.0228009466
   10    6    8    8       -0.0134935055
   10    6    9    9       -0.0134935055
    7    7    1    1        0.4693432713
    7    7    3    1       -0.1034784788
    7    7    6    1        0.0690038064
    7    7    2    2        0.4842862869
    7    7    7    2        0.1195197947
    7    7    3    3        0.4331636857
    7    7    6    3        0.0230570452
    7    7    4    4        0.4153020062
    7    7    5    5        0.4153020062
    7    7    6    6        0.4722517617
    7    7    7    7        0.5064437651
    8    7    4    1        0.0076622923
    8    7    5    1       -0.0002043237
    8    7    8    2        0.0090191938
    8    7    4    3       -0.0158891491
    8    7    5    3        0.0004237022
    8    7    6    4        0.0005820020
    8    7    6    5       -0.0000155197
    8    7    8    7        0.0205942618
    9    7    4    1        0.0002043237
    9    7    5    1        0.0076622923
    9    7    9    2        0.0090191938
    9    7    4    3       -0.0004237022
    9    7    5    3       -0.0158891491
    9    7    6    4        0.0000155197
    9    7    6    5        0.0005820020
    9    7    9    7        0.0205942618
   10    7    2    1        0.0039294057
   10    7    7    1        0.0293516375
   10    7    3    2       -0.0243938937
   10    7    6    2       -0.0017148805
   10    7   10    2        0.0038807460
   10    7    7    3       -0.0125807306
   10    7    8    4        0.0058642366
   10    7    9    4        0.0001563765
   10    7    8    5       -0.0001563765
   10    7    9    5        0.0058642366
   10    7    7    6        0.0082919455
   10    7   10    7        0.0307793402
    8    8    1    1        0.4644473493
    8    8    3    1       -0.0835140915
    8    8    6    1        0.0492546112
    8    8    2    2        0.4752714282
    8    8    7    2        0.0880926921
    8    8    3    3        0.4082270561
    8    8    6    3        0.0281502756
    8    8    4    4        0.4534720364
    8    8    5    4       -0.0009381322
    8    8    5    5        0.4183163929
    8    8    6    6        0.4630162711
    8    8    7    7        0.4583479552
    8    8    8    8        0.4991629421
    9    8    4    4        0.0009381322
    9    8    5    4        0.0175778217
    9    8    5    5       -0.0009381322
    9    8    9    8        0.0217079904
   10    8    8    1       -0.0181649864
   10    8    4    2       -0.0139349026
   10    8    5    2        0.0003715900
   10    8    8    3       -0.0008556232
   10    8    7    4        0.0017267215
   10    8    7    5       -0.0000460450
   10    8    8    6       -0.0035692640
   10    8   10    8        0.0113846448
    9    9    1    1        0.4644473493
    9    9    3    1       -0.0835140915
    9    9    6    1        0.0492546112
    9    9    2    2        0.4752714282
    9    9    7    2        0.0880926921
    9    9    3    3        0.4082270561
    9    9    6    3        0.0281502756
    9    9    4    4        0.4183163929
    9    9    5    4        0.0009381322
    9    9    5    5        0.4534720364
    9    9    6    6        0.4630162711
    9    9    7    7        0.4583479552
    9    9    8    8        0.4557469613
    9    9    9    9        0.4991629421
   10    9    9    1       -0.0181649864
   10    9    4    2       -0.0003715900
   10    9    5    2       -0.0139349026
   10    9    9    3       -0.0008556232
   10    9    7    4        0.0000460450
   10    9    7    5        0.0017267215
   10    9    9    6       -0.0035692640
   10    9   10    9        0.0113846448
   10   10    1    1        0.4243660033
   10   10    2    1       -0.0000000001
   10   10    3    1       -0.1071714119
   10   10    6    1        0.0087290039
   10   10   10    1        0.0286504186
   10   10    2    2        0.4079130925
   10   10    7    2        0.0865001735
   10   10    3    3        0.4275958258
   10   10    6    3        0.0456085078
   10   10   10    3       -0.1306502413
   10   10    4    4        0.4055311283
   10   10    5    5        0.4055311283
   10   10    6    6        0.4175805294
   10   10   10    6       -0.0191986007
   10   10    7    7        0.4334094970
   10   10    8    8        0.4114072297
   10   10    9    9        0.4114072297
   10   10   10   10        0.4454838434
 end_two_electron_integrals
 enrep_tce =   0.31746031746031739     
  EHF(A)             =        -0.97123070
  EHF(total)         =        -0.97123070
  Shift (HFtot-HFA)  =        -0.00000000
 Cpu & wall time / sec            1.7            1.7
 T1-number-of-tasks                    9

 t1 file size   =                9
 t1 file name   = ./H2.t1
 t1 file handle =       -998
 T2-number-of-boxes                  126

 t2 file size   =              126
 t2 file name   = ./H2.t2
 t2 file handle =       -996
CCSD iterations
 ---------------------------------------------------------
 Iter          Residuum       Correlation     Cpu    Wall 
 ---------------------------------------------------------
NEW TASK SCHEDULING
CCSD_T1_NTS --- OK
CCSD_T2_NTS --- OK
    1   0.4345638721590  -0.0898403690360     0.4     0.5
    2   1.1105670577832   0.0038455264312     0.4     0.6
    3   3.4959392270194  -0.2424938182889     0.4     0.5
    4  10.7068818360640   0.4726816709475     0.3     0.5
    5  46.9600569634085  -1.0724741725067     0.4     0.5
 MICROCYCLE DIIS UPDATE:                    5                    5
    6   0.0445948228030  -0.0653993278750     0.5     0.5
    7   0.0943939077890  -0.0740034455665     0.5     0.5
    8   0.2981804140391  -0.0738181467494     0.3     0.5
    9   1.0179215489443  -0.0674701479962     0.4     0.5
   10   3.5722783863336  -0.0927273147348     0.5     0.5
 MICROCYCLE DIIS UPDATE:                   10                    5
   11   0.0027831810440  -0.0763474123775     0.4     0.5
   12   0.0050169079294  -0.0758495156853     0.4     0.5
   13   0.0126285918600  -0.0765045707024     0.6     0.6
   14   0.0430574531441  -0.0751582262736     0.4     0.5
   15   0.1682591447523  -0.0771642075869     0.3     0.5
 MICROCYCLE DIIS UPDATE:                   15                    5
   16   0.0001198971393  -0.0760917508928     0.3     0.6
   17   0.0001315633893  -0.0760625881493     0.3     0.5
   18   0.0002943537008  -0.0760792857410     0.5     0.5
   19   0.0006989910235  -0.0760146406791     0.4     0.5
   20   0.0017152230640  -0.0761710823608     0.4     0.5
 MICROCYCLE DIIS UPDATE:                   20                    5
   21   0.0000022376185  -0.0760577566034     0.5     0.5
   22   0.0000037697099  -0.0760576088472     0.5     0.5
   23   0.0000088652983  -0.0760575690210     0.4     0.6
   24   0.0000263681487  -0.0760578535730     0.4     0.5
   25   0.0000948702031  -0.0760569949392     0.4     0.5
 MICROCYCLE DIIS UPDATE:                   25                    5
   26   0.0000000574918  -0.0760576358443     0.5     0.5
 -----------------------------------------------------------------
 Iterations converged
 CCSD correlation energy / hartree =        -0.076057635844273
 CCSD total energy / hartree       =        -1.047288338114954

 Singles contributions

 Doubles contributions
     2a   (alpha)     2a   (beta ) ---     1a   (alpha)     1a   (beta )       -0.3662694193
     3a   (alpha)     3a   (beta ) ---     1a   (alpha)     1a   (beta )       -0.0412920203
     4a   (alpha)     4a   (beta ) ---     1a   (alpha)     1a   (beta )       -0.0368111991
     5a   (alpha)     5a   (beta ) ---     1a   (alpha)     1a   (beta )       -0.0368111991
 Ground state specification:
 exp(T)|Ref>~(1+T)|Ref>
 ------- a(p)+/a(q) strings ----------

 singles norm

 doubles norm

 Reference string
  0.93899682111630733      :(1a)+ (1b)+ |0>

 Singles strings

 Doubles strings
 -0.34392582039368524      :(2a)+ (2b)+ (1b)  (1a)  (1a)+ (1b)+ |0>
 -------------------------------------

 Parallel integral file used      20 records with       0 large values


 Task  times  cpu:       12.8s     wall:       16.2s


                                NWChem Input Module
                                -------------------


 Summary of allocated global arrays
-----------------------------------
  No active global arrays


MA_summarize_allocated_blocks: starting scan ...
MA_summarize_allocated_blocks: scan completed: 0 heap blocks, 0 stack blocks
MA usage statistics:

	allocation statistics:
					      heap	     stack
					      ----	     -----
	current number of blocks	         0	         0
	maximum number of blocks	        18	        42
	current total bytes		         0	         0
	maximum total bytes		  51983048	  61995224
	maximum total K-bytes		     51984	     61996
	maximum total M-bytes		        52	        62


                                     CITATION
                                     --------
                Please cite the following reference when publishing
                           results obtained with NWChem:

          E. Apra, E. J. Bylaska, W. A. de Jong, N. Govind, K. Kowalski,
       T. P. Straatsma, M. Valiev, H. J. J. van Dam, Y. Alexeev, J. Anchell,
       V. Anisimov, F. W. Aquino, R. Atta-Fynn, J. Autschbach, N. P. Bauman,
     J. C. Becca, D. E. Bernholdt, K. Bhaskaran-Nair, S. Bogatko, P. Borowski,
         J. Boschen, J. Brabec, A. Bruner, E. Cauet, Y. Chen, G. N. Chuev,
      C. J. Cramer, J. Daily, M. J. O. Deegan, T. H. Dunning Jr., M. Dupuis,
   K. G. Dyall, G. I. Fann, S. A. Fischer, A. Fonari, H. Fruchtl, L. Gagliardi,
      J. Garza, N. Gawande, S. Ghosh, K. Glaesemann, A. W. Gotz, J. Hammond,
       V. Helms, E. D. Hermes, K. Hirao, S. Hirata, M. Jacquelin, L. Jensen,
   B. G. Johnson, H. Jonsson, R. A. Kendall, M. Klemm, R. Kobayashi, V. Konkov,
      S. Krishnamoorthy, M. Krishnan, Z. Lin, R. D. Lins, R. J. Littlefield,
      A. J. Logsdail, K. Lopata, W. Ma, A. V. Marenich, J. Martin del Campo,
   D. Mejia-Rodriguez, J. E. Moore, J. M. Mullin, T. Nakajima, D. R. Nascimento,
    J. A. Nichols, P. J. Nichols, J. Nieplocha, A. Otero-de-la-Roza, B. Palmer,
    A. Panyala, T. Pirojsirikul, B. Peng, R. Peverati, J. Pittner, L. Pollack,
   R. M. Richard, P. Sadayappan, G. C. Schatz, W. A. Shelton, D. W. Silverstein,
   D. M. A. Smith, T. A. Soares, D. Song, M. Swart, H. L. Taylor, G. S. Thomas,
            V. Tipparaju, D. G. Truhlar, K. Tsemekhman, T. Van Voorhis,
      A. Vazquez-Mayagoitia, P. Verma, O. Villa, A. Vishnu, K. D. Vogiatzis,
        D. Wang, J. H. Weare, M. J. Williamson, T. L. Windus, K. Wolinski,
        A. T. Wong, Q. Wu, C. Yang, Q. Yu, M. Zacharias, Z. Zhang, Y. Zhao,
                                and R. J. Harrison
                        "NWChem: Past, present, and future
                         J. Chem. Phys. 152, 184102 (2020)
                               doi:10.1063/5.0004997

                                      AUTHORS
                                      -------
  E. Apra, E. J. Bylaska, N. Govind, K. Kowalski, M. Valiev, D. Mejia-Rodriguez,
       A. Kunitsa, N. P. Bauman, A. Panyala, W. A. de Jong, T. P. Straatsma,
        H. J. J. van Dam, D. Wang, T. L. Windus, J. Hammond, J. Autschbach,
    K. Bhaskaran-Nair, J. Brabec, K. Lopata, S. A. Fischer, S. Krishnamoorthy,
     M. Jacquelin, W. Ma, M. Klemm, O. Villa, Y. Chen, V. Anisimov, F. Aquino,
    S. Hirata, M. T. Hackler, Eric Hermes, L. Jensen, J. E. Moore, J. C. Becca,
      V. Konjkov, T. Risthaus, M. Malagoli, A. Marenich, A. Otero-de-la-Roza,
        J. Mullin, P. Nichols, R. Peverati, J. Pittner, Y. Zhao, P.-D. Fan,
        A. Fonari, M. J. Williamson, R. J. Harrison, J. R. Rehr, M. Dupuis,
     D. Silverstein, D. M. A. Smith, J. Nieplocha, V. Tipparaju, M. Krishnan,
     B. E. Van Kuiken, A. Vazquez-Mayagoitia, M. Swart, Q. Wu, T. Van Voorhis,
     A. A. Auer, M. Nooijen, L. D. Crosby, E. Brown, G. Cisneros, G. I. Fann,
   H. Fruchtl, J. Garza, K. Hirao, R. A. Kendall, J. A. Nichols, K. Tsemekhman,
    K. Wolinski, J. Anchell, D. E. Bernholdt, P. Borowski, T. Clark, D. Clerc,
   H. Dachsel, M. J. O. Deegan, K. Dyall, D. Elwood, E. Glendening, M. Gutowski,
   A. C. Hess, J. Jaffe, B. G. Johnson, J. Ju, R. Kobayashi, R. Kutteh, Z. Lin,
   R. Littlefield, X. Long, B. Meng, T. Nakajima, S. Niu, L. Pollack, M. Rosing,
   K. Glaesemann, G. Sandrone, M. Stave, H. Taylor, G. Thomas, J. H. van Lenthe,
                               A. T. Wong, Z. Zhang.

 Total times  cpu:       15.5s     wall:       20.1s
