 argument  1 = input.nw
  NWChem w/ OpenMP: maximum threads =    1



============================== echo of input deck ==============================
 echo
 start H2
 title "H2"

 memory total 24 gb

 geometry units bohr
 symmetry c1
        H  0.00000000  0.00000000  0.00000000
        H  0.00000000  3.30  0.00000000
 end

 basis
   * library cc-pVQZ
 end

 mcscf
   active  10
   actelec 2
   multiplicity 1
   maxiter 40
   vectors input H2.mos
   vectors output H2.mos
 end

 task mcscf

 scf
   vectors input H2.mos
   vectors output H2-3.30.mos
   noscf
 end

 tce
   2eorb
   2emet 13
   ccsd
   maxiter 300
 end

 set tce:print_integrals T
 set tce:qorb 10
 set tce:qela 1
 set tce:qelb 1

# set tce:qducc T
# set tce:nactv 1
# set tce:nonhf T
# set tce:ducc_model 6

 set tce:printtol 0.02

 task tce
================================================================================


                                         
                                         


             Northwest Computational Chemistry Package (NWChem) 7.0.1
             --------------------------------------------------------


                    Environmental Molecular Sciences Laboratory
                       Pacific Northwest National Laboratory
                                Richland, WA 99352

                              Copyright (c) 1994-2020
                       Pacific Northwest National Laboratory
                            Battelle Memorial Institute

             NWChem is an open-source computational chemistry package
                        distributed under the terms of the
                      Educational Community License (ECL) 2.0
             A copy of the license is included with this distribution
                              in the LICENSE.TXT file

                                  ACKNOWLEDGMENT
                                  --------------

            This software and its documentation were developed at the
            EMSL at Pacific Northwest National Laboratory, a multiprogram
            national laboratory, operated for the U.S. Department of Energy
            by Battelle under Contract Number DE-AC05-76RL01830. Support
            for this work was provided by the Department of Energy Office
            of Biological and Environmental Research, Office of Basic
            Energy Sciences, and the Office of Advanced Scientific Computing.


           Job information
           ---------------

    hostname        = WE46210
    program         = /home/baum612/code/nwchem/bin/LINUX64/nwchem
    date            = Thu Nov  9 16:01:03 2023

    compiled        = Mon_Nov_06_10:06:57_2023
    source          = /home/baum612/code/nwchem
    nwchem branch   = 7.0.0
    nwchem revision = nwchem_on_git-4191-g39d87d64de
    ga revision     = 5.8.1
    use scalapack   = F
    input           = input.nw
    prefix          = H2.
    data base       = ./H2.db
    status          = startup
    nproc           =        1
    time left       =     -1s



           Memory information
           ------------------

    heap     =  805306362 doubles =   6144.0 Mbytes
    stack    =  805306367 doubles =   6144.0 Mbytes
    global   = 1610612736 doubles =  12288.0 Mbytes (distinct from heap & stack)
    total    = 3221225465 doubles =  24576.0 Mbytes
    verify   = yes
    hardfail = no 


           Directory information
           ---------------------

  0 permanent = .
  0 scratch   = .




                                NWChem Input Module
                                -------------------


                                        H2
                                        --
 Turning off AUTOSYM since
 SYMMETRY directive was detected!


          ------
          auto-z
          ------
     1 autoz failed with cvr_scaling = 1.2 changing to 1.3
     2 autoz failed with cvr_scaling = 1.3 changing to 1.4
     3 autoz failed with cvr_scaling = 1.4 changing to 1.5
     4 autoz failed with cvr_scaling = 1.5 changing to 1.6
     5 autoz failed with cvr_scaling = 1.6 changing to 1.7

 AUTOZ failed to generate good internal coordinates.
 Cartesian coordinates will be used in optimizations.



                             Geometry "geometry" -> ""
                             -------------------------

 Output coordinates in a.u. (scale by  1.000000000 to convert to a.u.)

  No.       Tag          Charge          X              Y              Z
 ---- ---------------- ---------- -------------- -------------- --------------
    1 H                    1.0000     0.00000000    -1.65000000     0.00000000
    2 H                    1.0000     0.00000000     1.65000000     0.00000000

      Atomic Mass 
      ----------- 

      H                  1.007825


 Effective nuclear repulsion energy (a.u.)       0.3030303030

            Nuclear Dipole moment (a.u.) 
            ----------------------------
        X                 Y               Z
 ---------------- ---------------- ----------------
     0.0000000000     0.0000000000     0.0000000000


            XYZ format geometry
            -------------------
     2
 geometry
 H                     0.00000000    -0.87314246     0.00000000
 H                     0.00000000     0.87314246     0.00000000



 Summary of "ao basis" -> "" (cartesian)
 ------------------------------------------------------------------------------
       Tag                 Description            Shells   Functions and Types
 ---------------- ------------------------------  ------  ---------------------
 *                          cc-pVQZ                   on all atoms 


                      Basis "ao basis" -> "ao basis" (cartesian)
                      -----
  H (Hydrogen)
  ------------
            Exponent  Coefficients 
       -------------- ---------------------------------------------------------
  1 S  8.26400000E+01  0.002006
  1 S  1.24100000E+01  0.015343
  1 S  2.82400000E+00  0.075579

  2 S  7.97700000E-01  1.000000

  3 S  2.58100000E-01  1.000000

  4 S  8.98900000E-02  1.000000

  5 P  2.29200000E+00  1.000000

  6 P  8.38000000E-01  1.000000

  7 P  2.92000000E-01  1.000000

  8 D  2.06200000E+00  1.000000

  9 D  6.62000000E-01  1.000000

 10 F  1.39700000E+00  1.000000



 Summary of "ao basis" -> "ao basis" (cartesian)
 ------------------------------------------------------------------------------
       Tag                 Description            Shells   Functions and Types
 ---------------- ------------------------------  ------  ---------------------
 H                          cc-pVQZ                 10       35   4s3p2d1f



                            NWChem Direct MCSCF Module
                            --------------------------


                                        H2


     -----------------------------------
       Basis functions:             70
       Inactive shells:              0
       Active shells:               10
       Active electrons:             2
       Symmetry:                    a       
       Multiplicity:                 1
       Orbital rotations:          600
     -----------------------------------

     -----------------------------------
       E2 extrapolation:             F
       Conjugacy:                    T
       Micro CI relax:               T
       Canonical orbitals:           T
       Maximum iterations:          40
       Converge threshold:    1.00E-04
       Conjugacy resets:            20
       Initial levelshift:        0.10
     -----------------------------------

 Loading old vectors from job with title :

H2


   input molecular orbitals = ./H2.mos
  output molecular orbtials = ./H2.mos

       No. of determinants:           100


  Starting Orbital Energies
    -0.419520    -0.084766    -0.001648    -0.001275    -0.001275    -0.000172
    -0.000094    -0.000088    -0.000088    -0.000041     0.479528     0.816013
     1.044442     1.404350     1.404350     1.650492     1.650492     1.892274
     1.900913     1.900913     2.019069     2.019069     2.165461     2.165461
     2.278671     2.515838     2.515838     2.933027     2.982437     3.350835
     4.393853     4.393853     4.447905     4.447905     4.566679     4.675130
     5.764014     5.847009     5.847009     5.994621     5.994621     6.061203
     6.061203     6.074036     6.074036     6.146003     6.146003     6.443368
     6.443368     7.141400     8.081537     8.081537     8.094753     8.094753
     8.185420     8.185420     8.385810     8.477168     8.477168     9.193028
     9.621605     9.712607     9.712607     9.737004     9.737004     9.757299
     9.979230     9.987797    22.728347    23.214700

  Orbital Symmetry Irreps
a    a    a    a    a    a    a    a    a    a    a    a    a    a    a   
a    a    a    a    a    a    a    a    a    a    a    a    a    a    a   
a    a    a    a    a    a    a    a    a    a    a    a    a    a    a   
a    a    a    a    a    a    a    a    a    a    a    a    a    a    a   
a    a    a    a    a    a    a    a    a    a   

 Integral file          = ./H2.aoints.0
 Record size in doubles =  65536        No. of integs per rec  =  43688
 Max. records in memory =     99        Max. records in file   = 280222
 No. of bits per label  =      8        No. of bits per value  =     64


 #quartets = 2.214D+04 #integrals = 8.520D+05 #direct =  0.0% #cached =100.0%




          %%%%% MacroIteration   1 %%%%%


          Number of sigma calls:       13
                       o<<<<< (aa):             0.00
                       o<<<<< (bb):             0.00
                       o<<<<< (ab):             0.01
                       o<<<<< (total)           0.01
                       o<<<<< (aa) ff           0.00
                       o<<<<< (aa) gop          0.00
                       o<<<<< (aa) dot          0.00
                       o<<<<< (ab) str          0.00
                       o<<<<< (ab) gath         0.00
                       o<<<<< (ab) dotab        0.00
                       o<<<<< (ab) scat         0.00
                       o<<<<< (ab) sync         0.00
                       o<<<<< Density           0.00
                       o<<<<< Density one       0.00
                       o<<<<< Density two       0.00
                       o<<<<< Density ab        0.00
                       o<<<<< Spin adapt        0.00
                       o<<<<< Symm adapt        0.00

                       o<<<<< (ab) max sync:      0.00

           >>>| Valence CI:             -1.342609364197
           >>>| MCSCF energy:           -1.039579061166
           >>>| Gradient norm:          0.346206027D-02
     --- Warning:  406 Hessian diagonals < 0.05 ---

                              ----- Line search ------

        step       energy         lsg     num-lsg   num-lsh   lsrat    time
      ------- ---------------- --------- --------- --------- ------- --------
       0.0000      -1.03957906 -1.96D-06  0.00D+00  0.00D+00 0.0D+00      0.4

          Number of sigma calls:       12
                       o<<<<< (aa):             0.00
                       o<<<<< (bb):             0.00
                       o<<<<< (ab):             0.01
                       o<<<<< (total)           0.01
                       o<<<<< (aa) ff           0.00
                       o<<<<< (aa) gop          0.00
                       o<<<<< (aa) dot          0.00
                       o<<<<< (ab) str          0.00
                       o<<<<< (ab) gath         0.00
                       o<<<<< (ab) dotab        0.00
                       o<<<<< (ab) scat         0.00
                       o<<<<< (ab) sync         0.00
                       o<<<<< Density           0.00
                       o<<<<< Density one       0.00
                       o<<<<< Density two       0.00
                       o<<<<< Density ab        0.00
                       o<<<<< Spin adapt        0.00
                       o<<<<< Symm adapt        0.00

                       o<<<<< (ab) max sync:      0.00
       1.0000      -1.03958031 -5.39D-07 -5.39D-07  1.42D-06 2.7D-01      0.6

          Number of sigma calls:       11
                       o<<<<< (aa):             0.00
                       o<<<<< (bb):             0.00
                       o<<<<< (ab):             0.00
                       o<<<<< (total)           0.00
                       o<<<<< (aa) ff           0.00
                       o<<<<< (aa) gop          0.00
                       o<<<<< (aa) dot          0.00
                       o<<<<< (ab) str          0.00
                       o<<<<< (ab) gath         0.00
                       o<<<<< (ab) dotab        0.00
                       o<<<<< (ab) scat         0.00
                       o<<<<< (ab) sync         0.00
                       o<<<<< Density           0.00
                       o<<<<< Density one       0.00
                       o<<<<< Density two       0.00
                       o<<<<< Density ab        0.00
                       o<<<<< Spin adapt        0.00
                       o<<<<< Symm adapt        0.00

                       o<<<<< (ab) max sync:      0.00
       1.3791      -1.03958041  5.57D-10  5.33D-10  1.42D-06 2.8D-04      0.7
     --- Orbitals canonicalized ---



          %%%%% MacroIteration   2 %%%%%


          Number of sigma calls:       13
                       o<<<<< (aa):             0.00
                       o<<<<< (bb):             0.00
                       o<<<<< (ab):             0.01
                       o<<<<< (total)           0.01
                       o<<<<< (aa) ff           0.00
                       o<<<<< (aa) gop          0.00
                       o<<<<< (aa) dot          0.00
                       o<<<<< (ab) str          0.00
                       o<<<<< (ab) gath         0.00
                       o<<<<< (ab) dotab        0.00
                       o<<<<< (ab) scat         0.00
                       o<<<<< (ab) sync         0.00
                       o<<<<< Density           0.00
                       o<<<<< Density one       0.00
                       o<<<<< Density two       0.00
                       o<<<<< Density ab        0.00
                       o<<<<< Spin adapt        0.00
                       o<<<<< Symm adapt        0.00

                       o<<<<< (ab) max sync:      0.00

           >>>| Valence CI:             -1.342610715708
           >>>| MCSCF energy:           -1.039580412678
           >>>| Gradient norm:          0.107882065D-02
     --- Warning:  405 Hessian diagonals < 0.05 ---
     --- Conjugacy reset ---

                              ----- Line search ------

        step       energy         lsg     num-lsg   num-lsh   lsrat    time
      ------- ---------------- --------- --------- --------- ------- --------
       0.0000      -1.03958041 -1.71D-07  0.00D+00  0.00D+00 0.0D+00      1.0

          Number of sigma calls:       10
                       o<<<<< (aa):             0.00
                       o<<<<< (bb):             0.00
                       o<<<<< (ab):             0.00
                       o<<<<< (total)           0.00
                       o<<<<< (aa) ff           0.00
                       o<<<<< (aa) gop          0.00
                       o<<<<< (aa) dot          0.00
                       o<<<<< (ab) str          0.00
                       o<<<<< (ab) gath         0.00
                       o<<<<< (ab) dotab        0.00
                       o<<<<< (ab) scat         0.00
                       o<<<<< (ab) sync         0.00
                       o<<<<< Density           0.00
                       o<<<<< Density one       0.00
                       o<<<<< Density two       0.00
                       o<<<<< Density ab        0.00
                       o<<<<< Spin adapt        0.00
                       o<<<<< Symm adapt        0.00

                       o<<<<< (ab) max sync:      0.00
       1.0000      -1.03958052 -5.00D-08 -5.00D-08  1.21D-07 2.9D-01      1.2

          Number of sigma calls:        9
                       o<<<<< (aa):             0.00
                       o<<<<< (bb):             0.00
                       o<<<<< (ab):             0.01
                       o<<<<< (total)           0.01
                       o<<<<< (aa) ff           0.00
                       o<<<<< (aa) gop          0.00
                       o<<<<< (aa) dot          0.00
                       o<<<<< (ab) str          0.00
                       o<<<<< (ab) gath         0.00
                       o<<<<< (ab) dotab        0.00
                       o<<<<< (ab) scat         0.00
                       o<<<<< (ab) sync         0.00
                       o<<<<< Density           0.00
                       o<<<<< Density one       0.00
                       o<<<<< Density two       0.00
                       o<<<<< Density ab        0.00
                       o<<<<< Spin adapt        0.00
                       o<<<<< Symm adapt        0.00

                       o<<<<< (ab) max sync:      0.00
       1.4125      -1.03958053  3.35D-11  3.15D-11  1.21D-07 2.0D-04      1.3



          %%%%% MacroIteration   3 %%%%%


          Number of sigma calls:        1
                       o<<<<< (aa):             0.00
                       o<<<<< (bb):             0.00
                       o<<<<< (ab):             0.00
                       o<<<<< (total)           0.00
                       o<<<<< (aa) ff           0.00
                       o<<<<< (aa) gop          0.00
                       o<<<<< (aa) dot          0.00
                       o<<<<< (ab) str          0.00
                       o<<<<< (ab) gath         0.00
                       o<<<<< (ab) dotab        0.00
                       o<<<<< (ab) scat         0.00
                       o<<<<< (ab) sync         0.00
                       o<<<<< Density           0.00
                       o<<<<< Density one       0.00
                       o<<<<< Density two       0.00
                       o<<<<< Density ab        0.00
                       o<<<<< Spin adapt        0.00
                       o<<<<< Symm adapt        0.00

                       o<<<<< (ab) max sync:      0.00

           >>>| Valence CI:             -1.342610836594
           >>>| MCSCF energy:           -1.039580533564
           >>>| Gradient norm:          0.422716385D-03
     --- Warning:  405 Hessian diagonals < 0.05 ---

                              ----- Line search ------

        step       energy         lsg     num-lsg   num-lsh   lsrat    time
      ------- ---------------- --------- --------- --------- ------- --------
       0.0000      -1.03958053 -1.75D-08  0.00D+00  0.00D+00 0.0D+00      1.4

          Number of sigma calls:        8
                       o<<<<< (aa):             0.00
                       o<<<<< (bb):             0.00
                       o<<<<< (ab):             0.01
                       o<<<<< (total)           0.01
                       o<<<<< (aa) ff           0.00
                       o<<<<< (aa) gop          0.00
                       o<<<<< (aa) dot          0.00
                       o<<<<< (ab) str          0.00
                       o<<<<< (ab) gath         0.00
                       o<<<<< (ab) dotab        0.00
                       o<<<<< (ab) scat         0.00
                       o<<<<< (ab) sync         0.00
                       o<<<<< Density           0.00
                       o<<<<< Density one       0.00
                       o<<<<< Density two       0.00
                       o<<<<< Density ab        0.00
                       o<<<<< Spin adapt        0.00
                       o<<<<< Symm adapt        0.00

                       o<<<<< (ab) max sync:      0.00
       1.0000      -1.03958055 -6.48D-09 -6.48D-09  1.10D-08 3.7D-01      1.6

          Number of sigma calls:        7
                       o<<<<< (aa):             0.00
                       o<<<<< (bb):             0.00
                       o<<<<< (ab):             0.01
                       o<<<<< (total)           0.01
                       o<<<<< (aa) ff           0.00
                       o<<<<< (aa) gop          0.00
                       o<<<<< (aa) dot          0.00
                       o<<<<< (ab) str          0.00
                       o<<<<< (ab) gath         0.00
                       o<<<<< (ab) dotab        0.00
                       o<<<<< (ab) scat         0.00
                       o<<<<< (ab) sync         0.00
                       o<<<<< Density           0.00
                       o<<<<< Density one       0.00
                       o<<<<< Density two       0.00
                       o<<<<< Density ab        0.00
                       o<<<<< Spin adapt        0.00
                       o<<<<< Symm adapt        0.00

                       o<<<<< (ab) max sync:      0.00
       1.5901      -1.03958055  1.46D-13  1.35D-13  1.10D-08 8.3D-06      1.7



          %%%%% MacroIteration   4 %%%%%


          Number of sigma calls:        1
                       o<<<<< (aa):             0.00
                       o<<<<< (bb):             0.00
                       o<<<<< (ab):             0.00
                       o<<<<< (total)           0.00
                       o<<<<< (aa) ff           0.00
                       o<<<<< (aa) gop          0.00
                       o<<<<< (aa) dot          0.00
                       o<<<<< (ab) str          0.00
                       o<<<<< (ab) gath         0.00
                       o<<<<< (ab) dotab        0.00
                       o<<<<< (ab) scat         0.00
                       o<<<<< (ab) sync         0.00
                       o<<<<< Density           0.00
                       o<<<<< Density one       0.00
                       o<<<<< Density two       0.00
                       o<<<<< Density ab        0.00
                       o<<<<< Spin adapt        0.00
                       o<<<<< Symm adapt        0.00

                       o<<<<< (ab) max sync:      0.00

           >>>| Valence CI:             -1.342610850476
           >>>| MCSCF energy:           -1.039580547445
           >>>| Gradient norm:          0.254219662D-03
     --- Warning:  405 Hessian diagonals < 0.05 ---

                              ----- Line search ------

        step       energy         lsg     num-lsg   num-lsh   lsrat    time
      ------- ---------------- --------- --------- --------- ------- --------
       0.0000      -1.03958055 -4.37D-08  0.00D+00  0.00D+00 0.0D+00      1.9

          Number of sigma calls:        9
                       o<<<<< (aa):             0.00
                       o<<<<< (bb):             0.00
                       o<<<<< (ab):             0.01
                       o<<<<< (total)           0.01
                       o<<<<< (aa) ff           0.00
                       o<<<<< (aa) gop          0.00
                       o<<<<< (aa) dot          0.00
                       o<<<<< (ab) str          0.00
                       o<<<<< (ab) gath         0.00
                       o<<<<< (ab) dotab        0.00
                       o<<<<< (ab) scat         0.00
                       o<<<<< (ab) sync         0.00
                       o<<<<< Density           0.00
                       o<<<<< Density one       0.00
                       o<<<<< Density two       0.00
                       o<<<<< Density ab        0.00
                       o<<<<< Spin adapt        0.00
                       o<<<<< Symm adapt        0.00

                       o<<<<< (ab) max sync:      0.00
       1.0000      -1.03958058 -2.96D-08 -2.96D-08  1.41D-08 6.8D-01      2.1

          Number of sigma calls:       10
                       o<<<<< (aa):             0.00
                       o<<<<< (bb):             0.00
                       o<<<<< (ab):             0.01
                       o<<<<< (total)           0.01
                       o<<<<< (aa) ff           0.00
                       o<<<<< (aa) gop          0.00
                       o<<<<< (aa) dot          0.00
                       o<<<<< (ab) str          0.00
                       o<<<<< (ab) gath         0.00
                       o<<<<< (ab) dotab        0.00
                       o<<<<< (ab) scat         0.00
                       o<<<<< (ab) sync         0.00
                       o<<<<< Density           0.00
                       o<<<<< Density one       0.00
                       o<<<<< Density two       0.00
                       o<<<<< Density ab        0.00
                       o<<<<< Spin adapt        0.00
                       o<<<<< Symm adapt        0.00

                       o<<<<< (ab) max sync:      0.00
       3.1025      -1.03958062  1.27D-10  1.13D-10  1.41D-08 2.9D-03      2.3



          %%%%% MacroIteration   5 %%%%%


          Number of sigma calls:        1
                       o<<<<< (aa):             0.00
                       o<<<<< (bb):             0.00
                       o<<<<< (ab):             0.00
                       o<<<<< (total)           0.00
                       o<<<<< (aa) ff           0.00
                       o<<<<< (aa) gop          0.00
                       o<<<<< (aa) dot          0.00
                       o<<<<< (ab) str          0.00
                       o<<<<< (ab) gath         0.00
                       o<<<<< (ab) dotab        0.00
                       o<<<<< (ab) scat         0.00
                       o<<<<< (ab) sync         0.00
                       o<<<<< Density           0.00
                       o<<<<< Density one       0.00
                       o<<<<< Density two       0.00
                       o<<<<< Density ab        0.00
                       o<<<<< Spin adapt        0.00
                       o<<<<< Symm adapt        0.00

                       o<<<<< (ab) max sync:      0.00

           >>>| Valence CI:             -1.342610918128
           >>>| MCSCF energy:           -1.039580615098
           >>>| Gradient norm:          0.158811274D-03
     --- Warning:  405 Hessian diagonals < 0.05 ---

                              ----- Line search ------

        step       energy         lsg     num-lsg   num-lsh   lsrat    time
      ------- ---------------- --------- --------- --------- ------- --------
       0.0000      -1.03958062 -3.57D-08  0.00D+00  0.00D+00 0.0D+00      2.5

          Number of sigma calls:        9
                       o<<<<< (aa):             0.00
                       o<<<<< (bb):             0.00
                       o<<<<< (ab):             0.01
                       o<<<<< (total)           0.01
                       o<<<<< (aa) ff           0.00
                       o<<<<< (aa) gop          0.00
                       o<<<<< (aa) dot          0.00
                       o<<<<< (ab) str          0.00
                       o<<<<< (ab) gath         0.00
                       o<<<<< (ab) dotab        0.00
                       o<<<<< (ab) scat         0.00
                       o<<<<< (ab) sync         0.00
                       o<<<<< Density           0.00
                       o<<<<< Density one       0.00
                       o<<<<< Density two       0.00
                       o<<<<< Density ab        0.00
                       o<<<<< Spin adapt        0.00
                       o<<<<< Symm adapt        0.00

                       o<<<<< (ab) max sync:      0.00
       1.0000      -1.03958064 -1.83D-08 -1.83D-08  1.74D-08 5.1D-01      2.6

          Number of sigma calls:        9
                       o<<<<< (aa):             0.00
                       o<<<<< (bb):             0.00
                       o<<<<< (ab):             0.00
                       o<<<<< (total)           0.00
                       o<<<<< (aa) ff           0.00
                       o<<<<< (aa) gop          0.00
                       o<<<<< (aa) dot          0.00
                       o<<<<< (ab) str          0.00
                       o<<<<< (ab) gath         0.00
                       o<<<<< (ab) dotab        0.00
                       o<<<<< (ab) scat         0.00
                       o<<<<< (ab) sync         0.00
                       o<<<<< Density           0.00
                       o<<<<< Density one       0.00
                       o<<<<< Density two       0.00
                       o<<<<< Density ab        0.00
                       o<<<<< Spin adapt        0.00
                       o<<<<< Symm adapt        0.00

                       o<<<<< (ab) max sync:      0.00
       2.0467      -1.03958065  1.01D-11  9.29D-12  1.75D-08 2.8D-04      2.7



          %%%%% MacroIteration   6 %%%%%


          Number of sigma calls:        1
                       o<<<<< (aa):             0.00
                       o<<<<< (bb):             0.00
                       o<<<<< (ab):             0.00
                       o<<<<< (total)           0.00
                       o<<<<< (aa) ff           0.00
                       o<<<<< (aa) gop          0.00
                       o<<<<< (aa) dot          0.00
                       o<<<<< (ab) str          0.00
                       o<<<<< (ab) gath         0.00
                       o<<<<< (ab) dotab        0.00
                       o<<<<< (ab) scat         0.00
                       o<<<<< (ab) sync         0.00
                       o<<<<< Density           0.00
                       o<<<<< Density one       0.00
                       o<<<<< Density two       0.00
                       o<<<<< Density ab        0.00
                       o<<<<< Spin adapt        0.00
                       o<<<<< Symm adapt        0.00

                       o<<<<< (ab) max sync:      0.00

           >>>| Valence CI:             -1.342610954655
           >>>| MCSCF energy:           -1.039580651625
           >>>| Gradient norm:          0.816122238D-04




     ==============================
            MCSCF Converged
     ==============================



          Canonical Eigenvalues

              1      
    1   -0.4154
    2   -0.0882
    3   -0.0016
    4   -0.0012
    5   -0.0012
    6   -0.0002
    7   -0.0001
    8   -0.0001
    9   -0.0001
   10   -0.0000
   11    0.4800
   12    0.8157
   13    1.0413
   14    1.4039
   15    1.4039
   16    1.6627
   17    1.6627
   18    1.8822
   19    1.8953
   20    1.8953
   21    2.0237
   22    2.0237
   23    2.1597
   24    2.1597
   25    2.2683
   26    2.4969
   27    2.4969
   28    2.9342
   29    2.9810
   30    3.3141
   31    4.3932
   32    4.3932
   33    4.4491
   34    4.4491
   35    4.5432
   36    4.6678
   37    5.7885
   38    5.8666
   39    5.8666
   40    6.0048
   41    6.0048
   42    6.0619
   43    6.0619
   44    6.0725
   45    6.0725
   46    6.1339
   47    6.1339
   48    6.3966
   49    6.3966
   50    7.0433
   51    8.0717
   52    8.0717
   53    8.0961
   54    8.0961
   55    8.1815
   56    8.1815
   57    8.3461
   58    8.4603
   59    8.4603
   60    9.1719
   61    9.6226
   62    9.7095
   63    9.7095
   64    9.7347
   65    9.7376
   66    9.7376
   67    9.9766
   68    9.9791
   69   22.7176
   70   23.1883


          Converged CI vector

   Index           Coefficient          Config. Occupation
         1         -0.92666571          1  1
        12          0.37081420          2  2
        23          0.03666697          3  3
        34          0.03217535          4  4
        45          0.03217535          5  5

          Number of sigma calls:        1
                       o<<<<< (aa):             0.00
                       o<<<<< (bb):             0.00
                       o<<<<< (ab):             0.00
                       o<<<<< (total)           0.00
                       o<<<<< (aa) ff           0.00
                       o<<<<< (aa) gop          0.00
                       o<<<<< (aa) dot          0.00
                       o<<<<< (ab) str          0.00
                       o<<<<< (ab) gath         0.00
                       o<<<<< (ab) dotab        0.00
                       o<<<<< (ab) scat         0.00
                       o<<<<< (ab) sync         0.00
                       o<<<<< Density           0.00
                       o<<<<< Density one       0.00
                       o<<<<< Density two       0.00
                       o<<<<< Density ab        0.00
                       o<<<<< Spin adapt        0.00
                       o<<<<< Symm adapt        0.00

                       o<<<<< (ab) max sync:      0.00



          Natural orbital occupation numbers

              1      
    1    1.7176
    2    0.2750
    3    0.0027
    4    0.0021
    5    0.0021
    6    0.0002
    7    0.0001
    8    0.0001
    9    0.0001
   10    0.0000


          Number of sigma calls:       13
                       o<<<<< (aa):             0.00
                       o<<<<< (bb):             0.00
                       o<<<<< (ab):             0.00
                       o<<<<< (total)           0.00
                       o<<<<< (aa) ff           0.00
                       o<<<<< (aa) gop          0.00
                       o<<<<< (aa) dot          0.00
                       o<<<<< (ab) str          0.00
                       o<<<<< (ab) gath         0.00
                       o<<<<< (ab) dotab        0.00
                       o<<<<< (ab) scat         0.00
                       o<<<<< (ab) sync         0.00
                       o<<<<< Density           0.00
                       o<<<<< Density one       0.00
                       o<<<<< Density two       0.00
                       o<<<<< Density ab        0.00
                       o<<<<< Spin adapt        0.00
                       o<<<<< Symm adapt        0.00

                       o<<<<< (ab) max sync:      0.00


       Final MCSCF results 
       ------------------- 

       Total MCSCF energy =     -1.039580651625
            Gradient norm =      8.2D-05

    CPU time for solution =      2.9s
   Wall time for solution =      3.8s



                        Analysis of MCSCF natural orbitals
                        ----------------------------------

 Vector    1  Occ=1.717598D+00  E=-4.153988D-01  Symmetry=a
              MO Center=  5.3D-16,  1.4D-12, -4.1D-16, r^2= 1.5D+00
   Bfn.  Coefficient  Atom+Function         Bfn.  Coefficient  Atom+Function  
  ----- ------------  ---------------      ----- ------------  ---------------
     3      0.295623  1 H  s                 38      0.295623  2 H  s          
     4      0.191339  1 H  s                 39      0.191339  2 H  s          
     2      0.155617  1 H  s                 37      0.155617  2 H  s          

 Vector    2  Occ=2.750065D-01  E=-8.815354D-02  Symmetry=a
              MO Center=  3.5D-15, -2.9D-12, -3.1D-15, r^2= 1.6D+00
   Bfn.  Coefficient  Atom+Function         Bfn.  Coefficient  Atom+Function  
  ----- ------------  ---------------      ----- ------------  ---------------
     3      0.441614  1 H  s                 38     -0.441614  2 H  s          
     2      0.230399  1 H  s                 37     -0.230399  2 H  s          
     4      0.183675  1 H  s                 39     -0.183675  2 H  s          

 Vector    3  Occ=2.700259D-03  E=-1.582282D-03  Symmetry=a
              MO Center= -4.3D-14, -1.1D-11,  2.9D-14, r^2= 2.4D+00
   Bfn.  Coefficient  Atom+Function         Bfn.  Coefficient  Atom+Function  
  ----- ------------  ---------------      ----- ------------  ---------------
     4      0.494873  1 H  s                 39      0.494873  2 H  s          
     9     -0.468229  1 H  py                44      0.468229  2 H  py         
    12     -0.308579  1 H  py                47      0.308579  2 H  py         
     3     -0.213513  1 H  s                 38     -0.213513  2 H  s          
    27      0.159802  1 H  fxxy              34      0.159802  1 H  fyzz       

 Vector    4  Occ=2.070506D-03  E=-1.210623D-03  Symmetry=a
              MO Center=  7.1D-14,  1.2D-11, -3.2D-15, r^2= 1.5D+00
   Bfn.  Coefficient  Atom+Function         Bfn.  Coefficient  Atom+Function  
  ----- ------------  ---------------      ----- ------------  ---------------
    11      0.635577  1 H  px                46      0.635577  2 H  px         
     8     -0.381591  1 H  px                43     -0.381591  2 H  px         
    21      0.273858  1 H  dxy               56     -0.273858  2 H  dxy        
    29      0.233049  1 H  fxyy              64      0.233049  2 H  fxyy       
    26      0.177025  1 H  fxxx              31      0.177025  1 H  fxzz       

 Vector    5  Occ=2.070506D-03  E=-1.210623D-03  Symmetry=a
              MO Center= -1.2D-15,  1.2D-11, -3.9D-14, r^2= 1.5D+00
   Bfn.  Coefficient  Atom+Function         Bfn.  Coefficient  Atom+Function  
  ----- ------------  ---------------      ----- ------------  ---------------
    13      0.635577  1 H  pz                48      0.635577  2 H  pz         
    10     -0.381591  1 H  pz                45     -0.381591  2 H  pz         
    24      0.273858  1 H  dyz               59     -0.273858  2 H  dyz        
    33      0.233049  1 H  fyyz              68      0.233049  2 H  fyyz       
    28      0.177025  1 H  fxxz              35      0.177025  1 H  fzzz       

 Vector    6  Occ=2.274930D-04  E=-1.622037D-04  Symmetry=a
              MO Center= -1.2D-14,  9.8D-11,  5.3D-15, r^2= 1.4D+00
   Bfn.  Coefficient  Atom+Function         Bfn.  Coefficient  Atom+Function  
  ----- ------------  ---------------      ----- ------------  ---------------
     2      0.730897  1 H  s                 37      0.730897  2 H  s          
    12     -0.340547  1 H  py                47      0.340547  2 H  py         
     3     -0.300220  1 H  s                 38     -0.300220  2 H  s          
     9      0.295754  1 H  py                44     -0.295754  2 H  py         
     4     -0.260858  1 H  s                 39     -0.260858  2 H  s          

 Vector    7  Occ=9.804670D-05  E=-8.760631D-05  Symmetry=a
              MO Center= -1.2D-11,  2.4D-10,  7.1D-12, r^2= 1.8D+00
   Bfn.  Coefficient  Atom+Function         Bfn.  Coefficient  Atom+Function  
  ----- ------------  ---------------      ----- ------------  ---------------
     2      0.663467  1 H  s                 37     -0.663467  2 H  s          
     9      0.578743  1 H  py                44      0.578743  2 H  py         
     3     -0.522014  1 H  s                 38      0.522014  2 H  s          
     4     -0.294443  1 H  s                 39      0.294443  2 H  s          

 Vector    8  Occ=9.638721D-05  E=-8.323743D-05  Symmetry=a
              MO Center=  1.2D-11, -1.3D-11, -5.8D-13, r^2= 1.3D+00
   Bfn.  Coefficient  Atom+Function         Bfn.  Coefficient  Atom+Function  
  ----- ------------  ---------------      ----- ------------  ---------------
     8      0.728511  1 H  px                43     -0.728511  2 H  px         
    11      0.365562  1 H  px                46     -0.365562  2 H  px         
    21      0.216032  1 H  dxy               56      0.216032  2 H  dxy        
    26     -0.173190  1 H  fxxx              31     -0.173190  1 H  fxzz       
    61      0.173190  2 H  fxxx              66      0.173190  2 H  fxzz       

 Vector    9  Occ=9.638721D-05  E=-8.323743D-05  Symmetry=a
              MO Center= -3.1D-13, -1.3D-11, -6.6D-12, r^2= 1.3D+00
   Bfn.  Coefficient  Atom+Function         Bfn.  Coefficient  Atom+Function  
  ----- ------------  ---------------      ----- ------------  ---------------
    10      0.728511  1 H  pz                45     -0.728511  2 H  pz         
    13      0.365562  1 H  pz                48     -0.365562  2 H  pz         
    24      0.216032  1 H  dyz               59      0.216032  2 H  dyz        
    28     -0.173190  1 H  fxxz              35     -0.173190  1 H  fzzz       
    63      0.173190  2 H  fxxz              70      0.173190  2 H  fzzz       

 Vector   10  Occ=3.581031D-05  E=-3.833592D-05  Symmetry=a
              MO Center=  1.5D-16,  1.5D-09,  1.2D-16, r^2= 2.3D+00
   Bfn.  Coefficient  Atom+Function         Bfn.  Coefficient  Atom+Function  
  ----- ------------  ---------------      ----- ------------  ---------------
     9      2.641750  1 H  py                44     -2.641750  2 H  py         
     3     -1.372133  1 H  s                 38     -1.372133  2 H  s          
    27     -1.099636  1 H  fxxy              34     -1.099636  1 H  fyzz       
    62      1.099636  2 H  fxxy              69      1.099636  2 H  fyzz       
    12     -0.820455  1 H  py                47      0.820455  2 H  py         

 Vector   11  Occ=0.000000D+00  E= 4.800282D-01  Symmetry=a
              MO Center=  3.8D-13,  3.7D-11, -2.3D-13, r^2= 7.5D+00
   Bfn.  Coefficient  Atom+Function         Bfn.  Coefficient  Atom+Function  
  ----- ------------  ---------------      ----- ------------  ---------------
     3      2.712090  1 H  s                 38     -2.712090  2 H  s          
     4     -2.584857  1 H  s                 39      2.584857  2 H  s          
     9      0.759737  1 H  py                44      0.759737  2 H  py         
     2     -0.678486  1 H  s                 37      0.678486  2 H  s          
    12     -0.658302  1 H  py                47     -0.658302  2 H  py         

 Vector   12  Occ=0.000000D+00  E= 8.157398D-01  Symmetry=a
              MO Center= -9.5D-16,  1.1D-10,  8.9D-16, r^2= 5.2D+00
   Bfn.  Coefficient  Atom+Function         Bfn.  Coefficient  Atom+Function  
  ----- ------------  ---------------      ----- ------------  ---------------
     3      3.677266  1 H  s                 38      3.677266  2 H  s          
     4     -1.416307  1 H  s                 39     -1.416307  2 H  s          
     9      1.181549  1 H  py                44     -1.181549  2 H  py         
     2     -1.174572  1 H  s                 37     -1.174572  2 H  s          
    20     -0.571057  1 H  dxx               25     -0.571057  1 H  dzz        

 Vector   13  Occ=0.000000D+00  E= 1.041343D+00  Symmetry=a
              MO Center= -2.2D-12, -2.2D-09,  1.3D-12, r^2= 2.9D+00
   Bfn.  Coefficient  Atom+Function         Bfn.  Coefficient  Atom+Function  
  ----- ------------  ---------------      ----- ------------  ---------------
     3      3.227499  1 H  s                 38     -3.227499  2 H  s          
     9     -2.948577  1 H  py                44     -2.948577  2 H  py         
    12      2.160855  1 H  py                47      2.160855  2 H  py         
    32      1.142147  1 H  fyyy              67      1.142147  2 H  fyyy       
    27      1.110853  1 H  fxxy              34      1.110853  1 H  fyzz       

 Vector   14  Occ=0.000000D+00  E= 1.403917D+00  Symmetry=a
              MO Center= -1.9D-14, -4.6D-11, -1.2D-12, r^2= 3.1D+00
   Bfn.  Coefficient  Atom+Function         Bfn.  Coefficient  Atom+Function  
  ----- ------------  ---------------      ----- ------------  ---------------
    10      5.699875  1 H  pz                45     -5.699875  2 H  pz         
    33     -2.221224  1 H  fyyz              68      2.221224  2 H  fyyz       
    28     -2.192082  1 H  fxxz              35     -2.192082  1 H  fzzz       
    63      2.192082  2 H  fxxz              70      2.192082  2 H  fzzz       
    13     -1.708377  1 H  pz                48      1.708377  2 H  pz         

 Vector   15  Occ=0.000000D+00  E= 1.403917D+00  Symmetry=a
              MO Center=  2.1D-12, -4.6D-11, -3.3D-14, r^2= 3.1D+00
   Bfn.  Coefficient  Atom+Function         Bfn.  Coefficient  Atom+Function  
  ----- ------------  ---------------      ----- ------------  ---------------
     8      5.699875  1 H  px                43     -5.699875  2 H  px         
    29     -2.221224  1 H  fxyy              64      2.221224  2 H  fxyy       
    26     -2.192082  1 H  fxxx              31     -2.192082  1 H  fxzz       
    61      2.192082  2 H  fxxx              66      2.192082  2 H  fxzz       
    11     -1.708377  1 H  px                46      1.708377  2 H  px         

 Vector   16  Occ=0.000000D+00  E= 1.662723D+00  Symmetry=a
              MO Center= -1.2D-14,  3.2D-11, -2.5D-15, r^2= 2.2D+00
   Bfn.  Coefficient  Atom+Function         Bfn.  Coefficient  Atom+Function  
  ----- ------------  ---------------      ----- ------------  ---------------
     8      5.121449  1 H  px                43      5.121449  2 H  px         
    26     -2.023459  1 H  fxxx              31     -2.023459  1 H  fxzz       
    61     -2.023459  2 H  fxxx              66     -2.023459  2 H  fxzz       
    29     -1.967917  1 H  fxyy              64     -1.967917  2 H  fxyy       
     5     -1.363514  1 H  px                40     -1.363514  2 H  px         

 Vector   17  Occ=0.000000D+00  E= 1.662723D+00  Symmetry=a
              MO Center= -3.1D-15,  3.1D-11,  1.3D-14, r^2= 2.2D+00
   Bfn.  Coefficient  Atom+Function         Bfn.  Coefficient  Atom+Function  
  ----- ------------  ---------------      ----- ------------  ---------------
    10      5.121449  1 H  pz                45      5.121449  2 H  pz         
    28     -2.023459  1 H  fxxz              35     -2.023459  1 H  fzzz       
    63     -2.023459  2 H  fxxz              70     -2.023459  2 H  fzzz       
    33     -1.967917  1 H  fyyz              68     -1.967917  2 H  fyyz       
     7     -1.363514  1 H  pz                42     -1.363514  2 H  pz         

 Vector   18  Occ=0.000000D+00  E= 1.882180D+00  Symmetry=a
              MO Center= -4.0D-13,  8.7D-10,  2.3D-13, r^2= 3.5D+00
   Bfn.  Coefficient  Atom+Function         Bfn.  Coefficient  Atom+Function  
  ----- ------------  ---------------      ----- ------------  ---------------
     9      5.650847  1 H  py                44      5.650847  2 H  py         
    32     -2.138332  1 H  fyyy              67     -2.138332  2 H  fyyy       
    27     -2.124963  1 H  fxxy              34     -2.124963  1 H  fyzz       
    62     -2.124963  2 H  fxxy              69     -2.124963  2 H  fyzz       
     3      2.058789  1 H  s                 38     -2.058789  2 H  s          

 Vector   19  Occ=0.000000D+00  E= 1.895345D+00  Symmetry=a
              MO Center= -1.2D-16,  1.5D-11, -6.9D-16, r^2= 1.9D+00
   Bfn.  Coefficient  Atom+Function         Bfn.  Coefficient  Atom+Function  
  ----- ------------  ---------------      ----- ------------  ---------------
     8      3.109068  1 H  px                43      3.109068  2 H  px         
    10     -1.548321  1 H  pz                45     -1.548321  2 H  pz         
    29     -1.217310  1 H  fxyy              64     -1.217310  2 H  fxyy       
    26     -1.209291  1 H  fxxx              31     -1.209291  1 H  fxzz       
    61     -1.209291  2 H  fxxx              66     -1.209291  2 H  fxzz       

 Vector   20  Occ=0.000000D+00  E= 1.895345D+00  Symmetry=a
              MO Center= -1.0D-15,  1.5D-11, -2.6D-15, r^2= 1.9D+00
   Bfn.  Coefficient  Atom+Function         Bfn.  Coefficient  Atom+Function  
  ----- ------------  ---------------      ----- ------------  ---------------
    10      3.109068  1 H  pz                45      3.109068  2 H  pz         
     8      1.548321  1 H  px                43      1.548321  2 H  px         
    33     -1.217310  1 H  fyyz              68     -1.217310  2 H  fyyz       
    28     -1.209291  1 H  fxxz              35     -1.209291  1 H  fzzz       
    63     -1.209291  2 H  fxxz              70     -1.209291  2 H  fzzz       


 Wrote Lagrangian and 1- and 2-particle density matrices to ./H2.mcpdm


     Multipole analysis of the density
     ---------------------------------

     L   x y z        total        nuclear
     -   - - -        -----        -------
     0   0 0 0     -0.000000      2.000000

     1   1 0 0     -0.000000      0.000000
     1   0 1 0     -0.000000      0.000000
     1   0 0 1      0.000000      0.000000

     2   2 0 0     -2.112192      0.000000
     2   1 1 0      0.000000      0.000000
     2   1 0 1     -0.000000      0.000000
     2   0 2 0     -1.210265      5.445000
     2   0 1 1     -0.000000      0.000000
     2   0 0 2     -2.112192      0.000000


  Mulliken analysis of the total density
  --------------------------------------

    Atom       Charge   Shell Charges
 -----------   ------   -------------------------------------------------------
    1 H    1     1.00   0.04  0.20  0.47  0.28  0.00 -0.00  0.01  0.00  0.00  0.00
    2 H    1     1.00   0.04  0.20  0.47  0.28  0.00 -0.00  0.01  0.00  0.00  0.00

    Mulliken analysis of the active space density
    ---------------------------------------------

    Atom       Charge   Shell Charges
 -----------   ------   -------------------------------------------------------
    1 H    1     1.00   0.04  0.20  0.47  0.28  0.00 -0.00  0.01  0.00  0.00  0.00
    2 H    1     1.00   0.04  0.20  0.47  0.28  0.00 -0.00  0.01  0.00  0.00  0.00

 Parallel integral file used      20 records with       0 large values


 Task  times  cpu:        2.9s     wall:        3.8s


                                NWChem Input Module
                                -------------------


                                 NWChem SCF Module
                                 -----------------


                                        H2



  ao basis        = "ao basis"
  functions       =    70
  atoms           =     2
  closed shells   =     1
  open shells     =     0
  charge          =   0.00
  wavefunction    = RHF 
  input vectors   = ./H2.mos
  output vectors  = ./H2-3.30.mos
  use symmetry    = F
  symmetry adapt  = F


 Summary of "ao basis" -> "ao basis" (cartesian)
 ------------------------------------------------------------------------------
       Tag                 Description            Shells   Functions and Types
 ---------------- ------------------------------  ------  ---------------------
 H                          cc-pVQZ                 10       35   4s3p2d1f



 Forming initial guess at       3.8s


 Loading old vectors from job with title :

H2


 Starting SCF solution at       3.8s



 ----------------------------------------------
         Quadratically convergent ROHF

 Convergence threshold     :          1.000E-04
 Maximum no. of iterations :           30
 Final Fock-matrix accuracy:          1.000E-07
 ----------------------------------------------


 Integral file          = ./H2.aoints.0
 Record size in doubles =  65536        No. of integs per rec  =  43688
 Max. records in memory =     99        Max. records in file   = 280274
 No. of bits per label  =      8        No. of bits per value  =     64


 #quartets = 2.199D+04 #integrals = 8.099D+05 #direct =  0.0% #cached =100.0%



       Final RHF  results 
       ------------------ 

         Total SCF energy =     -0.957360434273
      One-electron energy =     -1.717875048830
      Two-electron energy =      0.457484311526
 Nuclear repulsion energy =      0.303030303030

        Time for solution =      0.0s


             Final eigenvalues
             -----------------

              1      
    1   -0.4154
    2   -0.0882
    3   -0.0016
    4   -0.0012
    5   -0.0012
    6   -0.0002
    7   -0.0001
    8   -0.0001
    9   -0.0001
   10   -0.0000
   11    0.4800

                       ROHF Final Molecular Orbital Analysis
                       -------------------------------------

 Vector    1  Occ=2.000000D+00  E=-4.153988D-01
              MO Center=  5.3D-16,  1.4D-12, -4.1D-16, r^2= 1.5D+00
   Bfn.  Coefficient  Atom+Function         Bfn.  Coefficient  Atom+Function  
  ----- ------------  ---------------      ----- ------------  ---------------
     3      0.295623  1 H  s                 38      0.295623  2 H  s          
     4      0.191339  1 H  s                 39      0.191339  2 H  s          
     2      0.155617  1 H  s                 37      0.155617  2 H  s          

 Vector    2  Occ=0.000000D+00  E=-8.815354D-02
              MO Center=  3.5D-15, -2.9D-12, -3.1D-15, r^2= 1.6D+00
   Bfn.  Coefficient  Atom+Function         Bfn.  Coefficient  Atom+Function  
  ----- ------------  ---------------      ----- ------------  ---------------
     3      0.441614  1 H  s                 38     -0.441614  2 H  s          
     2      0.230399  1 H  s                 37     -0.230399  2 H  s          
     4      0.183675  1 H  s                 39     -0.183675  2 H  s          

 Vector    3  Occ=0.000000D+00  E=-1.582282D-03
              MO Center= -4.3D-14, -1.1D-11,  2.9D-14, r^2= 2.4D+00
   Bfn.  Coefficient  Atom+Function         Bfn.  Coefficient  Atom+Function  
  ----- ------------  ---------------      ----- ------------  ---------------
     4      0.494873  1 H  s                 39      0.494873  2 H  s          
     9     -0.468229  1 H  py                44      0.468229  2 H  py         
    12     -0.308579  1 H  py                47      0.308579  2 H  py         
     3     -0.213513  1 H  s                 38     -0.213513  2 H  s          
    27      0.159802  1 H  fxxy              34      0.159802  1 H  fyzz       

 Vector    4  Occ=0.000000D+00  E=-1.210623D-03
              MO Center=  7.1D-14,  1.2D-11, -3.2D-15, r^2= 1.5D+00
   Bfn.  Coefficient  Atom+Function         Bfn.  Coefficient  Atom+Function  
  ----- ------------  ---------------      ----- ------------  ---------------
    11      0.635577  1 H  px                46      0.635577  2 H  px         
     8     -0.381591  1 H  px                43     -0.381591  2 H  px         
    21      0.273858  1 H  dxy               56     -0.273858  2 H  dxy        
    29      0.233049  1 H  fxyy              64      0.233049  2 H  fxyy       
    26      0.177025  1 H  fxxx              31      0.177025  1 H  fxzz       

 Vector    5  Occ=0.000000D+00  E=-1.210623D-03
              MO Center= -1.2D-15,  1.2D-11, -3.9D-14, r^2= 1.5D+00
   Bfn.  Coefficient  Atom+Function         Bfn.  Coefficient  Atom+Function  
  ----- ------------  ---------------      ----- ------------  ---------------
    13      0.635577  1 H  pz                48      0.635577  2 H  pz         
    10     -0.381591  1 H  pz                45     -0.381591  2 H  pz         
    24      0.273858  1 H  dyz               59     -0.273858  2 H  dyz        
    33      0.233049  1 H  fyyz              68      0.233049  2 H  fyyz       
    28      0.177025  1 H  fxxz              35      0.177025  1 H  fzzz       

 Vector    6  Occ=0.000000D+00  E=-1.622037D-04
              MO Center= -1.2D-14,  9.8D-11,  5.3D-15, r^2= 1.4D+00
   Bfn.  Coefficient  Atom+Function         Bfn.  Coefficient  Atom+Function  
  ----- ------------  ---------------      ----- ------------  ---------------
     2      0.730897  1 H  s                 37      0.730897  2 H  s          
    12     -0.340547  1 H  py                47      0.340547  2 H  py         
     3     -0.300220  1 H  s                 38     -0.300220  2 H  s          
     9      0.295754  1 H  py                44     -0.295754  2 H  py         
     4     -0.260858  1 H  s                 39     -0.260858  2 H  s          

 Vector    7  Occ=0.000000D+00  E=-8.760631D-05
              MO Center= -1.2D-11,  2.4D-10,  7.1D-12, r^2= 1.8D+00
   Bfn.  Coefficient  Atom+Function         Bfn.  Coefficient  Atom+Function  
  ----- ------------  ---------------      ----- ------------  ---------------
     2      0.663467  1 H  s                 37     -0.663467  2 H  s          
     9      0.578743  1 H  py                44      0.578743  2 H  py         
     3     -0.522014  1 H  s                 38      0.522014  2 H  s          
     4     -0.294443  1 H  s                 39      0.294443  2 H  s          

 Vector    8  Occ=0.000000D+00  E=-8.323743D-05
              MO Center=  1.2D-11, -1.3D-11, -5.8D-13, r^2= 1.3D+00
   Bfn.  Coefficient  Atom+Function         Bfn.  Coefficient  Atom+Function  
  ----- ------------  ---------------      ----- ------------  ---------------
     8      0.728511  1 H  px                43     -0.728511  2 H  px         
    11      0.365562  1 H  px                46     -0.365562  2 H  px         
    21      0.216032  1 H  dxy               56      0.216032  2 H  dxy        
    26     -0.173190  1 H  fxxx              31     -0.173190  1 H  fxzz       
    61      0.173190  2 H  fxxx              66      0.173190  2 H  fxzz       

 Vector    9  Occ=0.000000D+00  E=-8.323743D-05
              MO Center= -3.1D-13, -1.3D-11, -6.6D-12, r^2= 1.3D+00
   Bfn.  Coefficient  Atom+Function         Bfn.  Coefficient  Atom+Function  
  ----- ------------  ---------------      ----- ------------  ---------------
    10      0.728511  1 H  pz                45     -0.728511  2 H  pz         
    13      0.365562  1 H  pz                48     -0.365562  2 H  pz         
    24      0.216032  1 H  dyz               59      0.216032  2 H  dyz        
    28     -0.173190  1 H  fxxz              35     -0.173190  1 H  fzzz       
    63      0.173190  2 H  fxxz              70      0.173190  2 H  fzzz       

 Vector   10  Occ=0.000000D+00  E=-3.833592D-05
              MO Center=  1.5D-16,  1.5D-09,  1.2D-16, r^2= 2.3D+00
   Bfn.  Coefficient  Atom+Function         Bfn.  Coefficient  Atom+Function  
  ----- ------------  ---------------      ----- ------------  ---------------
     9      2.641750  1 H  py                44     -2.641750  2 H  py         
     3     -1.372133  1 H  s                 38     -1.372133  2 H  s          
    27     -1.099636  1 H  fxxy              34     -1.099636  1 H  fyzz       
    62      1.099636  2 H  fxxy              69      1.099636  2 H  fyzz       
    12     -0.820455  1 H  py                47      0.820455  2 H  py         

 Vector   11  Occ=0.000000D+00  E= 4.800282D-01
              MO Center=  3.8D-13,  3.7D-11, -2.3D-13, r^2= 7.5D+00
   Bfn.  Coefficient  Atom+Function         Bfn.  Coefficient  Atom+Function  
  ----- ------------  ---------------      ----- ------------  ---------------
     3      2.712090  1 H  s                 38     -2.712090  2 H  s          
     4     -2.584857  1 H  s                 39      2.584857  2 H  s          
     9      0.759737  1 H  py                44      0.759737  2 H  py         
     2     -0.678486  1 H  s                 37      0.678486  2 H  s          
    12     -0.658302  1 H  py                47     -0.658302  2 H  py         

 Vector   12  Occ=0.000000D+00  E= 8.157398D-01
              MO Center= -9.5D-16,  1.1D-10,  8.9D-16, r^2= 5.2D+00
   Bfn.  Coefficient  Atom+Function         Bfn.  Coefficient  Atom+Function  
  ----- ------------  ---------------      ----- ------------  ---------------
     3      3.677266  1 H  s                 38      3.677266  2 H  s          
     4     -1.416307  1 H  s                 39     -1.416307  2 H  s          
     9      1.181549  1 H  py                44     -1.181549  2 H  py         
     2     -1.174572  1 H  s                 37     -1.174572  2 H  s          
    20     -0.571057  1 H  dxx               25     -0.571057  1 H  dzz        


 center of mass
 --------------
 x =   0.00000000 y =   0.00000000 z =   0.00000000

 moments of inertia (a.u.)
 ------------------
           5.487607125000           0.000000000000           0.000000000000
           0.000000000000           0.000000000000           0.000000000000
           0.000000000000           0.000000000000           5.487607125000

  Mulliken analysis of the total density
  --------------------------------------

    Atom       Charge   Shell Charges
 -----------   ------   -------------------------------------------------------
    1 H    1     1.00   0.04  0.19  0.46  0.30  0.00 -0.00  0.01  0.00  0.00  0.00
    2 H    1     1.00   0.04  0.19  0.46  0.30  0.00 -0.00  0.01  0.00  0.00  0.00

       Multipole analysis of the density wrt the origin
       ------------------------------------------------

     L   x y z        total         open         nuclear
     -   - - -        -----         ----         -------
     0   0 0 0     -0.000000      0.000000      2.000000

     1   1 0 0     -0.000000      0.000000      0.000000
     1   0 1 0     -0.000000      0.000000      0.000000
     1   0 0 1      0.000000      0.000000      0.000000

     2   2 0 0     -2.202031      0.000000      0.000000
     2   1 1 0      0.000000      0.000000      0.000000
     2   1 0 1     -0.000000      0.000000      0.000000
     2   0 2 0     -0.927880      0.000000      5.445000
     2   0 1 1      0.000000      0.000000      0.000000
     2   0 0 2     -2.202031      0.000000      0.000000


 Parallel integral file used      19 records with       0 large values

 ------------------------------------
     Number of active orbitals     10
     Number of active alpha electrons      1
     Number of active beta electrons       1
 ------------------------------------
                   NWChem Extensible Many-Electron Theory Module
                   ---------------------------------------------

              ======================================================
                   This portion of the program was automatically
                  generated by a Tensor Contraction Engine (TCE).
                  The development of this portion of the program
                 and TCE was supported by US Department of Energy,
                Office of Science, Office of Basic Energy Science.
                      TCE is a product of Battelle and PNNL.
              Please cite: S.Hirata, J.Phys.Chem.A 107, 9887 (2003).
              ======================================================

                                        H2


            General Information
            -------------------
      Number of processors :     1
         Wavefunction type : Restricted Hartree-Fock
          No. of electrons :     2
           Alpha electrons :     1
            Beta electrons :     1
           No. of orbitals :   140
            Alpha orbitals :    70
             Beta orbitals :    70
        Alpha frozen cores :     0
         Beta frozen cores :     0
     Alpha frozen virtuals :    60
      Beta frozen virtuals :    60
         Spin multiplicity : singlet 
    Number of AO functions :    70
       Number of AO shells :    20
        Use of symmetry is : off
      Symmetry adaption is : off
         Schwarz screening : 0.10D-09

          Correlation Information
          -----------------------
          Calculation type : Coupled-cluster singles & doubles                           
   Perturbative correction : none                                                        
            Max iterations :      300
        Residual threshold : 0.10D-06
     T(0) DIIS level shift : 0.00D+00
     L(0) DIIS level shift : 0.00D+00
     T(1) DIIS level shift : 0.00D+00
     L(1) DIIS level shift : 0.00D+00
     T(R) DIIS level shift : 0.00D+00
     T(I) DIIS level shift : 0.00D+00
   CC-T/L Amplitude update :  5-th order DIIS
                I/O scheme : Global Array Library
        L-threshold :  0.10D-06
        EOM-threshold :  0.10D-06
 no EOMCCSD initial starts read in
 TCE RESTART OPTIONS
 READ_INT:   F
 WRITE_INT:  F
 READ_TA:    F
 WRITE_TA:   F
 READ_XA:    F
 WRITE_XA:   F
 READ_IN3:   F
 WRITE_IN3:  F
 SLICE:      F
 D4D5:       F
 quantumc:   T
 qrotation:  F
 pwtce:      F
 qducc:      F
 nacto:                         0
 nrotv:                         0
 nrot:                          0

            Memory Information
            ------------------
          Available GA space size is    1610607836 doubles
          Available MA space size is    1610610644 doubles

 Maximum block size supplied by input
 Maximum block size         1 doubles

 tile_dim =      1

 Block   Spin    Irrep     Size     Offset   Alpha
 -------------------------------------------------
   1    alpha     a      1 doubles       0       1
   2    beta      a      1 doubles       1       1
   3    alpha     a      1 doubles       2       3
   4    alpha     a      1 doubles       3       4
   5    alpha     a      1 doubles       4       5
   6    alpha     a      1 doubles       5       6
   7    alpha     a      1 doubles       6       7
   8    alpha     a      1 doubles       7       8
   9    alpha     a      1 doubles       8       9
  10    alpha     a      1 doubles       9      10
  11    alpha     a      1 doubles      10      11
  12    beta      a      1 doubles      11       3
  13    beta      a      1 doubles      12       4
  14    beta      a      1 doubles      13       5
  15    beta      a      1 doubles      14       6
  16    beta      a      1 doubles      15       7
  17    beta      a      1 doubles      16       8
  18    beta      a      1 doubles      17       9
  19    beta      a      1 doubles      18      10
  20    beta      a      1 doubles      19      11

 Global array virtual files algorithm will be used

 Parallel file system coherency ......... OK

 Integral file          = ./H2.aoints.0
 Record size in doubles =  65536        No. of integs per rec  =  43688
 Max. records in memory =     99        Max. records in file   = 280274
 No. of bits per label  =      8        No. of bits per value  =     64


 #quartets = 2.214D+04 #integrals = 8.543D+05 #direct =  0.0% #cached =100.0%


 Fock matrix recomputed
 1-e file size   =              100
 1-e file name   = ./H2.f1
 Cpu & wall time / sec            0.1            0.1
 4-electron integrals stored in orbital form

 v2    file size   =             1540
 4-index algorithm nr.  13 is used
 imaxsize =       30
 imaxsize ichop =        0
 begin_one_electron_integrals
    1    1        -0.8589375244
    3    1         0.0859722887
    6    1        -0.0069703636
   10    1        -0.0021617152
    2    2        -0.7015082032
    7    2         0.0152225910
    1    3         0.0859722887
    3    3        -0.1561474111
    6    3         0.0136489510
   10    3        -0.2902900794
    4    4        -0.1722944456
    5    5        -0.1722944456
    1    6        -0.0069703636
    3    6         0.0136489510
    6    6         0.0846749961
   10    6        -0.0621114210
    2    7         0.0152225910
    7    7         0.4473906077
   10    7        -0.0000000003
    8    8         0.3876475941
    9    9         0.3876475941
    1   10        -0.0021617152
    3   10        -0.2902900794
    6   10        -0.0621114210
    7   10        -0.0000000003
   10   10         0.8845637631
 end_one_electron_integrals
 begin_two_electron_integrals
    1    1    1    1        0.4574843123
    2    1    2    1        0.1812718506
    3    1    1    1       -0.0875354290
    3    1    3    1        0.0730078589
    3    1    2    2       -0.0707083310
    4    1    4    1        0.0656329491
    5    1    5    1        0.0656329491
    6    1    1    1        0.0562087720
    6    1    3    1        0.0021501039
    6    1    6    1        0.0721515994
    6    1    2    2        0.0906098275
    6    1    3    3        0.0175490954
    6    1    4    4        0.0079005435
    6    1    5    5        0.0079005435
    7    1    2    1        0.0457334262
    7    1    7    1        0.0617038015
    7    1    3    2       -0.0384426661
    7    1    6    2        0.0419203969
    8    1    8    1        0.0539990993
    8    1    4    2        0.0410108743
    8    1    5    2       -0.0005936338
    8    1    7    4        0.0025416838
    8    1    7    5       -0.0000367910
    9    1    9    1        0.0539990993
    9    1    4    2        0.0005936338
    9    1    5    2        0.0410108743
    9    1    7    4        0.0000367910
    9    1    7    5        0.0025416838
   10    1    1    1       -0.0050950768
   10    1    3    1       -0.0183414001
   10    1    6    1       -0.0090173947
   10    1   10    1        0.0281302999
   10    1    2    2       -0.0137115682
   10    1    7    2        0.0074901481
   10    1    3    3        0.0261121875
   10    1    6    3        0.0090631339
   10    1    4    4       -0.0094556261
   10    1    5    5       -0.0094556261
   10    1    6    6       -0.0154107839
   10    1    7    7        0.0123459435
   10    1    8    8       -0.0154080760
   10    1    9    9       -0.0154080760
    2    2    1    1        0.4672692550
    2    2    2    2        0.4970418443
    3    2    2    1        0.0011889933
    3    2    3    2        0.0313355772
    4    2    4    2        0.0316612412
    5    2    5    2        0.0316612412
    6    2    2    1        0.1278371541
    6    2    3    2       -0.0024279156
    6    2    6    2        0.1129524650
    7    2    1    1        0.0949401007
    7    2    3    1       -0.0676431919
    7    2    6    1        0.0303487411
    7    2    2    2        0.0940890995
    7    2    7    2        0.0874812410
    7    2    3    3        0.0817111572
    7    2    6    3        0.0019140140
    7    2    4    4        0.0706631560
    7    2    5    5        0.0706631560
    7    2    6    6        0.1040404831
    8    2    4    1        0.0619788440
    8    2    5    1       -0.0008971459
    8    2    8    2        0.0723604637
    8    2    4    3       -0.0080469329
    8    2    5    3        0.0001164796
    8    2    6    4       -0.0166824860
    8    2    6    5        0.0002414795
    9    2    4    1        0.0008971459
    9    2    5    1        0.0619788440
    9    2    9    2        0.0723604637
    9    2    4    3       -0.0001164796
    9    2    5    3       -0.0080469329
    9    2    6    4       -0.0002414795
    9    2    6    5       -0.0166824860
   10    2    2    1       -0.0213090123
   10    2    7    1       -0.0039648081
   10    2    3    2       -0.0001823848
   10    2    6    2       -0.0192000512
   10    2   10    2        0.0154807276
   10    2    7    3       -0.0007611322
   10    2    8    4       -0.0170980415
   10    2    9    4       -0.0002474947
   10    2    8    5        0.0002474947
   10    2    9    5       -0.0170980415
   10    2    7    6       -0.0104929362
    3    3    1    1        0.4130670690
    3    3    3    1       -0.0979784254
    3    3    2    2        0.4017548588
    3    3    3    3        0.4169788763
    4    3    4    1       -0.0139030921
    4    3    4    3        0.0206183517
    5    3    5    1       -0.0139030921
    5    3    5    3        0.0206183517
    6    3    1    1        0.0314391065
    6    3    3    1       -0.0191796853
    6    3    6    1       -0.0107193375
    6    3    2    2        0.0226240969
    6    3    3    3        0.0427135716
    6    3    6    3        0.0204099658
    6    3    4    4        0.0351384799
    6    3    5    5        0.0351384799
    7    3    2    1       -0.1234629717
    7    3    7    1       -0.0369915330
    7    3    3    2        0.0037455888
    7    3    6    2       -0.0767323176
    7    3    7    3        0.1049805620
    8    3    8    1       -0.0046049855
    8    3    4    2       -0.0022986612
    8    3    5    2        0.0000332732
    8    3    8    3        0.0120125420
    8    3    7    4       -0.0114863004
    8    3    7    5        0.0001662646
    9    3    9    1       -0.0046049855
    9    3    4    2       -0.0000332732
    9    3    5    2       -0.0022986612
    9    3    9    3        0.0120125420
    9    3    7    4       -0.0001662646
    9    3    7    5       -0.0114863004
   10    3    1    1       -0.0957303691
   10    3    3    1        0.0764625910
   10    3    6    1        0.0063641602
   10    3   10    1       -0.0275049619
   10    3    2    2       -0.0761896506
   10    3    7    2       -0.0618317431
   10    3    3    3       -0.1171895054
   10    3    6    3       -0.0260618889
   10    3   10    3        0.0973335530
   10    3    4    4       -0.0888409128
   10    3    5    5       -0.0888409128
   10    3    6    6       -0.0899998976
   10    3    7    7       -0.1056941877
   10    3    8    8       -0.0854030672
   10    3    9    9       -0.0854030672
    4    4    1    1        0.4199519132
    4    4    3    1       -0.0821109322
    4    4    2    2        0.4084674619
    4    4    3    3        0.3910930361
    4    4    4    4        0.4393637980
    5    4    5    4        0.0201676966
    6    4    4    1       -0.0337542460
    6    4    4    3        0.0100378412
    6    4    6    4        0.0348222545
    7    4    4    2        0.0001776781
    7    4    7    4        0.0120555145
    8    4    2    1        0.1251137355
    8    4    7    1        0.0272134490
    8    4    3    2       -0.0001847033
    8    4    6    2        0.0706774530
    8    4    7    3       -0.0874424043
    8    4    8    4        0.1160044821
    8    4    7    6        0.0427186503
    9    4    2    1        0.0018110256
    9    4    7    1        0.0003939156
    9    4    3    2       -0.0000026736
    9    4    6    2        0.0010230585
    9    4    7    3       -0.0012657318
    9    4    8    4        0.0014924810
    9    4    9    4        0.0129188310
    9    4    8    5        0.0128756236
    9    4    7    6        0.0006183539
   10    4    4    1       -0.0228094369
   10    4    8    2       -0.0211749333
   10    4    9    2       -0.0003065079
   10    4    4    3       -0.0008820132
   10    4    6    4        0.0145006797
   10    4   10    4        0.0181610125
   10    4    8    7        0.0018527171
   10    4    9    7        0.0000268181
    5    5    1    1        0.4199519132
    5    5    3    1       -0.0821109322
    5    5    2    2        0.4084674619
    5    5    3    3        0.3910930361
    5    5    4    4        0.3990284048
    5    5    5    5        0.4393637980
    6    5    5    1       -0.0337542460
    6    5    5    3        0.0100378412
    6    5    6    5        0.0348222545
    7    5    5    2        0.0001776781
    7    5    7    5        0.0120555145
    8    5    2    1       -0.0018110256
    8    5    7    1       -0.0003939156
    8    5    3    2        0.0000026736
    8    5    6    2       -0.0010230585
    8    5    7    3        0.0012657318
    8    5    8    4       -0.0014924810
    8    5    8    5        0.0129188310
    8    5    7    6       -0.0006183539
    9    5    2    1        0.1251137355
    9    5    7    1        0.0272134490
    9    5    3    2       -0.0001847033
    9    5    6    2        0.0706774530
    9    5    7    3       -0.0874424043
    9    5    8    4        0.0902100275
    9    5    9    4        0.0014924810
    9    5    8    5       -0.0014924810
    9    5    9    5        0.1160044821
    9    5    7    6        0.0427186503
   10    5    5    1       -0.0228094369
   10    5    8    2        0.0003065079
   10    5    9    2       -0.0211749333
   10    5    5    3       -0.0008820132
   10    5    6    5        0.0145006797
   10    5   10    5        0.0181610125
   10    5    8    7       -0.0000268181
   10    5    9    7        0.0018527171
    6    6    1    1        0.4632875523
    6    6    3    1       -0.0859845637
    6    6    6    1        0.0694961118
    6    6    2    2        0.4783808725
    6    6    3    3        0.4048617826
    6    6    6    3        0.0280888749
    6    6    4    4        0.4191071813
    6    6    5    5        0.4191071813
    6    6    6    6        0.4903549777
    7    6    2    1        0.0700825041
    7    6    7    1        0.0414976954
    7    6    3    2       -0.0158269412
    7    6    6    2        0.0588987802
    7    6    7    3       -0.0472765948
    7    6    7    6        0.0491083805
    8    6    8    1        0.0130638155
    8    6    4    2        0.0079882090
    8    6    5    2       -0.0001156296
    8    6    8    3       -0.0004640472
    8    6    7    4        0.0033726470
    8    6    7    5       -0.0000488192
    8    6    8    6        0.0154621109
    9    6    9    1        0.0130638155
    9    6    4    2        0.0001156296
    9    6    5    2        0.0079882090
    9    6    9    3       -0.0004640472
    9    6    7    4        0.0000488192
    9    6    7    5        0.0033726470
    9    6    9    6        0.0154621109
   10    6    1    1       -0.0186234256
   10    6    2    1       -0.0000000001
   10    6    3    1        0.0109119688
   10    6    6    1       -0.0210858649
   10    6   10    1       -0.0084717480
   10    6    2    2       -0.0259733469
   10    6    7    2       -0.0146908594
   10    6    3    3       -0.0190275687
   10    6    6    3       -0.0042915638
   10    6   10    3        0.0161223316
   10    6    4    4        0.0000423894
   10    6    5    5        0.0000423894
   10    6    6    6       -0.0199552373
   10    6   10    6        0.0177516207
   10    6    7    7       -0.0229987741
   10    6    8    8       -0.0137641204
   10    6    9    9       -0.0137641204
    7    7    1    1        0.4623285761
    7    7    3    1       -0.0987508540
    7    7    6    1        0.0716898890
    7    7    2    2        0.4765917933
    7    7    7    2        0.1176738038
    7    7    3    3        0.4276030463
    7    7    6    3        0.0225922288
    7    7    4    4        0.4079567085
    7    7    5    5        0.4079567085
    7    7    6    6        0.4632754245
    7    7    7    7        0.5008696484
    8    7    4    1        0.0072405790
    8    7    5    1       -0.0001048076
    8    7    8    2        0.0089095898
    8    7    4    3       -0.0155146523
    8    7    5    3        0.0002245751
    8    7    6    4        0.0012113661
    8    7    6    5       -0.0000175346
    8    7    8    7        0.0203160153
    9    7    4    1        0.0001048076
    9    7    5    1        0.0072405790
    9    7    9    2        0.0089095898
    9    7    4    3       -0.0002245751
    9    7    5    3       -0.0155146523
    9    7    6    4        0.0000175346
    9    7    6    5        0.0012113661
    9    7    9    7        0.0203160153
   10    7    2    1        0.0013808451
   10    7    7    1        0.0281678427
   10    7    3    2       -0.0242205090
   10    7    6    2       -0.0034149609
   10    7   10    2        0.0037927802
   10    7    7    3       -0.0112693418
   10    7    8    4        0.0051557326
   10    7    9    4        0.0000746294
   10    7    8    5       -0.0000746294
   10    7    9    5        0.0051557326
   10    7    7    6        0.0069674671
   10    7   10    7        0.0309756507
    8    8    1    1        0.4568151247
    8    8    3    1       -0.0798696668
    8    8    6    1        0.0515419807
    8    8    2    2        0.4672625311
    8    8    7    2        0.0863602901
    8    8    3    3        0.4030282526
    8    8    6    3        0.0282865468
    8    8    4    4        0.4446458400
    8    8    5    4       -0.0004981089
    8    8    5    5        0.4102414652
    8    8    6    6        0.4532433730
    8    8    7    7        0.4526981085
    8    8    8    8        0.4920021683
    9    8    4    4        0.0004981089
    9    8    5    4        0.0172021874
    9    8    5    5       -0.0004981089
    9    8    9    8        0.0213593478
   10    8    8    1       -0.0175581894
   10    8    4    2       -0.0134979093
   10    8    5    2        0.0001953827
   10    8    8    3       -0.0009061825
   10    8    7    4        0.0019065758
   10    8    7    5       -0.0000275977
   10    8    8    6       -0.0034841020
   10    8   10    8        0.0108840802
    9    9    1    1        0.4568151247
    9    9    3    1       -0.0798696668
    9    9    6    1        0.0515419807
    9    9    2    2        0.4672625311
    9    9    7    2        0.0863602901
    9    9    3    3        0.4030282526
    9    9    6    3        0.0282865468
    9    9    4    4        0.4102414652
    9    9    5    4        0.0004981089
    9    9    5    5        0.4446458400
    9    9    6    6        0.4532433730
    9    9    7    7        0.4526981085
    9    9    8    8        0.4492834727
    9    9    9    9        0.4920021683
   10    9    9    1       -0.0175581894
   10    9    4    2       -0.0001953827
   10    9    5    2       -0.0134979093
   10    9    9    3       -0.0009061825
   10    9    7    4        0.0000275977
   10    9    7    5        0.0019065758
   10    9    9    6       -0.0034841020
   10    9   10    9        0.0108840802
   10   10    1    1        0.4163252739
   10   10    2    1       -0.0000000001
   10   10    3    1       -0.1027036933
   10   10    6    1        0.0123849879
   10   10   10    1        0.0273101234
   10   10    2    2        0.4013847307
   10   10    7    2        0.0836359606
   10   10    3    3        0.4232037150
   10   10    6    3        0.0447941783
   10   10   10    3       -0.1263790027
   10   10    4    4        0.3970842283
   10   10    8    4       -0.0000000001
   10   10    5    5        0.3970842283
   10   10    9    5       -0.0000000001
   10   10    6    6        0.4093330107
   10   10   10    6       -0.0176617800
   10   10    7    7        0.4279452199
   10   10    8    8        0.4054399590
   10   10    9    9        0.4054399590
   10   10   10   10        0.4392538215
 end_two_electron_integrals
 enrep_tce =   0.30303030303030298     
  EHF(A)             =        -0.95736043
  EHF(total)         =        -0.95736043
  Shift (HFtot-HFA)  =        -0.00000000
 Cpu & wall time / sec            1.7            1.7
 T1-number-of-tasks                    9

 t1 file size   =                9
 t1 file name   = ./H2.t1
 t1 file handle =       -998
 T2-number-of-boxes                  126

 t2 file size   =              126
 t2 file name   = ./H2.t2
 t2 file handle =       -996
CCSD iterations
 ---------------------------------------------------------
 Iter          Residuum       Correlation     Cpu    Wall 
 ---------------------------------------------------------
NEW TASK SCHEDULING
CCSD_T1_NTS --- OK
CCSD_T2_NTS --- OK
    1   0.4330776802212  -0.0943388921432     0.4     0.5
    2   1.1034826792927   0.0011953618054     0.5     0.6
    3   3.4836871735431  -0.2555535941374     0.5     0.5
    4  10.6561364945766   0.5063597475978     0.3     0.5
    5  47.9134300810145  -1.0909352160605     0.5     0.5
 MICROCYCLE DIIS UPDATE:                    5                    5
    6   0.0471255870962  -0.0703906488712     0.4     0.5
    7   0.1043929573298  -0.0794626845688     0.4     0.5
    8   0.3384809850143  -0.0807198497832     0.2     0.5
    9   1.1734077353713  -0.0685517742471     0.5     0.5
   10   4.2038292940326  -0.0976777203564     0.3     0.5
 MICROCYCLE DIIS UPDATE:                   10                    5
   11   0.0037841272927  -0.0824121244437     0.3     0.5
   12   0.0054762129015  -0.0821173790626     0.5     0.5
   13   0.0122258560532  -0.0821946432750     0.5     0.6
   14   0.0459556273788  -0.0827555608767     0.4     0.5
   15   0.1720203478559  -0.0777780199783     0.4     0.5
 MICROCYCLE DIIS UPDATE:                   15                    5
   16   0.0000720586664  -0.0822399697991     0.4     0.5
   17   0.0001123576410  -0.0822243137493     0.4     0.5
   18   0.0003209038138  -0.0822211142543     0.3     0.5
   19   0.0012070322378  -0.0822371459572     0.4     0.5
   20   0.0045448225333  -0.0821402026393     0.5     0.5
 MICROCYCLE DIIS UPDATE:                   20                    5
   21   0.0000069423684  -0.0822211713287     0.4     0.5
   22   0.0000104334981  -0.0822202932358     0.5     0.5
   23   0.0000323008583  -0.0822214513617     0.5     0.5
   24   0.0001123785498  -0.0822168954544     0.5     0.5
   25   0.0004078249385  -0.0822305316859     0.4     0.5
 MICROCYCLE DIIS UPDATE:                   25                    5
   26   0.0000003082602  -0.0822202577226     0.4     0.5
   27   0.0000005352681  -0.0822202732181     0.3     0.5
   28   0.0000014049321  -0.0822201359607     0.4     0.5
   29   0.0000053073774  -0.0822204644622     0.5     0.5
   30   0.0000200897010  -0.0822195250097     0.4     0.5
 MICROCYCLE DIIS UPDATE:                   30                    5
   31   0.0000000305521  -0.0822202240240     0.4     0.6
 -----------------------------------------------------------------
 Iterations converged
 CCSD correlation energy / hartree =        -0.082220224024022
 CCSD total energy / hartree       =        -1.039580658296931

 Singles contributions

 Doubles contributions
     2a   (alpha)     2a   (beta ) ---     1a   (alpha)     1a   (beta )       -0.4001388352
     3a   (alpha)     3a   (beta ) ---     1a   (alpha)     1a   (beta )       -0.0396498761
     4a   (alpha)     4a   (beta ) ---     1a   (alpha)     1a   (beta )       -0.0347198225
     5a   (alpha)     5a   (beta ) ---     1a   (alpha)     1a   (beta )       -0.0347198225
 Ground state specification:
 exp(T)|Ref>~(1+T)|Ref>
 ------- a(p)+/a(q) strings ----------

 singles norm

 doubles norm

 Reference string
  0.92843223629001759      :(1a)+ (1b)+ |0>

 Singles strings

 Doubles strings
 -0.37150179355895030      :(2a)+ (2b)+ (1b)  (1a)  (1a)+ (1b)+ |0>
 -------------------------------------

 Parallel integral file used      20 records with       0 large values


 Task  times  cpu:       14.8s     wall:       19.0s


                                NWChem Input Module
                                -------------------


 Summary of allocated global arrays
-----------------------------------
  No active global arrays


MA_summarize_allocated_blocks: starting scan ...
MA_summarize_allocated_blocks: scan completed: 0 heap blocks, 0 stack blocks
MA usage statistics:

	allocation statistics:
					      heap	     stack
					      ----	     -----
	current number of blocks	         0	         0
	maximum number of blocks	        18	        42
	current total bytes		         0	         0
	maximum total bytes		  51983048	  61995224
	maximum total K-bytes		     51984	     61996
	maximum total M-bytes		        52	        62


                                     CITATION
                                     --------
                Please cite the following reference when publishing
                           results obtained with NWChem:

          E. Apra, E. J. Bylaska, W. A. de Jong, N. Govind, K. Kowalski,
       T. P. Straatsma, M. Valiev, H. J. J. van Dam, Y. Alexeev, J. Anchell,
       V. Anisimov, F. W. Aquino, R. Atta-Fynn, J. Autschbach, N. P. Bauman,
     J. C. Becca, D. E. Bernholdt, K. Bhaskaran-Nair, S. Bogatko, P. Borowski,
         J. Boschen, J. Brabec, A. Bruner, E. Cauet, Y. Chen, G. N. Chuev,
      C. J. Cramer, J. Daily, M. J. O. Deegan, T. H. Dunning Jr., M. Dupuis,
   K. G. Dyall, G. I. Fann, S. A. Fischer, A. Fonari, H. Fruchtl, L. Gagliardi,
      J. Garza, N. Gawande, S. Ghosh, K. Glaesemann, A. W. Gotz, J. Hammond,
       V. Helms, E. D. Hermes, K. Hirao, S. Hirata, M. Jacquelin, L. Jensen,
   B. G. Johnson, H. Jonsson, R. A. Kendall, M. Klemm, R. Kobayashi, V. Konkov,
      S. Krishnamoorthy, M. Krishnan, Z. Lin, R. D. Lins, R. J. Littlefield,
      A. J. Logsdail, K. Lopata, W. Ma, A. V. Marenich, J. Martin del Campo,
   D. Mejia-Rodriguez, J. E. Moore, J. M. Mullin, T. Nakajima, D. R. Nascimento,
    J. A. Nichols, P. J. Nichols, J. Nieplocha, A. Otero-de-la-Roza, B. Palmer,
    A. Panyala, T. Pirojsirikul, B. Peng, R. Peverati, J. Pittner, L. Pollack,
   R. M. Richard, P. Sadayappan, G. C. Schatz, W. A. Shelton, D. W. Silverstein,
   D. M. A. Smith, T. A. Soares, D. Song, M. Swart, H. L. Taylor, G. S. Thomas,
            V. Tipparaju, D. G. Truhlar, K. Tsemekhman, T. Van Voorhis,
      A. Vazquez-Mayagoitia, P. Verma, O. Villa, A. Vishnu, K. D. Vogiatzis,
        D. Wang, J. H. Weare, M. J. Williamson, T. L. Windus, K. Wolinski,
        A. T. Wong, Q. Wu, C. Yang, Q. Yu, M. Zacharias, Z. Zhang, Y. Zhao,
                                and R. J. Harrison
                        "NWChem: Past, present, and future
                         J. Chem. Phys. 152, 184102 (2020)
                               doi:10.1063/5.0004997

                                      AUTHORS
                                      -------
  E. Apra, E. J. Bylaska, N. Govind, K. Kowalski, M. Valiev, D. Mejia-Rodriguez,
       A. Kunitsa, N. P. Bauman, A. Panyala, W. A. de Jong, T. P. Straatsma,
        H. J. J. van Dam, D. Wang, T. L. Windus, J. Hammond, J. Autschbach,
    K. Bhaskaran-Nair, J. Brabec, K. Lopata, S. A. Fischer, S. Krishnamoorthy,
     M. Jacquelin, W. Ma, M. Klemm, O. Villa, Y. Chen, V. Anisimov, F. Aquino,
    S. Hirata, M. T. Hackler, Eric Hermes, L. Jensen, J. E. Moore, J. C. Becca,
      V. Konjkov, T. Risthaus, M. Malagoli, A. Marenich, A. Otero-de-la-Roza,
        J. Mullin, P. Nichols, R. Peverati, J. Pittner, Y. Zhao, P.-D. Fan,
        A. Fonari, M. J. Williamson, R. J. Harrison, J. R. Rehr, M. Dupuis,
     D. Silverstein, D. M. A. Smith, J. Nieplocha, V. Tipparaju, M. Krishnan,
     B. E. Van Kuiken, A. Vazquez-Mayagoitia, M. Swart, Q. Wu, T. Van Voorhis,
     A. A. Auer, M. Nooijen, L. D. Crosby, E. Brown, G. Cisneros, G. I. Fann,
   H. Fruchtl, J. Garza, K. Hirao, R. A. Kendall, J. A. Nichols, K. Tsemekhman,
    K. Wolinski, J. Anchell, D. E. Bernholdt, P. Borowski, T. Clark, D. Clerc,
   H. Dachsel, M. J. O. Deegan, K. Dyall, D. Elwood, E. Glendening, M. Gutowski,
   A. C. Hess, J. Jaffe, B. G. Johnson, J. Ju, R. Kobayashi, R. Kutteh, Z. Lin,
   R. Littlefield, X. Long, B. Meng, T. Nakajima, S. Niu, L. Pollack, M. Rosing,
   K. Glaesemann, G. Sandrone, M. Stave, H. Taylor, G. Thomas, J. H. van Lenthe,
                               A. T. Wong, Z. Zhang.

 Total times  cpu:       17.7s     wall:       22.8s
