 argument  1 = input.nw
  NWChem w/ OpenMP: maximum threads =    1



============================== echo of input deck ==============================
 echo
 start H2
 title "H2"

 memory total 24 gb

 geometry units bohr
 symmetry c1
        H  0.00000000  0.00000000  0.00000000
        H  0.00000000  3.95  0.00000000
 end

 basis
   * library cc-pVQZ
 end

 mcscf
   active  10
   actelec 2
   multiplicity 1
   maxiter 40
   vectors input H2.mos
   vectors output H2.mos
 end

 task mcscf

 scf
   vectors input H2.mos
   vectors output H2-3.95.mos
   noscf
 end

 tce
   2eorb
   2emet 13
   ccsd
   maxiter 300
 end

 set tce:print_integrals T
 set tce:qorb 10
 set tce:qela 1
 set tce:qelb 1

# set tce:qducc T
# set tce:nactv 1
# set tce:nonhf T
# set tce:ducc_model 6

 set tce:printtol 0.02

 task tce
================================================================================


                                         
                                         


             Northwest Computational Chemistry Package (NWChem) 7.0.1
             --------------------------------------------------------


                    Environmental Molecular Sciences Laboratory
                       Pacific Northwest National Laboratory
                                Richland, WA 99352

                              Copyright (c) 1994-2020
                       Pacific Northwest National Laboratory
                            Battelle Memorial Institute

             NWChem is an open-source computational chemistry package
                        distributed under the terms of the
                      Educational Community License (ECL) 2.0
             A copy of the license is included with this distribution
                              in the LICENSE.TXT file

                                  ACKNOWLEDGMENT
                                  --------------

            This software and its documentation were developed at the
            EMSL at Pacific Northwest National Laboratory, a multiprogram
            national laboratory, operated for the U.S. Department of Energy
            by Battelle under Contract Number DE-AC05-76RL01830. Support
            for this work was provided by the Department of Energy Office
            of Biological and Environmental Research, Office of Basic
            Energy Sciences, and the Office of Advanced Scientific Computing.


           Job information
           ---------------

    hostname        = WE46210
    program         = /home/baum612/code/nwchem/bin/LINUX64/nwchem
    date            = Thu Nov  9 16:06:35 2023

    compiled        = Mon_Nov_06_10:06:57_2023
    source          = /home/baum612/code/nwchem
    nwchem branch   = 7.0.0
    nwchem revision = nwchem_on_git-4191-g39d87d64de
    ga revision     = 5.8.1
    use scalapack   = F
    input           = input.nw
    prefix          = H2.
    data base       = ./H2.db
    status          = startup
    nproc           =        1
    time left       =     -1s



           Memory information
           ------------------

    heap     =  805306362 doubles =   6144.0 Mbytes
    stack    =  805306367 doubles =   6144.0 Mbytes
    global   = 1610612736 doubles =  12288.0 Mbytes (distinct from heap & stack)
    total    = 3221225465 doubles =  24576.0 Mbytes
    verify   = yes
    hardfail = no 


           Directory information
           ---------------------

  0 permanent = .
  0 scratch   = .




                                NWChem Input Module
                                -------------------


                                        H2
                                        --
 Turning off AUTOSYM since
 SYMMETRY directive was detected!


          ------
          auto-z
          ------
     1 autoz failed with cvr_scaling = 1.2 changing to 1.3
     2 autoz failed with cvr_scaling = 1.3 changing to 1.4
     3 autoz failed with cvr_scaling = 1.4 changing to 1.5
     4 autoz failed with cvr_scaling = 1.5 changing to 1.6
     5 autoz failed with cvr_scaling = 1.6 changing to 1.7

 AUTOZ failed to generate good internal coordinates.
 Cartesian coordinates will be used in optimizations.



                             Geometry "geometry" -> ""
                             -------------------------

 Output coordinates in a.u. (scale by  1.000000000 to convert to a.u.)

  No.       Tag          Charge          X              Y              Z
 ---- ---------------- ---------- -------------- -------------- --------------
    1 H                    1.0000     0.00000000    -1.97500000     0.00000000
    2 H                    1.0000     0.00000000     1.97500000     0.00000000

      Atomic Mass 
      ----------- 

      H                  1.007825


 Effective nuclear repulsion energy (a.u.)       0.2531645570

            Nuclear Dipole moment (a.u.) 
            ----------------------------
        X                 Y               Z
 ---------------- ---------------- ----------------
     0.0000000000     0.0000000000     0.0000000000


            XYZ format geometry
            -------------------
     2
 geometry
 H                     0.00000000    -1.04512507     0.00000000
 H                     0.00000000     1.04512507     0.00000000



 Summary of "ao basis" -> "" (cartesian)
 ------------------------------------------------------------------------------
       Tag                 Description            Shells   Functions and Types
 ---------------- ------------------------------  ------  ---------------------
 *                          cc-pVQZ                   on all atoms 


                      Basis "ao basis" -> "ao basis" (cartesian)
                      -----
  H (Hydrogen)
  ------------
            Exponent  Coefficients 
       -------------- ---------------------------------------------------------
  1 S  8.26400000E+01  0.002006
  1 S  1.24100000E+01  0.015343
  1 S  2.82400000E+00  0.075579

  2 S  7.97700000E-01  1.000000

  3 S  2.58100000E-01  1.000000

  4 S  8.98900000E-02  1.000000

  5 P  2.29200000E+00  1.000000

  6 P  8.38000000E-01  1.000000

  7 P  2.92000000E-01  1.000000

  8 D  2.06200000E+00  1.000000

  9 D  6.62000000E-01  1.000000

 10 F  1.39700000E+00  1.000000



 Summary of "ao basis" -> "ao basis" (cartesian)
 ------------------------------------------------------------------------------
       Tag                 Description            Shells   Functions and Types
 ---------------- ------------------------------  ------  ---------------------
 H                          cc-pVQZ                 10       35   4s3p2d1f



                            NWChem Direct MCSCF Module
                            --------------------------


                                        H2


     -----------------------------------
       Basis functions:             70
       Inactive shells:              0
       Active shells:               10
       Active electrons:             2
       Symmetry:                    a       
       Multiplicity:                 1
       Orbital rotations:          600
     -----------------------------------

     -----------------------------------
       E2 extrapolation:             F
       Conjugacy:                    T
       Micro CI relax:               T
       Canonical orbitals:           T
       Maximum iterations:          40
       Converge threshold:    1.00E-04
       Conjugacy resets:            20
       Initial levelshift:        0.10
     -----------------------------------

 Loading old vectors from job with title :

H2


   input molecular orbitals = ./H2.mos
  output molecular orbtials = ./H2.mos

       No. of determinants:           100


  Starting Orbital Energies
    -0.368418    -0.130953    -0.000924    -0.000585    -0.000585    -0.000068
    -0.000034    -0.000034    -0.000032    -0.000016     0.473041     0.806724
     0.984016     1.384482     1.384482     1.755386     1.786985     1.786985
     1.889716     1.889716     2.064831     2.064831     2.108661     2.112287
     2.112287     2.299353     2.299353     2.845603     2.955117     3.046894
     4.310841     4.417927     4.417927     4.445280     4.445280     4.727122
     5.921079     6.026501     6.026501     6.059337     6.059337     6.065052
     6.065052     6.065795     6.065795     6.072740     6.072740     6.112880
     6.112880     6.264640     8.047548     8.047548     8.068619     8.118069
     8.118069     8.150051     8.150051     8.285195     8.285195     8.765086
     9.613967     9.683591     9.691885     9.691885     9.739942     9.739942
     9.741868     9.949161    22.224151    23.061017

  Orbital Symmetry Irreps
a    a    a    a    a    a    a    a    a    a    a    a    a    a    a   
a    a    a    a    a    a    a    a    a    a    a    a    a    a    a   
a    a    a    a    a    a    a    a    a    a    a    a    a    a    a   
a    a    a    a    a    a    a    a    a    a    a    a    a    a    a   
a    a    a    a    a    a    a    a    a    a   

 Integral file          = ./H2.aoints.0
 Record size in doubles =  65536        No. of integs per rec  =  43688
 Max. records in memory =     99        Max. records in file   = 280219
 No. of bits per label  =      8        No. of bits per value  =     64


 #quartets = 2.177D+04 #integrals = 7.800D+05 #direct =  0.0% #cached =100.0%




          %%%%% MacroIteration   1 %%%%%


          Number of sigma calls:       14
                       o<<<<< (aa):             0.00
                       o<<<<< (bb):             0.00
                       o<<<<< (ab):             0.01
                       o<<<<< (total)           0.01
                       o<<<<< (aa) ff           0.00
                       o<<<<< (aa) gop          0.00
                       o<<<<< (aa) dot          0.00
                       o<<<<< (ab) str          0.00
                       o<<<<< (ab) gath         0.00
                       o<<<<< (ab) dotab        0.00
                       o<<<<< (ab) scat         0.00
                       o<<<<< (ab) sync         0.00
                       o<<<<< Density           0.00
                       o<<<<< Density one       0.00
                       o<<<<< Density two       0.00
                       o<<<<< Density ab        0.00
                       o<<<<< Spin adapt        0.00
                       o<<<<< Symm adapt        0.00

                       o<<<<< (ab) max sync:      0.00

           >>>| Valence CI:             -1.269932585578
           >>>| MCSCF energy:           -1.016768028616
           >>>| Gradient norm:          0.220646838D-02
     --- Warning:  474 Hessian diagonals < 0.05 ---

                              ----- Line search ------

        step       energy         lsg     num-lsg   num-lsh   lsrat    time
      ------- ---------------- --------- --------- --------- ------- --------
       0.0000      -1.01676803 -8.95D-07  0.00D+00  0.00D+00 0.0D+00      0.6

          Number of sigma calls:       10
                       o<<<<< (aa):             0.00
                       o<<<<< (bb):             0.00
                       o<<<<< (ab):             0.00
                       o<<<<< (total)           0.00
                       o<<<<< (aa) ff           0.00
                       o<<<<< (aa) gop          0.00
                       o<<<<< (aa) dot          0.00
                       o<<<<< (ab) str          0.00
                       o<<<<< (ab) gath         0.00
                       o<<<<< (ab) dotab        0.00
                       o<<<<< (ab) scat         0.00
                       o<<<<< (ab) sync         0.00
                       o<<<<< Density           0.00
                       o<<<<< Density one       0.00
                       o<<<<< Density two       0.00
                       o<<<<< Density ab        0.00
                       o<<<<< Spin adapt        0.00
                       o<<<<< Symm adapt        0.00

                       o<<<<< (ab) max sync:      0.00
       1.0000      -1.01676861 -2.60D-07 -2.60D-07  6.35D-07 2.9D-01      0.7

          Number of sigma calls:       10
                       o<<<<< (aa):             0.00
                       o<<<<< (bb):             0.00
                       o<<<<< (ab):             0.01
                       o<<<<< (total)           0.01
                       o<<<<< (aa) ff           0.00
                       o<<<<< (aa) gop          0.00
                       o<<<<< (aa) dot          0.00
                       o<<<<< (ab) str          0.00
                       o<<<<< (ab) gath         0.00
                       o<<<<< (ab) dotab        0.00
                       o<<<<< (ab) scat         0.00
                       o<<<<< (ab) sync         0.00
                       o<<<<< Density           0.00
                       o<<<<< Density one       0.00
                       o<<<<< Density two       0.00
                       o<<<<< Density ab        0.00
                       o<<<<< Spin adapt        0.00
                       o<<<<< Symm adapt        0.00

                       o<<<<< (ab) max sync:      0.00
       1.4088      -1.01676866  1.35D-10  1.29D-10  6.36D-07 1.5D-04      0.9
     --- Orbitals canonicalized ---



          %%%%% MacroIteration   2 %%%%%


          Number of sigma calls:       14
                       o<<<<< (aa):             0.00
                       o<<<<< (bb):             0.00
                       o<<<<< (ab):             0.01
                       o<<<<< (total)           0.02
                       o<<<<< (aa) ff           0.00
                       o<<<<< (aa) gop          0.00
                       o<<<<< (aa) dot          0.00
                       o<<<<< (ab) str          0.00
                       o<<<<< (ab) gath         0.00
                       o<<<<< (ab) dotab        0.00
                       o<<<<< (ab) scat         0.00
                       o<<<<< (ab) sync         0.00
                       o<<<<< Density           0.00
                       o<<<<< Density one       0.00
                       o<<<<< Density two       0.00
                       o<<<<< Density ab        0.00
                       o<<<<< Spin adapt        0.00
                       o<<<<< Symm adapt        0.00

                       o<<<<< (ab) max sync:      0.00

           >>>| Valence CI:             -1.269933216092
           >>>| MCSCF energy:           -1.016768659130
           >>>| Gradient norm:          0.616548898D-03
     --- Warning:  474 Hessian diagonals < 0.05 ---
     --- Conjugacy reset ---

                              ----- Line search ------

        step       energy         lsg     num-lsg   num-lsh   lsrat    time
      ------- ---------------- --------- --------- --------- ------- --------
       0.0000      -1.01676866 -9.36D-08  0.00D+00  0.00D+00 0.0D+00      1.3

          Number of sigma calls:        9
                       o<<<<< (aa):             0.00
                       o<<<<< (bb):             0.00
                       o<<<<< (ab):             0.01
                       o<<<<< (total)           0.01
                       o<<<<< (aa) ff           0.00
                       o<<<<< (aa) gop          0.00
                       o<<<<< (aa) dot          0.00
                       o<<<<< (ab) str          0.00
                       o<<<<< (ab) gath         0.00
                       o<<<<< (ab) dotab        0.00
                       o<<<<< (ab) scat         0.00
                       o<<<<< (ab) sync         0.00
                       o<<<<< Density           0.00
                       o<<<<< Density one       0.00
                       o<<<<< Density two       0.00
                       o<<<<< Density ab        0.00
                       o<<<<< Spin adapt        0.00
                       o<<<<< Symm adapt        0.00

                       o<<<<< (ab) max sync:      0.00
       1.0000      -1.01676872 -3.41D-08 -3.41D-08  5.95D-08 3.6D-01      1.5

          Number of sigma calls:        9
                       o<<<<< (aa):             0.00
                       o<<<<< (bb):             0.00
                       o<<<<< (ab):             0.00
                       o<<<<< (total)           0.00
                       o<<<<< (aa) ff           0.00
                       o<<<<< (aa) gop          0.00
                       o<<<<< (aa) dot          0.00
                       o<<<<< (ab) str          0.00
                       o<<<<< (ab) gath         0.00
                       o<<<<< (ab) dotab        0.00
                       o<<<<< (ab) scat         0.00
                       o<<<<< (ab) sync         0.00
                       o<<<<< Density           0.00
                       o<<<<< Density one       0.00
                       o<<<<< Density two       0.00
                       o<<<<< Density ab        0.00
                       o<<<<< Spin adapt        0.00
                       o<<<<< Symm adapt        0.00

                       o<<<<< (ab) max sync:      0.00
       1.5726      -1.01676873  1.49D-11  1.39D-11  5.95D-08 1.6D-04      1.6



          %%%%% MacroIteration   3 %%%%%


          Number of sigma calls:        1
                       o<<<<< (aa):             0.00
                       o<<<<< (bb):             0.00
                       o<<<<< (ab):             0.00
                       o<<<<< (total)           0.00
                       o<<<<< (aa) ff           0.00
                       o<<<<< (aa) gop          0.00
                       o<<<<< (aa) dot          0.00
                       o<<<<< (ab) str          0.00
                       o<<<<< (ab) gath         0.00
                       o<<<<< (ab) dotab        0.00
                       o<<<<< (ab) scat         0.00
                       o<<<<< (ab) sync         0.00
                       o<<<<< Density           0.00
                       o<<<<< Density one       0.00
                       o<<<<< Density two       0.00
                       o<<<<< Density ab        0.00
                       o<<<<< Spin adapt        0.00
                       o<<<<< Symm adapt        0.00

                       o<<<<< (ab) max sync:      0.00

           >>>| Valence CI:             -1.269933289665
           >>>| MCSCF energy:           -1.016768732703
           >>>| Gradient norm:          0.339962536D-03
     --- Warning:  474 Hessian diagonals < 0.05 ---

                              ----- Line search ------

        step       energy         lsg     num-lsg   num-lsh   lsrat    time
      ------- ---------------- --------- --------- --------- ------- --------
       0.0000      -1.01676873 -1.16D-08  0.00D+00  0.00D+00 0.0D+00      1.6

          Number of sigma calls:        8
                       o<<<<< (aa):             0.00
                       o<<<<< (bb):             0.00
                       o<<<<< (ab):             0.01
                       o<<<<< (total)           0.01
                       o<<<<< (aa) ff           0.00
                       o<<<<< (aa) gop          0.00
                       o<<<<< (aa) dot          0.00
                       o<<<<< (ab) str          0.00
                       o<<<<< (ab) gath         0.00
                       o<<<<< (ab) dotab        0.00
                       o<<<<< (ab) scat         0.00
                       o<<<<< (ab) sync         0.00
                       o<<<<< Density           0.00
                       o<<<<< Density one       0.00
                       o<<<<< Density two       0.00
                       o<<<<< Density ab        0.00
                       o<<<<< Spin adapt        0.00
                       o<<<<< Symm adapt        0.00

                       o<<<<< (ab) max sync:      0.00
       1.0000      -1.01676874 -3.35D-09 -3.35D-09  8.29D-09 2.9D-01      1.8

          Number of sigma calls:        8
                       o<<<<< (aa):             0.00
                       o<<<<< (bb):             0.00
                       o<<<<< (ab):             0.00
                       o<<<<< (total)           0.00
                       o<<<<< (aa) ff           0.00
                       o<<<<< (aa) gop          0.00
                       o<<<<< (aa) dot          0.00
                       o<<<<< (ab) str          0.00
                       o<<<<< (ab) gath         0.00
                       o<<<<< (ab) dotab        0.00
                       o<<<<< (ab) scat         0.00
                       o<<<<< (ab) sync         0.00
                       o<<<<< Density           0.00
                       o<<<<< Density one       0.00
                       o<<<<< Density two       0.00
                       o<<<<< Density ab        0.00
                       o<<<<< Spin adapt        0.00
                       o<<<<< Symm adapt        0.00

                       o<<<<< (ab) max sync:      0.00
       1.4036      -1.01676874  6.76D-14  7.06D-14  8.29D-09 5.8D-06      1.9



          %%%%% MacroIteration   4 %%%%%


          Number of sigma calls:        1
                       o<<<<< (aa):             0.00
                       o<<<<< (bb):             0.00
                       o<<<<< (ab):             0.00
                       o<<<<< (total)           0.00
                       o<<<<< (aa) ff           0.00
                       o<<<<< (aa) gop          0.00
                       o<<<<< (aa) dot          0.00
                       o<<<<< (ab) str          0.00
                       o<<<<< (ab) gath         0.00
                       o<<<<< (ab) dotab        0.00
                       o<<<<< (ab) scat         0.00
                       o<<<<< (ab) sync         0.00
                       o<<<<< Density           0.00
                       o<<<<< Density one       0.00
                       o<<<<< Density two       0.00
                       o<<<<< Density ab        0.00
                       o<<<<< Spin adapt        0.00
                       o<<<<< Symm adapt        0.00

                       o<<<<< (ab) max sync:      0.00

           >>>| Valence CI:             -1.269933297830
           >>>| MCSCF energy:           -1.016768740868
           >>>| Gradient norm:          0.138460656D-03
     --- Warning:  474 Hessian diagonals < 0.05 ---

                              ----- Line search ------

        step       energy         lsg     num-lsg   num-lsh   lsrat    time
      ------- ---------------- --------- --------- --------- ------- --------
       0.0000      -1.01676874 -1.37D-08  0.00D+00  0.00D+00 0.0D+00      2.1

          Number of sigma calls:        8
                       o<<<<< (aa):             0.00
                       o<<<<< (bb):             0.00
                       o<<<<< (ab):             0.01
                       o<<<<< (total)           0.01
                       o<<<<< (aa) ff           0.00
                       o<<<<< (aa) gop          0.00
                       o<<<<< (aa) dot          0.00
                       o<<<<< (ab) str          0.00
                       o<<<<< (ab) gath         0.00
                       o<<<<< (ab) dotab        0.00
                       o<<<<< (ab) scat         0.00
                       o<<<<< (ab) sync         0.00
                       o<<<<< Density           0.00
                       o<<<<< Density one       0.00
                       o<<<<< Density two       0.00
                       o<<<<< Density ab        0.00
                       o<<<<< Spin adapt        0.00
                       o<<<<< Symm adapt        0.00

                       o<<<<< (ab) max sync:      0.00
       1.0000      -1.01676875 -6.23D-09 -6.23D-09  7.51D-09 4.5D-01      2.3

          Number of sigma calls:        8
                       o<<<<< (aa):             0.00
                       o<<<<< (bb):             0.00
                       o<<<<< (ab):             0.01
                       o<<<<< (total)           0.01
                       o<<<<< (aa) ff           0.00
                       o<<<<< (aa) gop          0.00
                       o<<<<< (aa) dot          0.00
                       o<<<<< (ab) str          0.00
                       o<<<<< (ab) gath         0.00
                       o<<<<< (ab) dotab        0.00
                       o<<<<< (ab) scat         0.00
                       o<<<<< (ab) sync         0.00
                       o<<<<< Density           0.00
                       o<<<<< Density one       0.00
                       o<<<<< Density two       0.00
                       o<<<<< Density ab        0.00
                       o<<<<< Spin adapt        0.00
                       o<<<<< Symm adapt        0.00

                       o<<<<< (ab) max sync:      0.00
       1.8291      -1.01676875  8.09D-12  7.48D-12  7.52D-09 5.9D-04      2.5



          %%%%% MacroIteration   5 %%%%%


          Number of sigma calls:        1
                       o<<<<< (aa):             0.00
                       o<<<<< (bb):             0.00
                       o<<<<< (ab):             0.00
                       o<<<<< (total)           0.00
                       o<<<<< (aa) ff           0.00
                       o<<<<< (aa) gop          0.00
                       o<<<<< (aa) dot          0.00
                       o<<<<< (ab) str          0.00
                       o<<<<< (ab) gath         0.00
                       o<<<<< (ab) dotab        0.00
                       o<<<<< (ab) scat         0.00
                       o<<<<< (ab) sync         0.00
                       o<<<<< Density           0.00
                       o<<<<< Density one       0.00
                       o<<<<< Density two       0.00
                       o<<<<< Density ab        0.00
                       o<<<<< Spin adapt        0.00
                       o<<<<< Symm adapt        0.00

                       o<<<<< (ab) max sync:      0.00

           >>>| Valence CI:             -1.269933310388
           >>>| MCSCF energy:           -1.016768753426
           >>>| Gradient norm:          0.387531792D-04




     ==============================
            MCSCF Converged
     ==============================



          Canonical Eigenvalues

              1      
    1   -0.3648
    2   -0.1345
    3   -0.0009
    4   -0.0005
    5   -0.0005
    6   -0.0001
    7   -0.0000
    8   -0.0000
    9   -0.0000
   10   -0.0000
   11    0.4735
   12    0.8064
   13    0.9798
   14    1.3845
   15    1.3845
   16    1.7495
   17    1.7910
   18    1.7910
   19    1.8962
   20    1.8962
   21    2.0671
   22    2.0671
   23    2.0969
   24    2.1099
   25    2.1099
   26    2.2866
   27    2.2866
   28    2.8225
   29    2.9564
   30    3.0405
   31    4.3052
   32    4.4207
   33    4.4207
   34    4.4420
   35    4.4420
   36    4.7252
   37    5.9197
   38    6.0331
   39    6.0331
   40    6.0607
   41    6.0607
   42    6.0652
   43    6.0652
   44    6.0658
   45    6.0658
   46    6.0715
   47    6.0715
   48    6.1050
   49    6.1050
   50    6.2353
   51    8.0513
   52    8.0513
   53    8.0525
   54    8.1197
   55    8.1197
   56    8.1486
   57    8.1486
   58    8.2738
   59    8.2738
   60    8.7330
   61    9.6140
   62    9.6831
   63    9.6931
   64    9.6931
   65    9.7260
   66    9.7389
   67    9.7389
   68    9.9459
   69   22.2051
   70   23.0487


          Converged CI vector

   Index           Coefficient          Config. Occupation
         1          0.87395143          1  1
        12         -0.48404278          2  2
        23         -0.02827811          3  3
        34         -0.02197786          4  4
        45         -0.02197786          5  5

          Number of sigma calls:        1
                       o<<<<< (aa):             0.00
                       o<<<<< (bb):             0.00
                       o<<<<< (ab):             0.00
                       o<<<<< (total)           0.00
                       o<<<<< (aa) ff           0.00
                       o<<<<< (aa) gop          0.00
                       o<<<<< (aa) dot          0.00
                       o<<<<< (ab) str          0.00
                       o<<<<< (ab) gath         0.00
                       o<<<<< (ab) dotab        0.00
                       o<<<<< (ab) scat         0.00
                       o<<<<< (ab) sync         0.00
                       o<<<<< Density           0.00
                       o<<<<< Density one       0.00
                       o<<<<< Density two       0.00
                       o<<<<< Density ab        0.00
                       o<<<<< Spin adapt        0.00
                       o<<<<< Symm adapt        0.00

                       o<<<<< (ab) max sync:      0.00



          Natural orbital occupation numbers

              1      
    1    1.5277
    2    0.4686
    3    0.0016
    4    0.0010
    5    0.0010
    6    0.0001
    7    0.0000
    8    0.0000
    9    0.0000
   10    0.0000


          Number of sigma calls:       14
                       o<<<<< (aa):             0.00
                       o<<<<< (bb):             0.00
                       o<<<<< (ab):             0.00
                       o<<<<< (total)           0.00
                       o<<<<< (aa) ff           0.00
                       o<<<<< (aa) gop          0.00
                       o<<<<< (aa) dot          0.00
                       o<<<<< (ab) str          0.00
                       o<<<<< (ab) gath         0.00
                       o<<<<< (ab) dotab        0.00
                       o<<<<< (ab) scat         0.00
                       o<<<<< (ab) sync         0.00
                       o<<<<< Density           0.00
                       o<<<<< Density one       0.00
                       o<<<<< Density two       0.00
                       o<<<<< Density ab        0.00
                       o<<<<< Spin adapt        0.00
                       o<<<<< Symm adapt        0.00

                       o<<<<< (ab) max sync:      0.00


       Final MCSCF results 
       ------------------- 

       Total MCSCF energy =     -1.016768753426
            Gradient norm =      3.9D-05

    CPU time for solution =      2.7s
   Wall time for solution =      3.2s



                        Analysis of MCSCF natural orbitals
                        ----------------------------------

 Vector    1  Occ=1.527652D+00  E=-3.647974D-01  Symmetry=a
              MO Center=  2.2D-15,  1.3D-12, -1.4D-15, r^2= 1.9D+00
   Bfn.  Coefficient  Atom+Function         Bfn.  Coefficient  Atom+Function  
  ----- ------------  ---------------      ----- ------------  ---------------
     3      0.307791  1 H  s                 38      0.307791  2 H  s          
     4      0.203486  1 H  s                 39      0.203486  2 H  s          
     2      0.160529  1 H  s                 37      0.160529  2 H  s          

 Vector    2  Occ=4.685948D-01  E=-1.344757D-01  Symmetry=a
              MO Center=  4.1D-15, -2.1D-12, -3.7D-15, r^2= 2.0D+00
   Bfn.  Coefficient  Atom+Function         Bfn.  Coefficient  Atom+Function  
  ----- ------------  ---------------      ----- ------------  ---------------
     3      0.409449  1 H  s                 38     -0.409449  2 H  s          
     2      0.207205  1 H  s                 37     -0.207205  2 H  s          
     4      0.199622  1 H  s                 39     -0.199622  2 H  s          

 Vector    3  Occ=1.602972D-03  E=-8.801587D-04  Symmetry=a
              MO Center= -3.6D-14,  1.5D-10,  2.3D-14, r^2= 2.6D+00
   Bfn.  Coefficient  Atom+Function         Bfn.  Coefficient  Atom+Function  
  ----- ------------  ---------------      ----- ------------  ---------------
     4      0.502173  1 H  s                 39      0.502173  2 H  s          
    12     -0.466623  1 H  py                47      0.466623  2 H  py         
     3     -0.454662  1 H  s                 38     -0.454662  2 H  s          
     9     -0.231682  1 H  py                44      0.231682  2 H  py         

 Vector    4  Occ=9.660530D-04  E=-5.461383D-04  Symmetry=a
              MO Center=  1.1D-13,  2.1D-11, -1.3D-14, r^2= 1.9D+00
   Bfn.  Coefficient  Atom+Function         Bfn.  Coefficient  Atom+Function  
  ----- ------------  ---------------      ----- ------------  ---------------
     8      0.802358  1 H  px                43      0.802358  2 H  px         
    11     -0.756773  1 H  px                46     -0.756773  2 H  px         
    29     -0.392611  1 H  fxyy              64     -0.392611  2 H  fxyy       
    26     -0.341653  1 H  fxxx              31     -0.341653  1 H  fxzz       
    61     -0.341653  2 H  fxxx              66     -0.341653  2 H  fxzz       

 Vector    5  Occ=9.660530D-04  E=-5.461383D-04  Symmetry=a
              MO Center= -5.2D-15,  2.1D-11, -4.8D-14, r^2= 1.9D+00
   Bfn.  Coefficient  Atom+Function         Bfn.  Coefficient  Atom+Function  
  ----- ------------  ---------------      ----- ------------  ---------------
    10      0.802358  1 H  pz                45      0.802358  2 H  pz         
    13     -0.756773  1 H  pz                48     -0.756773  2 H  pz         
    33     -0.392611  1 H  fyyz              68     -0.392611  2 H  fyyz       
    28     -0.341653  1 H  fxxz              35     -0.341653  1 H  fzzz       
    63     -0.341653  2 H  fxxz              70     -0.341653  2 H  fzzz       

 Vector    6  Occ=9.573167D-05  E=-6.237410D-05  Symmetry=a
              MO Center= -6.0D-14,  1.5D-10,  3.5D-14, r^2= 1.9D+00
   Bfn.  Coefficient  Atom+Function         Bfn.  Coefficient  Atom+Function  
  ----- ------------  ---------------      ----- ------------  ---------------
     9      0.730870  1 H  py                44     -0.730870  2 H  py         
     2      0.688742  1 H  s                 37      0.688742  2 H  s          
     4     -0.352430  1 H  s                 39     -0.352430  2 H  s          
    12     -0.325168  1 H  py                47      0.325168  2 H  py         
    27     -0.297153  1 H  fxxy              34     -0.297153  1 H  fyzz       

 Vector    7  Occ=3.818118D-05  E=-3.112264D-05  Symmetry=a
              MO Center= -2.0D-12, -6.5D-12,  7.5D-14, r^2= 1.5D+00
   Bfn.  Coefficient  Atom+Function         Bfn.  Coefficient  Atom+Function  
  ----- ------------  ---------------      ----- ------------  ---------------
     8      0.823994  1 H  px                43     -0.823994  2 H  px         
    11      0.330689  1 H  px                46     -0.330689  2 H  px         
    21      0.259196  1 H  dxy               56      0.259196  2 H  dxy        
    26     -0.228523  1 H  fxxx              31     -0.228523  1 H  fxzz       
    61      0.228523  2 H  fxxx              66      0.228523  2 H  fxzz       

 Vector    8  Occ=3.818118D-05  E=-3.112264D-05  Symmetry=a
              MO Center=  4.2D-14, -6.2D-12,  1.1D-12, r^2= 1.5D+00
   Bfn.  Coefficient  Atom+Function         Bfn.  Coefficient  Atom+Function  
  ----- ------------  ---------------      ----- ------------  ---------------
    10      0.823994  1 H  pz                45     -0.823994  2 H  pz         
    13      0.330689  1 H  pz                48     -0.330689  2 H  pz         
    24      0.259196  1 H  dyz               59      0.259196  2 H  dyz        
    28     -0.228523  1 H  fxxz              35     -0.228523  1 H  fzzz       
    63      0.228523  2 H  fxxz              70      0.228523  2 H  fzzz       

 Vector    9  Occ=3.335820D-05  E=-2.896206D-05  Symmetry=a
              MO Center=  4.8D-12,  3.1D-10, -3.0D-12, r^2= 2.0D+00
   Bfn.  Coefficient  Atom+Function         Bfn.  Coefficient  Atom+Function  
  ----- ------------  ---------------      ----- ------------  ---------------
     9      0.905126  1 H  py                44      0.905126  2 H  py         
     2      0.670093  1 H  s                 37     -0.670093  2 H  s          
     3     -0.616343  1 H  s                 38      0.616343  2 H  s          
    27     -0.265574  1 H  fxxy              34     -0.265574  1 H  fyzz       
    62     -0.265574  2 H  fxxy              69     -0.265574  2 H  fyzz       

 Vector   10  Occ=1.300678D-05  E=-1.468797D-05  Symmetry=a
              MO Center=  1.3D-14,  2.2D-09, -7.4D-15, r^2= 2.5D+00
   Bfn.  Coefficient  Atom+Function         Bfn.  Coefficient  Atom+Function  
  ----- ------------  ---------------      ----- ------------  ---------------
     9      4.197340  1 H  py                44     -4.197340  2 H  py         
    27     -1.857808  1 H  fxxy              34     -1.857808  1 H  fyzz       
    62      1.857808  2 H  fxxy              69      1.857808  2 H  fyzz       
    32     -1.509736  1 H  fyyy              67      1.509736  2 H  fyyy       
     3     -1.309832  1 H  s                 38     -1.309832  2 H  s          

 Vector   11  Occ=0.000000D+00  E= 4.735128D-01  Symmetry=a
              MO Center=  8.0D-13,  2.3D-10, -4.8D-13, r^2= 7.8D+00
   Bfn.  Coefficient  Atom+Function         Bfn.  Coefficient  Atom+Function  
  ----- ------------  ---------------      ----- ------------  ---------------
     3      2.824915  1 H  s                 38     -2.824915  2 H  s          
     4     -2.350842  1 H  s                 39      2.350842  2 H  s          
     2     -0.672737  1 H  s                 37      0.672737  2 H  s          
    12     -0.530644  1 H  py                47     -0.530644  2 H  py         
     9      0.464183  1 H  py                44      0.464183  2 H  py         

 Vector   12  Occ=0.000000D+00  E= 8.064210D-01  Symmetry=a
              MO Center= -3.5D-15, -4.0D-10,  2.5D-15, r^2= 5.5D+00
   Bfn.  Coefficient  Atom+Function         Bfn.  Coefficient  Atom+Function  
  ----- ------------  ---------------      ----- ------------  ---------------
     3      3.803744  1 H  s                 38      3.803744  2 H  s          
     4     -1.469876  1 H  s                 39     -1.469876  2 H  s          
     2     -1.190378  1 H  s                 37     -1.190378  2 H  s          
    23     -0.604425  1 H  dyy               58     -0.604425  2 H  dyy        
    20     -0.586406  1 H  dxx               25     -0.586406  1 H  dzz        

 Vector   13  Occ=0.000000D+00  E= 9.797556D-01  Symmetry=a
              MO Center= -6.1D-12, -3.3D-09,  3.7D-12, r^2= 3.0D+00
   Bfn.  Coefficient  Atom+Function         Bfn.  Coefficient  Atom+Function  
  ----- ------------  ---------------      ----- ------------  ---------------
     9      2.886319  1 H  py                44      2.886319  2 H  py         
     3     -2.361091  1 H  s                 38      2.361091  2 H  s          
    12     -1.670653  1 H  py                47     -1.670653  2 H  py         
    32     -1.117676  1 H  fyyy              67     -1.117676  2 H  fyyy       
    27     -1.087477  1 H  fxxy              34     -1.087477  1 H  fyzz       

 Vector   14  Occ=0.000000D+00  E= 1.384515D+00  Symmetry=a
              MO Center= -1.6D-13, -6.0D-11, -1.6D-12, r^2= 3.4D+00
   Bfn.  Coefficient  Atom+Function         Bfn.  Coefficient  Atom+Function  
  ----- ------------  ---------------      ----- ------------  ---------------
    10      5.540619  1 H  pz                45     -5.540619  2 H  pz         
    28     -2.145291  1 H  fxxz              33     -2.145068  1 H  fyyz       
    35     -2.145291  1 H  fzzz              63      2.145291  2 H  fxxz       
    68      2.145068  2 H  fyyz              70      2.145291  2 H  fzzz       
    13     -1.589502  1 H  pz                48      1.589502  2 H  pz         

 Vector   15  Occ=0.000000D+00  E= 1.384515D+00  Symmetry=a
              MO Center=  3.5D-12, -6.1D-11, -3.5D-13, r^2= 3.4D+00
   Bfn.  Coefficient  Atom+Function         Bfn.  Coefficient  Atom+Function  
  ----- ------------  ---------------      ----- ------------  ---------------
     8      5.540619  1 H  px                43     -5.540619  2 H  px         
    26     -2.145291  1 H  fxxx              29     -2.145068  1 H  fxyy       
    31     -2.145291  1 H  fxzz              61      2.145291  2 H  fxxx       
    64      2.145068  2 H  fxyy              66      2.145291  2 H  fxzz       
    11     -1.589502  1 H  px                46      1.589502  2 H  px         

 Vector   16  Occ=0.000000D+00  E= 1.749515D+00  Symmetry=a
              MO Center= -9.2D-13,  1.3D-09,  5.6D-13, r^2= 3.8D+00
   Bfn.  Coefficient  Atom+Function         Bfn.  Coefficient  Atom+Function  
  ----- ------------  ---------------      ----- ------------  ---------------
     9      5.107455  1 H  py                44      5.107455  2 H  py         
     3      2.273472  1 H  s                 38     -2.273472  2 H  s          
    32     -1.936401  1 H  fyyy              67     -1.936401  2 H  fyyy       
    27     -1.906836  1 H  fxxy              34     -1.906836  1 H  fyzz       
    62     -1.906836  2 H  fxxy              69     -1.906836  2 H  fyzz       

 Vector   17  Occ=0.000000D+00  E= 1.791028D+00  Symmetry=a
              MO Center= -3.5D-14,  2.9D-11,  4.8D-15, r^2= 2.5D+00
   Bfn.  Coefficient  Atom+Function         Bfn.  Coefficient  Atom+Function  
  ----- ------------  ---------------      ----- ------------  ---------------
     8      6.131417  1 H  px                43      6.131417  2 H  px         
    26     -2.401600  1 H  fxxx              31     -2.401600  1 H  fxzz       
    61     -2.401600  2 H  fxxx              66     -2.401600  2 H  fxzz       
    29     -2.388345  1 H  fxyy              64     -2.388345  2 H  fxyy       
     5     -1.622688  1 H  px                40     -1.622688  2 H  px         

 Vector   18  Occ=0.000000D+00  E= 1.791028D+00  Symmetry=a
              MO Center=  2.6D-15,  2.9D-11,  1.9D-14, r^2= 2.5D+00
   Bfn.  Coefficient  Atom+Function         Bfn.  Coefficient  Atom+Function  
  ----- ------------  ---------------      ----- ------------  ---------------
    10      6.131417  1 H  pz                45      6.131417  2 H  pz         
    28     -2.401600  1 H  fxxz              35     -2.401600  1 H  fzzz       
    63     -2.401600  2 H  fxxz              70     -2.401600  2 H  fzzz       
    33     -2.388345  1 H  fyyz              68     -2.388345  2 H  fyyz       
     7     -1.622688  1 H  pz                42     -1.622688  2 H  pz         

 Vector   19  Occ=0.000000D+00  E= 1.896197D+00  Symmetry=a
              MO Center=  4.0D-16,  2.1D-11, -2.6D-15, r^2= 2.3D+00
   Bfn.  Coefficient  Atom+Function         Bfn.  Coefficient  Atom+Function  
  ----- ------------  ---------------      ----- ------------  ---------------
    24      1.154017  1 H  dyz               59     -1.154017  2 H  dyz        
    21     -0.465824  1 H  dxy               56      0.465824  2 H  dxy        
    10     -0.442087  1 H  pz                45     -0.442087  2 H  pz         
    33      0.188625  1 H  fyyz              68      0.188625  2 H  fyyz       
     8      0.178451  1 H  px                43      0.178451  2 H  px         

 Vector   20  Occ=0.000000D+00  E= 1.896197D+00  Symmetry=a
              MO Center=  1.6D-15,  2.1D-11,  5.6D-15, r^2= 2.3D+00
   Bfn.  Coefficient  Atom+Function         Bfn.  Coefficient  Atom+Function  
  ----- ------------  ---------------      ----- ------------  ---------------
    21      1.154017  1 H  dxy               56     -1.154017  2 H  dxy        
    24      0.465824  1 H  dyz               59     -0.465824  2 H  dyz        
     8     -0.442087  1 H  px                43     -0.442087  2 H  px         
    29      0.188625  1 H  fxyy              64      0.188625  2 H  fxyy       
    10     -0.178451  1 H  pz                45     -0.178451  2 H  pz         


 Wrote Lagrangian and 1- and 2-particle density matrices to ./H2.mcpdm


     Multipole analysis of the density
     ---------------------------------

     L   x y z        total        nuclear
     -   - - -        -----        -------
     0   0 0 0     -0.000000      2.000000

     1   1 0 0     -0.000000      0.000000
     1   0 1 0     -0.000000      0.000000
     1   0 0 1      0.000000      0.000000

     2   2 0 0     -2.094906      0.000000
     2   1 1 0      0.000000      0.000000
     2   1 0 1     -0.000000      0.000000
     2   0 2 0     -1.440948      7.801250
     2   0 1 1     -0.000000      0.000000
     2   0 0 2     -2.094906      0.000000


  Mulliken analysis of the total density
  --------------------------------------

    Atom       Charge   Shell Charges
 -----------   ------   -------------------------------------------------------
    1 H    1     1.00   0.04  0.21  0.47  0.27  0.00 -0.00  0.00  0.00  0.00  0.00
    2 H    1     1.00   0.04  0.21  0.47  0.27  0.00 -0.00  0.00  0.00  0.00  0.00

    Mulliken analysis of the active space density
    ---------------------------------------------

    Atom       Charge   Shell Charges
 -----------   ------   -------------------------------------------------------
    1 H    1     1.00   0.04  0.21  0.47  0.27  0.00 -0.00  0.00  0.00  0.00  0.00
    2 H    1     1.00   0.04  0.21  0.47  0.27  0.00 -0.00  0.00  0.00  0.00  0.00

 Parallel integral file used      18 records with       0 large values


 Task  times  cpu:        2.7s     wall:        3.3s


                                NWChem Input Module
                                -------------------


                                 NWChem SCF Module
                                 -----------------


                                        H2



  ao basis        = "ao basis"
  functions       =    70
  atoms           =     2
  closed shells   =     1
  open shells     =     0
  charge          =   0.00
  wavefunction    = RHF 
  input vectors   = ./H2.mos
  output vectors  = ./H2-3.95.mos
  use symmetry    = F
  symmetry adapt  = F


 Summary of "ao basis" -> "ao basis" (cartesian)
 ------------------------------------------------------------------------------
       Tag                 Description            Shells   Functions and Types
 ---------------- ------------------------------  ------  ---------------------
 H                          cc-pVQZ                 10       35   4s3p2d1f



 Forming initial guess at       3.3s


 Loading old vectors from job with title :

H2


 Starting SCF solution at       3.3s



 ----------------------------------------------
         Quadratically convergent ROHF

 Convergence threshold     :          1.000E-04
 Maximum no. of iterations :           30
 Final Fock-matrix accuracy:          1.000E-07
 ----------------------------------------------


 Integral file          = ./H2.aoints.0
 Record size in doubles =  65536        No. of integs per rec  =  43688
 Max. records in memory =     99        Max. records in file   = 280270
 No. of bits per label  =      8        No. of bits per value  =     64


 #quartets = 2.110D+04 #integrals = 6.753D+05 #direct =  0.0% #cached =100.0%



       Final RHF  results 
       ------------------ 

         Total SCF energy =     -0.903338560055
      One-electron energy =     -1.584699993574
      Two-electron energy =      0.428196876556
 Nuclear repulsion energy =      0.253164556962

        Time for solution =      0.0s


             Final eigenvalues
             -----------------

              1      
    1   -0.3648
    2   -0.1345
    3   -0.0009
    4   -0.0005
    5   -0.0005
    6   -0.0001
    7   -0.0000
    8   -0.0000
    9   -0.0000
   10   -0.0000
   11    0.4735

                       ROHF Final Molecular Orbital Analysis
                       -------------------------------------

 Vector    1  Occ=2.000000D+00  E=-3.647974D-01
              MO Center=  2.2D-15,  1.3D-12, -1.4D-15, r^2= 1.9D+00
   Bfn.  Coefficient  Atom+Function         Bfn.  Coefficient  Atom+Function  
  ----- ------------  ---------------      ----- ------------  ---------------
     3      0.307791  1 H  s                 38      0.307791  2 H  s          
     4      0.203486  1 H  s                 39      0.203486  2 H  s          
     2      0.160529  1 H  s                 37      0.160529  2 H  s          

 Vector    2  Occ=0.000000D+00  E=-1.344757D-01
              MO Center=  4.1D-15, -2.1D-12, -3.7D-15, r^2= 2.0D+00
   Bfn.  Coefficient  Atom+Function         Bfn.  Coefficient  Atom+Function  
  ----- ------------  ---------------      ----- ------------  ---------------
     3      0.409449  1 H  s                 38     -0.409449  2 H  s          
     2      0.207205  1 H  s                 37     -0.207205  2 H  s          
     4      0.199622  1 H  s                 39     -0.199622  2 H  s          

 Vector    3  Occ=0.000000D+00  E=-8.801587D-04
              MO Center= -3.6D-14,  1.5D-10,  2.3D-14, r^2= 2.6D+00
   Bfn.  Coefficient  Atom+Function         Bfn.  Coefficient  Atom+Function  
  ----- ------------  ---------------      ----- ------------  ---------------
     4      0.502173  1 H  s                 39      0.502173  2 H  s          
    12     -0.466623  1 H  py                47      0.466623  2 H  py         
     3     -0.454662  1 H  s                 38     -0.454662  2 H  s          
     9     -0.231682  1 H  py                44      0.231682  2 H  py         

 Vector    4  Occ=0.000000D+00  E=-5.461383D-04
              MO Center=  1.1D-13,  2.1D-11, -1.3D-14, r^2= 1.9D+00
   Bfn.  Coefficient  Atom+Function         Bfn.  Coefficient  Atom+Function  
  ----- ------------  ---------------      ----- ------------  ---------------
     8      0.802358  1 H  px                43      0.802358  2 H  px         
    11     -0.756773  1 H  px                46     -0.756773  2 H  px         
    29     -0.392611  1 H  fxyy              64     -0.392611  2 H  fxyy       
    26     -0.341653  1 H  fxxx              31     -0.341653  1 H  fxzz       
    61     -0.341653  2 H  fxxx              66     -0.341653  2 H  fxzz       

 Vector    5  Occ=0.000000D+00  E=-5.461383D-04
              MO Center= -5.2D-15,  2.1D-11, -4.8D-14, r^2= 1.9D+00
   Bfn.  Coefficient  Atom+Function         Bfn.  Coefficient  Atom+Function  
  ----- ------------  ---------------      ----- ------------  ---------------
    10      0.802358  1 H  pz                45      0.802358  2 H  pz         
    13     -0.756773  1 H  pz                48     -0.756773  2 H  pz         
    33     -0.392611  1 H  fyyz              68     -0.392611  2 H  fyyz       
    28     -0.341653  1 H  fxxz              35     -0.341653  1 H  fzzz       
    63     -0.341653  2 H  fxxz              70     -0.341653  2 H  fzzz       

 Vector    6  Occ=0.000000D+00  E=-6.237410D-05
              MO Center= -6.0D-14,  1.5D-10,  3.5D-14, r^2= 1.9D+00
   Bfn.  Coefficient  Atom+Function         Bfn.  Coefficient  Atom+Function  
  ----- ------------  ---------------      ----- ------------  ---------------
     9      0.730870  1 H  py                44     -0.730870  2 H  py         
     2      0.688742  1 H  s                 37      0.688742  2 H  s          
     4     -0.352430  1 H  s                 39     -0.352430  2 H  s          
    12     -0.325168  1 H  py                47      0.325168  2 H  py         
    27     -0.297153  1 H  fxxy              34     -0.297153  1 H  fyzz       

 Vector    7  Occ=0.000000D+00  E=-3.112264D-05
              MO Center= -2.0D-12, -6.5D-12,  7.5D-14, r^2= 1.5D+00
   Bfn.  Coefficient  Atom+Function         Bfn.  Coefficient  Atom+Function  
  ----- ------------  ---------------      ----- ------------  ---------------
     8      0.823994  1 H  px                43     -0.823994  2 H  px         
    11      0.330689  1 H  px                46     -0.330689  2 H  px         
    21      0.259196  1 H  dxy               56      0.259196  2 H  dxy        
    26     -0.228523  1 H  fxxx              31     -0.228523  1 H  fxzz       
    61      0.228523  2 H  fxxx              66      0.228523  2 H  fxzz       

 Vector    8  Occ=0.000000D+00  E=-3.112264D-05
              MO Center=  4.2D-14, -6.2D-12,  1.1D-12, r^2= 1.5D+00
   Bfn.  Coefficient  Atom+Function         Bfn.  Coefficient  Atom+Function  
  ----- ------------  ---------------      ----- ------------  ---------------
    10      0.823994  1 H  pz                45     -0.823994  2 H  pz         
    13      0.330689  1 H  pz                48     -0.330689  2 H  pz         
    24      0.259196  1 H  dyz               59      0.259196  2 H  dyz        
    28     -0.228523  1 H  fxxz              35     -0.228523  1 H  fzzz       
    63      0.228523  2 H  fxxz              70      0.228523  2 H  fzzz       

 Vector    9  Occ=0.000000D+00  E=-2.896206D-05
              MO Center=  4.8D-12,  3.1D-10, -3.0D-12, r^2= 2.0D+00
   Bfn.  Coefficient  Atom+Function         Bfn.  Coefficient  Atom+Function  
  ----- ------------  ---------------      ----- ------------  ---------------
     9      0.905126  1 H  py                44      0.905126  2 H  py         
     2      0.670093  1 H  s                 37     -0.670093  2 H  s          
     3     -0.616343  1 H  s                 38      0.616343  2 H  s          
    27     -0.265574  1 H  fxxy              34     -0.265574  1 H  fyzz       
    62     -0.265574  2 H  fxxy              69     -0.265574  2 H  fyzz       

 Vector   10  Occ=0.000000D+00  E=-1.468797D-05
              MO Center=  1.3D-14,  2.2D-09, -7.4D-15, r^2= 2.5D+00
   Bfn.  Coefficient  Atom+Function         Bfn.  Coefficient  Atom+Function  
  ----- ------------  ---------------      ----- ------------  ---------------
     9      4.197340  1 H  py                44     -4.197340  2 H  py         
    27     -1.857808  1 H  fxxy              34     -1.857808  1 H  fyzz       
    62      1.857808  2 H  fxxy              69      1.857808  2 H  fyzz       
    32     -1.509736  1 H  fyyy              67      1.509736  2 H  fyyy       
     3     -1.309832  1 H  s                 38     -1.309832  2 H  s          

 Vector   11  Occ=0.000000D+00  E= 4.735128D-01
              MO Center=  8.0D-13,  2.3D-10, -4.8D-13, r^2= 7.8D+00
   Bfn.  Coefficient  Atom+Function         Bfn.  Coefficient  Atom+Function  
  ----- ------------  ---------------      ----- ------------  ---------------
     3      2.824915  1 H  s                 38     -2.824915  2 H  s          
     4     -2.350842  1 H  s                 39      2.350842  2 H  s          
     2     -0.672737  1 H  s                 37      0.672737  2 H  s          
    12     -0.530644  1 H  py                47     -0.530644  2 H  py         
     9      0.464183  1 H  py                44      0.464183  2 H  py         

 Vector   12  Occ=0.000000D+00  E= 8.064210D-01
              MO Center= -3.5D-15, -4.0D-10,  2.5D-15, r^2= 5.5D+00
   Bfn.  Coefficient  Atom+Function         Bfn.  Coefficient  Atom+Function  
  ----- ------------  ---------------      ----- ------------  ---------------
     3      3.803744  1 H  s                 38      3.803744  2 H  s          
     4     -1.469876  1 H  s                 39     -1.469876  2 H  s          
     2     -1.190378  1 H  s                 37     -1.190378  2 H  s          
    23     -0.604425  1 H  dyy               58     -0.604425  2 H  dyy        
    20     -0.586406  1 H  dxx               25     -0.586406  1 H  dzz        


 center of mass
 --------------
 x =   0.00000000 y =   0.00000000 z =   0.00000000

 moments of inertia (a.u.)
 ------------------
           7.862294781250           0.000000000000           0.000000000000
           0.000000000000           0.000000000000           0.000000000000
           0.000000000000           0.000000000000           7.862294781250

  Mulliken analysis of the total density
  --------------------------------------

    Atom       Charge   Shell Charges
 -----------   ------   -------------------------------------------------------
    1 H    1     1.00   0.04  0.19  0.45  0.31  0.00 -0.00  0.00  0.00  0.00  0.00
    2 H    1     1.00   0.04  0.19  0.45  0.31  0.00 -0.00  0.00  0.00  0.00  0.00

       Multipole analysis of the density wrt the origin
       ------------------------------------------------

     L   x y z        total         open         nuclear
     -   - - -        -----         ----         -------
     0   0 0 0     -0.000000      0.000000      2.000000

     1   1 0 0     -0.000000      0.000000      0.000000
     1   0 1 0     -0.000000      0.000000      0.000000
     1   0 0 1      0.000000      0.000000      0.000000

     2   2 0 0     -2.223688      0.000000      0.000000
     2   1 1 0     -0.000000      0.000000      0.000000
     2   1 0 1     -0.000000      0.000000      0.000000
     2   0 2 0     -0.968006      0.000000      7.801250
     2   0 1 1      0.000000      0.000000      0.000000
     2   0 0 2     -2.223688      0.000000      0.000000


 Parallel integral file used      16 records with       0 large values

 ------------------------------------
     Number of active orbitals     10
     Number of active alpha electrons      1
     Number of active beta electrons       1
 ------------------------------------
                   NWChem Extensible Many-Electron Theory Module
                   ---------------------------------------------

              ======================================================
                   This portion of the program was automatically
                  generated by a Tensor Contraction Engine (TCE).
                  The development of this portion of the program
                 and TCE was supported by US Department of Energy,
                Office of Science, Office of Basic Energy Science.
                      TCE is a product of Battelle and PNNL.
              Please cite: S.Hirata, J.Phys.Chem.A 107, 9887 (2003).
              ======================================================

                                        H2


            General Information
            -------------------
      Number of processors :     1
         Wavefunction type : Restricted Hartree-Fock
          No. of electrons :     2
           Alpha electrons :     1
            Beta electrons :     1
           No. of orbitals :   140
            Alpha orbitals :    70
             Beta orbitals :    70
        Alpha frozen cores :     0
         Beta frozen cores :     0
     Alpha frozen virtuals :    60
      Beta frozen virtuals :    60
         Spin multiplicity : singlet 
    Number of AO functions :    70
       Number of AO shells :    20
        Use of symmetry is : off
      Symmetry adaption is : off
         Schwarz screening : 0.10D-09

          Correlation Information
          -----------------------
          Calculation type : Coupled-cluster singles & doubles                           
   Perturbative correction : none                                                        
            Max iterations :      300
        Residual threshold : 0.10D-06
     T(0) DIIS level shift : 0.00D+00
     L(0) DIIS level shift : 0.00D+00
     T(1) DIIS level shift : 0.00D+00
     L(1) DIIS level shift : 0.00D+00
     T(R) DIIS level shift : 0.00D+00
     T(I) DIIS level shift : 0.00D+00
   CC-T/L Amplitude update :  5-th order DIIS
                I/O scheme : Global Array Library
        L-threshold :  0.10D-06
        EOM-threshold :  0.10D-06
 no EOMCCSD initial starts read in
 TCE RESTART OPTIONS
 READ_INT:   F
 WRITE_INT:  F
 READ_TA:    F
 WRITE_TA:   F
 READ_XA:    F
 WRITE_XA:   F
 READ_IN3:   F
 WRITE_IN3:  F
 SLICE:      F
 D4D5:       F
 quantumc:   T
 qrotation:  F
 pwtce:      F
 qducc:      F
 nacto:                         0
 nrotv:                         0
 nrot:                          0

            Memory Information
            ------------------
          Available GA space size is    1610607836 doubles
          Available MA space size is    1610610644 doubles

 Maximum block size supplied by input
 Maximum block size         1 doubles

 tile_dim =      1

 Block   Spin    Irrep     Size     Offset   Alpha
 -------------------------------------------------
   1    alpha     a      1 doubles       0       1
   2    beta      a      1 doubles       1       1
   3    alpha     a      1 doubles       2       3
   4    alpha     a      1 doubles       3       4
   5    alpha     a      1 doubles       4       5
   6    alpha     a      1 doubles       5       6
   7    alpha     a      1 doubles       6       7
   8    alpha     a      1 doubles       7       8
   9    alpha     a      1 doubles       8       9
  10    alpha     a      1 doubles       9      10
  11    alpha     a      1 doubles      10      11
  12    beta      a      1 doubles      11       3
  13    beta      a      1 doubles      12       4
  14    beta      a      1 doubles      13       5
  15    beta      a      1 doubles      14       6
  16    beta      a      1 doubles      15       7
  17    beta      a      1 doubles      16       8
  18    beta      a      1 doubles      17       9
  19    beta      a      1 doubles      18      10
  20    beta      a      1 doubles      19      11

 Global array virtual files algorithm will be used

 Parallel file system coherency ......... OK

 Integral file          = ./H2.aoints.0
 Record size in doubles =  65536        No. of integs per rec  =  43688
 Max. records in memory =     99        Max. records in file   = 280270
 No. of bits per label  =      8        No. of bits per value  =     64


 #quartets = 2.177D+04 #integrals = 7.913D+05 #direct =  0.0% #cached =100.0%


 Fock matrix recomputed
 1-e file size   =              100
 1-e file name   = ./H2.f1
 Cpu & wall time / sec            0.1            0.1
 4-electron integrals stored in orbital form

 v2    file size   =             1540
 4-index algorithm nr.  13 is used
 imaxsize =       30
 imaxsize ichop =        0
 begin_one_electron_integrals
    1    1        -0.7923499968
    3    1         0.0688150341
    6    1        -0.0052601047
   10    1        -0.0017336728
    2    2        -0.6959835958
    9    2        -0.0030187922
    1    3         0.0688150341
    3    3        -0.1621733206
    6    3        -0.0230420550
   10    3        -0.2588040697
    4    4        -0.1375633229
    5    5        -0.1375633229
    1    6        -0.0052601047
    3    6        -0.0230420550
    6    6         0.0307758070
   10    6         0.0322029231
    7    7         0.3639133961
    8    8         0.3639133961
    2    9        -0.0030187922
    9    9         0.4670518512
   10    9        -0.0000000005
    1   10        -0.0017336728
    3   10        -0.2588040697
    6   10         0.0322029231
    9   10        -0.0000000005
   10   10         1.0510740682
 end_one_electron_integrals
 begin_two_electron_integrals
    1    1    1    1        0.4281968766
    2    1    2    1        0.1935064856
    3    1    1    1       -0.0629254720
    3    1    3    1        0.0625243012
    3    1    2    2       -0.0482160687
    4    1    4    1        0.0550320724
    5    1    5    1        0.0550320724
    6    1    1    1        0.0708388660
    6    1    3    1        0.0020223265
    6    1    6    1        0.0711979695
    6    1    2    2        0.0953423437
    6    1    3    3        0.0243747393
    6    1    4    4        0.0197789155
    6    1    5    5        0.0197789155
    7    1    7    1        0.0540382809
    7    1    4    2       -0.0412782086
    7    1    5    2       -0.0031358106
    8    1    8    1        0.0540382809
    8    1    4    2        0.0031358106
    8    1    5    2       -0.0412782086
    9    1    2    1        0.0460618974
    9    1    9    1        0.0616817056
    9    1    3    2       -0.0331891647
    9    1    6    2        0.0464153556
    9    1    7    4       -0.0276001429
    9    1    8    4        0.0020967194
    9    1    7    5       -0.0020967194
    9    1    8    5       -0.0276001429
   10    1    1    1       -0.0095416673
   10    1    3    1       -0.0146462204
   10    1    6    1       -0.0108798771
   10    1   10    1        0.0249137142
   10    1    2    2       -0.0166858011
   10    1    9    2        0.0050129530
   10    1    3    3        0.0224775534
   10    1    6    3        0.0038953201
   10    1    4    4       -0.0087935912
   10    1    5    5       -0.0087935912
   10    1    6    6       -0.0179250159
   10    1    7    7       -0.0146542144
   10    1    8    8       -0.0146542144
   10    1    9    9        0.0082349859
    2    2    1    1        0.4398555875
    2    2    2    2        0.4632481204
    3    2    2    1        0.0131672719
    3    2    3    2        0.0306555237
    4    2    4    2        0.0327359224
    5    2    5    2        0.0327359224
    6    2    2    1        0.1202127931
    6    2    3    2        0.0021485659
    6    2    6    2        0.0985900256
    7    2    4    1       -0.0560631682
    7    2    5    1       -0.0042589900
    7    2    7    2        0.0678144164
    7    2    4    3        0.0083302697
    7    2    5    3        0.0006328314
    7    2    6    4        0.0140316744
    7    2    6    5        0.0010659540
    8    2    4    1        0.0042589900
    8    2    5    1       -0.0560631682
    8    2    8    2        0.0678144164
    8    2    4    3       -0.0006328314
    8    2    5    3        0.0083302697
    8    2    6    4       -0.0010659540
    8    2    6    5        0.0140316744
    9    2    1    1        0.0837701955
    9    2    3    1       -0.0553553864
    9    2    6    1        0.0397049210
    9    2    2    2        0.0844574350
    9    2    9    2        0.0805466778
    9    2    3    3        0.0703707312
    9    2    6    3        0.0031992975
    9    2    4    4        0.0567513957
    9    2    5    5        0.0567513957
    9    2    6    6        0.0953281402
    9    2    7    7        0.0811600672
    9    2    8    8        0.0811600672
   10    2    2    1       -0.0223380988
   10    2    9    1       -0.0027261557
   10    2    3    2       -0.0032531804
   10    2    6    2       -0.0198870659
   10    2   10    2        0.0181819667
   10    2    9    3       -0.0034178393
   10    2    7    4        0.0155101080
   10    2    8    4       -0.0011782672
   10    2    7    5        0.0011782672
   10    2    8    5        0.0155101080
   10    2    9    6       -0.0120843456
    3    3    1    1        0.3843840765
    3    3    3    1       -0.0823686068
    3    3    2    2        0.3753920889
    3    3    3    3        0.4011753574
    4    3    4    1       -0.0123960823
    4    3    4    3        0.0194134562
    5    3    5    1       -0.0123960823
    5    3    5    3        0.0194134562
    6    3    1    1        0.0291794527
    6    3    3    1       -0.0182386922
    6    3    6    1       -0.0081890370
    6    3    2    2        0.0222676012
    6    3    3    3        0.0420977566
    6    3    6    3        0.0189716963
    6    3    4    4        0.0323517092
    6    3    5    5        0.0323517092
    7    3    7    1       -0.0058153594
    7    3    4    2        0.0031303435
    7    3    5    2        0.0002378050
    7    3    7    3        0.0118993049
    8    3    8    1       -0.0058153594
    8    3    4    2       -0.0002378050
    8    3    5    2        0.0031303435
    8    3    8    3        0.0118993049
    9    3    2    1       -0.1172266661
    9    3    9    1       -0.0337750751
    9    3    3    2       -0.0020676199
    9    3    6    2       -0.0630187355
    9    3    9    3        0.0918941649
    9    3    7    4        0.0845447568
    9    3    8    4       -0.0064226708
    9    3    7    5        0.0064226708
    9    3    8    5        0.0845447568
   10    3    1    1       -0.0787131700
   10    3    3    1        0.0649033652
   10    3    6    1       -0.0048693144
   10    3   10    1       -0.0204764132
   10    3    2    2       -0.0659904411
   10    3    9    2       -0.0557880866
   10    3    3    3       -0.1019724198
   10    3    6    3       -0.0212931188
   10    3   10    3        0.0840903904
   10    3    4    4       -0.0709850996
   10    3    5    5       -0.0709850996
   10    3    6    6       -0.0765475779
   10    3    7    7       -0.0793322162
   10    3    8    8       -0.0793322162
   10    3    9    9       -0.0990572174
    4    4    1    1        0.3807547466
    4    4    3    1       -0.0635363591
    4    4    2    2        0.3753572950
    4    4    3    3        0.3612947605
    4    4    4    4        0.3908886109
    5    4    5    4        0.0169498636
    6    4    4    1       -0.0260315330
    6    4    4    3        0.0089368364
    6    4    6    4        0.0281727917
    7    4    2    1       -0.1331781946
    7    4    3    2       -0.0044229815
    7    4    6    2       -0.0654624698
    7    4    7    4        0.1224027349
    8    4    2    1        0.0101172412
    8    4    3    2        0.0003360037
    8    4    6    2        0.0049730333
    8    4    7    4       -0.0083312616
    8    4    8    4        0.0133671696
    8    4    7    5        0.0121013560
    9    4    7    1        0.0005762415
    9    4    8    1       -0.0000437757
    9    4    4    2       -0.0032638149
    9    4    7    3        0.0101478400
    9    4    8    3       -0.0007709081
    9    4    9    4        0.0126727188
    9    4    7    6       -0.0051872185
    9    4    8    6        0.0003940611
   10    4    4    1       -0.0172128286
   10    4    7    2        0.0168714592
   10    4    8    2       -0.0012816860
   10    4    4    3        0.0005586283
   10    4    6    4        0.0110232390
   10    4   10    4        0.0134223950
   10    4    9    7       -0.0033499815
   10    4    9    8        0.0002544904
    5    5    1    1        0.3807547466
    5    5    3    1       -0.0635363591
    5    5    2    2        0.3753572950
    5    5    3    3        0.3612947605
    5    5    4    4        0.3569888837
    5    5    5    5        0.3908886109
    6    5    5    1       -0.0260315330
    6    5    5    3        0.0089368364
    6    5    6    5        0.0281727917
    7    5    2    1       -0.0101172412
    7    5    3    2       -0.0003360037
    7    5    6    2       -0.0049730333
    7    5    7    4        0.0083312616
    7    5    7    5        0.0133671696
    8    5    2    1       -0.1331781946
    8    5    3    2       -0.0044229815
    8    5    6    2       -0.0654624698
    8    5    7    4        0.0969342093
    8    5    8    4       -0.0083312616
    8    5    7    5        0.0083312616
    8    5    8    5        0.1224027349
    9    5    7    1        0.0000437757
    9    5    8    1        0.0005762415
    9    5    5    2       -0.0032638149
    9    5    7    3        0.0007709081
    9    5    8    3        0.0101478400
    9    5    9    5        0.0126727188
    9    5    7    6       -0.0003940611
    9    5    8    6       -0.0051872185
   10    5    5    1       -0.0172128286
   10    5    7    2        0.0012816860
   10    5    8    2        0.0168714592
   10    5    5    3        0.0005586283
   10    5    6    5        0.0110232390
   10    5   10    5        0.0134223950
   10    5    9    7       -0.0002544904
   10    5    9    8       -0.0033499815
    6    6    1    1        0.4253251918
    6    6    3    1       -0.0665315065
    6    6    6    1        0.0755504163
    6    6    2    2        0.4363851112
    6    6    3    3        0.3738995362
    6    6    6    3        0.0289161768
    6    6    4    4        0.3758489616
    6    6    5    5        0.3758489616
    6    6    6    6        0.4419952628
    7    6    7    1        0.0121171064
    7    6    4    2       -0.0064677904
    7    6    5    2       -0.0004913432
    7    6    7    3       -0.0005186312
    7    6    7    6        0.0142871903
    8    6    8    1        0.0121171064
    8    6    4    2        0.0004913432
    8    6    5    2       -0.0064677904
    8    6    8    3       -0.0005186312
    8    6    8    6        0.0142871903
    9    6    2    1        0.0983103843
    9    6    9    1        0.0475453993
    9    6    3    2       -0.0080953477
    9    6    6    2        0.0713953848
    9    6    9    3       -0.0607670790
    9    6    7    4       -0.0635455625
    9    6    8    4        0.0048274103
    9    6    7    5       -0.0048274103
    9    6    8    5       -0.0635455625
    9    6    9    6        0.0711494750
   10    6    1    1       -0.0127929329
   10    6    2    1       -0.0000000002
   10    6    3    1       -0.0034302998
   10    6    6    1       -0.0242700091
   10    6   10    1        0.0000136642
   10    6    2    2       -0.0215739601
   10    6    6    2       -0.0000000001
   10    6    9    2       -0.0079166848
   10    6    3    3       -0.0043117279
   10    6    6    3        0.0004396286
   10    6    9    3        0.0000000001
   10    6   10    3        0.0028314923
   10    6    4    4        0.0069250162
   10    6    7    4        0.0000000002
   10    6    5    5        0.0069250162
   10    6    8    5        0.0000000002
   10    6    6    6       -0.0125959692
   10    6    9    6       -0.0000000001
   10    6   10    6        0.0166513561
   10    6    7    7       -0.0073818618
   10    6    8    8       -0.0073818618
   10    6    9    9       -0.0124151163
    7    7    1    1        0.4319331493
    7    7    3    1       -0.0661440901
    7    7    6    1        0.0612096354
    7    7    2    2        0.4408560714
    7    7    3    3        0.3839440800
    7    7    6    3        0.0283112517
    7    7    4    4        0.4119156321
    7    7    5    4        0.0023871490
    7    7    5    5        0.3806737690
    7    7    6    6        0.4199205127
    7    7    7    7        0.4713772684
    8    7    4    4       -0.0023871490
    8    7    5    4        0.0156209316
    8    7    5    5        0.0023871490
    8    7    8    7        0.0204744678
    9    7    4    1       -0.0044217628
    9    7    5    1       -0.0003359112
    9    7    7    2        0.0081579123
    9    7    4    3        0.0131742126
    9    7    5    3        0.0010008146
    9    7    6    4       -0.0047570670
    9    7    6    5       -0.0003613834
    9    7    9    7        0.0194115443
   10    7    7    1       -0.0147941598
   10    7    4    2        0.0115810264
   10    7    5    2        0.0008797839
   10    7    7    3       -0.0027137944
   10    7    9    4       -0.0044342421
   10    7    9    5       -0.0003368592
   10    7    7    6       -0.0032796016
   10    7   10    7        0.0102305424
    8    8    1    1        0.4319331493
    8    8    3    1       -0.0661440901
    8    8    6    1        0.0612096354
    8    8    2    2        0.4408560714
    8    8    3    3        0.3839440800
    8    8    6    3        0.0283112517
    8    8    4    4        0.3806737690
    8    8    5    4       -0.0023871490
    8    8    5    5        0.4119156321
    8    8    6    6        0.4199205127
    8    8    7    7        0.4304283327
    8    8    8    8        0.4713772684
    9    8    4    1        0.0003359112
    9    8    5    1       -0.0044217628
    9    8    8    2        0.0081579123
    9    8    4    3       -0.0010008146
    9    8    5    3        0.0131742126
    9    8    6    4        0.0003613834
    9    8    6    5       -0.0047570670
    9    8    9    8        0.0194115443
   10    8    8    1       -0.0147941598
   10    8    4    2       -0.0008797839
   10    8    5    2        0.0115810264
   10    8    8    3       -0.0027137944
   10    8    9    4        0.0003368592
   10    8    9    5       -0.0044342421
   10    8    8    6       -0.0032796016
   10    8   10    8        0.0102305424
    9    9    1    1        0.4409319709
    9    9    3    1       -0.0808753813
    9    9    6    1        0.0836581246
    9    9    2    2        0.4527721959
    9    9    9    2        0.1147662425
    9    9    3    3        0.4059318075
    9    9    6    3        0.0199868572
    9    9    4    4        0.3814151967
    9    9    5    5        0.3814151967
    9    9    6    6        0.4368380795
    9    9    7    7        0.4383805853
    9    9    8    8        0.4383805853
    9    9    9    9        0.4898320273
   10    9    2    1        0.0125515810
   10    9    9    1        0.0306651241
   10    9    3    2       -0.0252695525
   10    9    6    2        0.0040034190
   10    9   10    2        0.0068126219
   10    9    9    3       -0.0230188048
   10    9    7    4       -0.0171523219
   10    9    8    4        0.0013030224
   10    9    7    5       -0.0013030224
   10    9    8    5       -0.0171523219
   10    9    9    6        0.0135102880
   10    9   10    9        0.0383267244
   10   10    1    1        0.3892185593
   10   10    2    1       -0.0000000001
   10   10    3    1       -0.0817596586
   10   10    6    1        0.0304734073
   10   10   10    1        0.0210983687
   10   10    2    2        0.3823272069
   10   10    9    2        0.0756615043
   10   10    3    3        0.4001494635
   10   10    6    3        0.0381847830
   10   10   10    3       -0.1026600504
   10   10    4    4        0.3623587615
   10   10    7    4        0.0000000001
   10   10    5    5        0.3623587615
   10   10    8    5        0.0000000001
   10   10    6    6        0.3806025629
   10   10   10    6       -0.0033387800
   10   10    7    7        0.3881162751
   10   10    8    8        0.3881162751
   10   10    9    9        0.4142660137
   10   10   10   10        0.4085448448
 end_two_electron_integrals
 enrep_tce =   0.25316455696202528     
  EHF(A)             =        -0.90333856
  EHF(total)         =        -0.90333856
  Shift (HFtot-HFA)  =        -0.00000000
 Cpu & wall time / sec            1.8            1.8
 T1-number-of-tasks                    9

 t1 file size   =                9
 t1 file name   = ./H2.t1
 t1 file handle =       -998
 T2-number-of-boxes                  126

 t2 file size   =              126
 t2 file name   = ./H2.t2
 t2 file handle =       -996
CCSD iterations
 ---------------------------------------------------------
 Iter          Residuum       Correlation     Cpu    Wall 
 ---------------------------------------------------------
NEW TASK SCHEDULING
CCSD_T1_NTS --- OK
CCSD_T2_NTS --- OK
    1   0.4810985195200  -0.1258276808836     0.5     0.5
    2   1.3668072721525  -0.0038873475087     0.3     0.5
    3   5.1722301727449  -0.3835270295265     0.3     0.5
    4  22.0255462493345   1.1676193213083     0.4     0.5
    5 142.8682907051445  -1.7985893550010     0.5     0.5
 MICROCYCLE DIIS UPDATE:                    5                    5
    6   0.0487190950236  -0.0974437202793     0.4     0.5
    7   0.0997310038331  -0.1143487974726     0.3     0.5
    8   0.2922180169673  -0.0986388943529     0.4     0.5
    9   1.0473351585820  -0.1010803934718     0.5     0.5
   10   7.7087413116966   0.6327282730477     0.4     0.5
 MICROCYCLE DIIS UPDATE:                   10                    5
   11   0.0081467916543  -0.1124853491973     0.4     0.5
   12   0.0186299713587  -0.1125472313016     0.2     0.5
   13   0.0521583406180  -0.1154772514028     0.3     0.6
   14   0.1710401451113  -0.1070879097363     0.5     0.5
   15   0.7535964695646  -0.1052918536473     0.5     0.6
 MICROCYCLE DIIS UPDATE:                   15                    5
   16   0.0007477635807  -0.1132110461075     0.4     0.5
   17   0.0014464971308  -0.1132921379795     0.4     0.6
   18   0.0053803691778  -0.1135797579797     0.4     0.5
   19   0.0222003392724  -0.1131087263582     0.5     0.5
   20   0.0955784040496  -0.1138432465067     0.4     0.5
 MICROCYCLE DIIS UPDATE:                   20                    5
   21   0.0000263232281  -0.1134260168863     0.5     0.5
   22   0.0000320202796  -0.1134289123423     0.6     0.6
   23   0.0000830530121  -0.1134346936382     0.4     0.6
   24   0.0003824622915  -0.1134137318199     0.5     0.6
   25   0.0017717726185  -0.1134867348117     0.5     0.5
 MICROCYCLE DIIS UPDATE:                   25                    5
   26   0.0000012554246  -0.1134298386272     0.5     0.6
   27   0.0000031840580  -0.1134299719173     0.4     0.6
   28   0.0000133399268  -0.1134302894218     0.6     0.6
   29   0.0000585025731  -0.1134303947829     0.4     0.5
   30   0.0002592403485  -0.1134278422133     0.5     0.5
 MICROCYCLE DIIS UPDATE:                   30                    5
   31   0.0000000513134  -0.1134301841590     0.4     0.5
 -----------------------------------------------------------------
 Iterations converged
 CCSD correlation energy / hartree =        -0.113430184159026
 CCSD total energy / hartree       =        -1.016768744214442

 Singles contributions

 Doubles contributions
     2a   (alpha)     2a   (beta ) ---     1a   (alpha)     1a   (beta )       -0.5538428351
     3a   (alpha)     3a   (beta ) ---     1a   (alpha)     1a   (beta )       -0.0323929621
     4a   (alpha)     4a   (beta ) ---     1a   (alpha)     1a   (beta )       -0.0251471168
     5a   (alpha)     5a   (beta ) ---     1a   (alpha)     1a   (beta )       -0.0251471168
 Ground state specification:
 exp(T)|Ref>~(1+T)|Ref>
 ------- a(p)+/a(q) strings ----------

 singles norm

 doubles norm

 Reference string
  0.87479258657198000      :(1a)+ (1b)+ |0>

 Singles strings

 Doubles strings
 -0.48449760626726029      :(2a)+ (2b)+ (1b)  (1a)  (1a)+ (1b)+ |0>
 -------------------------------------

 Parallel integral file used      19 records with       0 large values


 Task  times  cpu:       15.3s     wall:       19.3s


                                NWChem Input Module
                                -------------------


 Summary of allocated global arrays
-----------------------------------
  No active global arrays


MA_summarize_allocated_blocks: starting scan ...
MA_summarize_allocated_blocks: scan completed: 0 heap blocks, 0 stack blocks
MA usage statistics:

	allocation statistics:
					      heap	     stack
					      ----	     -----
	current number of blocks	         0	         0
	maximum number of blocks	        18	        42
	current total bytes		         0	         0
	maximum total bytes		  51983048	  61995224
	maximum total K-bytes		     51984	     61996
	maximum total M-bytes		        52	        62


                                     CITATION
                                     --------
                Please cite the following reference when publishing
                           results obtained with NWChem:

          E. Apra, E. J. Bylaska, W. A. de Jong, N. Govind, K. Kowalski,
       T. P. Straatsma, M. Valiev, H. J. J. van Dam, Y. Alexeev, J. Anchell,
       V. Anisimov, F. W. Aquino, R. Atta-Fynn, J. Autschbach, N. P. Bauman,
     J. C. Becca, D. E. Bernholdt, K. Bhaskaran-Nair, S. Bogatko, P. Borowski,
         J. Boschen, J. Brabec, A. Bruner, E. Cauet, Y. Chen, G. N. Chuev,
      C. J. Cramer, J. Daily, M. J. O. Deegan, T. H. Dunning Jr., M. Dupuis,
   K. G. Dyall, G. I. Fann, S. A. Fischer, A. Fonari, H. Fruchtl, L. Gagliardi,
      J. Garza, N. Gawande, S. Ghosh, K. Glaesemann, A. W. Gotz, J. Hammond,
       V. Helms, E. D. Hermes, K. Hirao, S. Hirata, M. Jacquelin, L. Jensen,
   B. G. Johnson, H. Jonsson, R. A. Kendall, M. Klemm, R. Kobayashi, V. Konkov,
      S. Krishnamoorthy, M. Krishnan, Z. Lin, R. D. Lins, R. J. Littlefield,
      A. J. Logsdail, K. Lopata, W. Ma, A. V. Marenich, J. Martin del Campo,
   D. Mejia-Rodriguez, J. E. Moore, J. M. Mullin, T. Nakajima, D. R. Nascimento,
    J. A. Nichols, P. J. Nichols, J. Nieplocha, A. Otero-de-la-Roza, B. Palmer,
    A. Panyala, T. Pirojsirikul, B. Peng, R. Peverati, J. Pittner, L. Pollack,
   R. M. Richard, P. Sadayappan, G. C. Schatz, W. A. Shelton, D. W. Silverstein,
   D. M. A. Smith, T. A. Soares, D. Song, M. Swart, H. L. Taylor, G. S. Thomas,
            V. Tipparaju, D. G. Truhlar, K. Tsemekhman, T. Van Voorhis,
      A. Vazquez-Mayagoitia, P. Verma, O. Villa, A. Vishnu, K. D. Vogiatzis,
        D. Wang, J. H. Weare, M. J. Williamson, T. L. Windus, K. Wolinski,
        A. T. Wong, Q. Wu, C. Yang, Q. Yu, M. Zacharias, Z. Zhang, Y. Zhao,
                                and R. J. Harrison
                        "NWChem: Past, present, and future
                         J. Chem. Phys. 152, 184102 (2020)
                               doi:10.1063/5.0004997

                                      AUTHORS
                                      -------
  E. Apra, E. J. Bylaska, N. Govind, K. Kowalski, M. Valiev, D. Mejia-Rodriguez,
       A. Kunitsa, N. P. Bauman, A. Panyala, W. A. de Jong, T. P. Straatsma,
        H. J. J. van Dam, D. Wang, T. L. Windus, J. Hammond, J. Autschbach,
    K. Bhaskaran-Nair, J. Brabec, K. Lopata, S. A. Fischer, S. Krishnamoorthy,
     M. Jacquelin, W. Ma, M. Klemm, O. Villa, Y. Chen, V. Anisimov, F. Aquino,
    S. Hirata, M. T. Hackler, Eric Hermes, L. Jensen, J. E. Moore, J. C. Becca,
      V. Konjkov, T. Risthaus, M. Malagoli, A. Marenich, A. Otero-de-la-Roza,
        J. Mullin, P. Nichols, R. Peverati, J. Pittner, Y. Zhao, P.-D. Fan,
        A. Fonari, M. J. Williamson, R. J. Harrison, J. R. Rehr, M. Dupuis,
     D. Silverstein, D. M. A. Smith, J. Nieplocha, V. Tipparaju, M. Krishnan,
     B. E. Van Kuiken, A. Vazquez-Mayagoitia, M. Swart, Q. Wu, T. Van Voorhis,
     A. A. Auer, M. Nooijen, L. D. Crosby, E. Brown, G. Cisneros, G. I. Fann,
   H. Fruchtl, J. Garza, K. Hirao, R. A. Kendall, J. A. Nichols, K. Tsemekhman,
    K. Wolinski, J. Anchell, D. E. Bernholdt, P. Borowski, T. Clark, D. Clerc,
   H. Dachsel, M. J. O. Deegan, K. Dyall, D. Elwood, E. Glendening, M. Gutowski,
   A. C. Hess, J. Jaffe, B. G. Johnson, J. Ju, R. Kobayashi, R. Kutteh, Z. Lin,
   R. Littlefield, X. Long, B. Meng, T. Nakajima, S. Niu, L. Pollack, M. Rosing,
   K. Glaesemann, G. Sandrone, M. Stave, H. Taylor, G. Thomas, J. H. van Lenthe,
                               A. T. Wong, Z. Zhang.

 Total times  cpu:       18.0s     wall:       22.6s
