 argument  1 = input.nw
  NWChem w/ OpenMP: maximum threads =    1



============================== echo of input deck ==============================
 echo
 start H2
 title "H2"

 memory total 24 gb

 geometry units bohr
 symmetry c1
        H  0.00000000  0.00000000  0.00000000
        H  0.00000000  5.30  0.00000000
 end

 basis
   * library cc-pVQZ
 end

 mcscf
   active  10
   actelec 2
   multiplicity 1
   maxiter 40
   vectors input H2.mos
   vectors output H2.mos
 end

 task mcscf

 scf
   vectors input H2.mos
   vectors output H2-5.30.mos
   noscf
 end

 tce
   2eorb
   2emet 13
   ccsd
   maxiter 300
 end

 set tce:print_integrals T
 set tce:qorb 10
 set tce:qela 1
 set tce:qelb 1

# set tce:qducc T
# set tce:nactv 1
# set tce:nonhf T
# set tce:ducc_model 6

 set tce:printtol 0.02

 task tce
================================================================================


                                         
                                         


             Northwest Computational Chemistry Package (NWChem) 7.0.1
             --------------------------------------------------------


                    Environmental Molecular Sciences Laboratory
                       Pacific Northwest National Laboratory
                                Richland, WA 99352

                              Copyright (c) 1994-2020
                       Pacific Northwest National Laboratory
                            Battelle Memorial Institute

             NWChem is an open-source computational chemistry package
                        distributed under the terms of the
                      Educational Community License (ECL) 2.0
             A copy of the license is included with this distribution
                              in the LICENSE.TXT file

                                  ACKNOWLEDGMENT
                                  --------------

            This software and its documentation were developed at the
            EMSL at Pacific Northwest National Laboratory, a multiprogram
            national laboratory, operated for the U.S. Department of Energy
            by Battelle under Contract Number DE-AC05-76RL01830. Support
            for this work was provided by the Department of Energy Office
            of Biological and Environmental Research, Office of Basic
            Energy Sciences, and the Office of Advanced Scientific Computing.


           Job information
           ---------------

    hostname        = WE46210
    program         = /home/baum612/code/nwchem/bin/LINUX64/nwchem
    date            = Thu Nov  9 16:18:52 2023

    compiled        = Mon_Nov_06_10:06:57_2023
    source          = /home/baum612/code/nwchem
    nwchem branch   = 7.0.0
    nwchem revision = nwchem_on_git-4191-g39d87d64de
    ga revision     = 5.8.1
    use scalapack   = F
    input           = input.nw
    prefix          = H2.
    data base       = ./H2.db
    status          = startup
    nproc           =        1
    time left       =     -1s



           Memory information
           ------------------

    heap     =  805306362 doubles =   6144.0 Mbytes
    stack    =  805306367 doubles =   6144.0 Mbytes
    global   = 1610612736 doubles =  12288.0 Mbytes (distinct from heap & stack)
    total    = 3221225465 doubles =  24576.0 Mbytes
    verify   = yes
    hardfail = no 


           Directory information
           ---------------------

  0 permanent = .
  0 scratch   = .




                                NWChem Input Module
                                -------------------


                                        H2
                                        --
 Turning off AUTOSYM since
 SYMMETRY directive was detected!


          ------
          auto-z
          ------
     1 autoz failed with cvr_scaling = 1.2 changing to 1.3
     2 autoz failed with cvr_scaling = 1.3 changing to 1.4
     3 autoz failed with cvr_scaling = 1.4 changing to 1.5
     4 autoz failed with cvr_scaling = 1.5 changing to 1.6
     5 autoz failed with cvr_scaling = 1.6 changing to 1.7

 AUTOZ failed to generate good internal coordinates.
 Cartesian coordinates will be used in optimizations.



                             Geometry "geometry" -> ""
                             -------------------------

 Output coordinates in a.u. (scale by  1.000000000 to convert to a.u.)

  No.       Tag          Charge          X              Y              Z
 ---- ---------------- ---------- -------------- -------------- --------------
    1 H                    1.0000     0.00000000    -2.65000000     0.00000000
    2 H                    1.0000     0.00000000     2.65000000     0.00000000

      Atomic Mass 
      ----------- 

      H                  1.007825


 Effective nuclear repulsion energy (a.u.)       0.1886792453

            Nuclear Dipole moment (a.u.) 
            ----------------------------
        X                 Y               Z
 ---------------- ---------------- ----------------
     0.0000000000     0.0000000000     0.0000000000


            XYZ format geometry
            -------------------
     2
 geometry
 H                     0.00000000    -1.40231971     0.00000000
 H                     0.00000000     1.40231971     0.00000000



 Summary of "ao basis" -> "" (cartesian)
 ------------------------------------------------------------------------------
       Tag                 Description            Shells   Functions and Types
 ---------------- ------------------------------  ------  ---------------------
 *                          cc-pVQZ                   on all atoms 


                      Basis "ao basis" -> "ao basis" (cartesian)
                      -----
  H (Hydrogen)
  ------------
            Exponent  Coefficients 
       -------------- ---------------------------------------------------------
  1 S  8.26400000E+01  0.002006
  1 S  1.24100000E+01  0.015343
  1 S  2.82400000E+00  0.075579

  2 S  7.97700000E-01  1.000000

  3 S  2.58100000E-01  1.000000

  4 S  8.98900000E-02  1.000000

  5 P  2.29200000E+00  1.000000

  6 P  8.38000000E-01  1.000000

  7 P  2.92000000E-01  1.000000

  8 D  2.06200000E+00  1.000000

  9 D  6.62000000E-01  1.000000

 10 F  1.39700000E+00  1.000000



 Summary of "ao basis" -> "ao basis" (cartesian)
 ------------------------------------------------------------------------------
       Tag                 Description            Shells   Functions and Types
 ---------------- ------------------------------  ------  ---------------------
 H                          cc-pVQZ                 10       35   4s3p2d1f



                            NWChem Direct MCSCF Module
                            --------------------------


                                        H2


     -----------------------------------
       Basis functions:             70
       Inactive shells:              0
       Active shells:               10
       Active electrons:             2
       Symmetry:                    a       
       Multiplicity:                 1
       Orbital rotations:          600
     -----------------------------------

     -----------------------------------
       E2 extrapolation:             F
       Conjugacy:                    T
       Micro CI relax:               T
       Canonical orbitals:           T
       Maximum iterations:          40
       Converge threshold:    1.00E-04
       Conjugacy resets:            20
       Initial levelshift:        0.10
     -----------------------------------

 Loading old vectors from job with title :

H2


   input molecular orbitals = ./H2.mos
  output molecular orbtials = ./H2.mos

       No. of determinants:           100


  Starting Orbital Energies
    -0.295459    -0.204151    -0.000206    -0.000075    -0.000075    -0.000004
    -0.000002    -0.000001    -0.000001    -0.000001     0.445126     0.701204
     0.797950     1.185072     1.185072     1.718831     1.803507     1.803507
     1.872690     2.024050     2.024050     2.088690     2.088690     2.089691
     2.089691     2.090253     2.090253     2.306963     2.870707     2.963887
     4.397167     4.397167     4.428859     4.428859     4.488642     4.520285
     5.939448     6.055908     6.055908     6.066021     6.067646     6.067646
     6.068863     6.068863     6.068865     6.068865     6.068988     6.068988
     6.069007     6.069007     8.105519     8.133526     8.133526     8.139595
     8.139595     8.140486     8.140487     8.141647     8.141647     8.210240
     9.638185     9.671216     9.710193     9.710193     9.721847     9.721847
     9.759403     9.763561    22.402091    22.595558

  Orbital Symmetry Irreps
a    a    a    a    a    a    a    a    a    a    a    a    a    a    a   
a    a    a    a    a    a    a    a    a    a    a    a    a    a    a   
a    a    a    a    a    a    a    a    a    a    a    a    a    a    a   
a    a    a    a    a    a    a    a    a    a    a    a    a    a    a   
a    a    a    a    a    a    a    a    a    a   

 Integral file          = ./H2.aoints.0
 Record size in doubles =  65536        No. of integs per rec  =  43688
 Max. records in memory =     99        Max. records in file   = 280220
 No. of bits per label  =      8        No. of bits per value  =     64


 #quartets = 1.949D+04 #integrals = 5.298D+05 #direct =  0.0% #cached =100.0%




          %%%%% MacroIteration   1 %%%%%


          Number of sigma calls:       15
                       o<<<<< (aa):             0.00
                       o<<<<< (bb):             0.00
                       o<<<<< (ab):             0.02
                       o<<<<< (total)           0.02
                       o<<<<< (aa) ff           0.00
                       o<<<<< (aa) gop          0.00
                       o<<<<< (aa) dot          0.00
                       o<<<<< (ab) str          0.00
                       o<<<<< (ab) gath         0.00
                       o<<<<< (ab) dotab        0.00
                       o<<<<< (ab) scat         0.00
                       o<<<<< (ab) sync         0.00
                       o<<<<< Density           0.00
                       o<<<<< Density one       0.00
                       o<<<<< Density two       0.00
                       o<<<<< Density ab        0.00
                       o<<<<< Spin adapt        0.00
                       o<<<<< Symm adapt        0.00

                       o<<<<< (ab) max sync:      0.00

           >>>| Valence CI:             -1.190751127603
           >>>| MCSCF energy:           -1.002071882320
           >>>| Gradient norm:          0.832894966D-03
     --- Warning:  480 Hessian diagonals < 0.05 ---

                              ----- Line search ------

        step       energy         lsg     num-lsg   num-lsh   lsrat    time
      ------- ---------------- --------- --------- --------- ------- --------
       0.0000      -1.00207188 -1.32D-07  0.00D+00  0.00D+00 0.0D+00      0.4

          Number of sigma calls:       11
                       o<<<<< (aa):             0.00
                       o<<<<< (bb):             0.00
                       o<<<<< (ab):             0.01
                       o<<<<< (total)           0.01
                       o<<<<< (aa) ff           0.00
                       o<<<<< (aa) gop          0.00
                       o<<<<< (aa) dot          0.00
                       o<<<<< (ab) str          0.00
                       o<<<<< (ab) gath         0.00
                       o<<<<< (ab) dotab        0.00
                       o<<<<< (ab) scat         0.00
                       o<<<<< (ab) sync         0.00
                       o<<<<< Density           0.00
                       o<<<<< Density one       0.00
                       o<<<<< Density two       0.00
                       o<<<<< Density ab        0.00
                       o<<<<< Spin adapt        0.00
                       o<<<<< Symm adapt        0.00

                       o<<<<< (ab) max sync:      0.00
       1.0000      -1.00207196 -3.14D-08 -3.14D-08  1.01D-07 2.4D-01      0.6

          Number of sigma calls:        9
                       o<<<<< (aa):             0.00
                       o<<<<< (bb):             0.00
                       o<<<<< (ab):             0.01
                       o<<<<< (total)           0.01
                       o<<<<< (aa) ff           0.00
                       o<<<<< (aa) gop          0.00
                       o<<<<< (aa) dot          0.00
                       o<<<<< (ab) str          0.00
                       o<<<<< (ab) gath         0.00
                       o<<<<< (ab) dotab        0.00
                       o<<<<< (ab) scat         0.00
                       o<<<<< (ab) sync         0.00
                       o<<<<< Density           0.00
                       o<<<<< Density one       0.00
                       o<<<<< Density two       0.00
                       o<<<<< Density ab        0.00
                       o<<<<< Spin adapt        0.00
                       o<<<<< Symm adapt        0.00

                       o<<<<< (ab) max sync:      0.00
       1.3111      -1.00207197  3.62D-12  3.53D-12  1.01D-07 2.7D-05      0.8
     --- Orbitals canonicalized ---



          %%%%% MacroIteration   2 %%%%%


          Number of sigma calls:       15
                       o<<<<< (aa):             0.00
                       o<<<<< (bb):             0.00
                       o<<<<< (ab):             0.01
                       o<<<<< (total)           0.02
                       o<<<<< (aa) ff           0.00
                       o<<<<< (aa) gop          0.00
                       o<<<<< (aa) dot          0.00
                       o<<<<< (ab) str          0.00
                       o<<<<< (ab) gath         0.00
                       o<<<<< (ab) dotab        0.00
                       o<<<<< (ab) scat         0.00
                       o<<<<< (ab) sync         0.00
                       o<<<<< Density           0.00
                       o<<<<< Density one       0.00
                       o<<<<< Density two       0.00
                       o<<<<< Density ab        0.00
                       o<<<<< Spin adapt        0.00
                       o<<<<< Symm adapt        0.00

                       o<<<<< (ab) max sync:      0.00

           >>>| Valence CI:             -1.190751214299
           >>>| MCSCF energy:           -1.002071969015
           >>>| Gradient norm:          0.138143027D-03
     --- Warning:  480 Hessian diagonals < 0.05 ---
     --- Conjugacy reset ---

                              ----- Line search ------

        step       energy         lsg     num-lsg   num-lsh   lsrat    time
      ------- ---------------- --------- --------- --------- ------- --------
       0.0000      -1.00207197 -3.57D-08  0.00D+00  0.00D+00 0.0D+00      1.2

          Number of sigma calls:        8
                       o<<<<< (aa):             0.00
                       o<<<<< (bb):             0.00
                       o<<<<< (ab):             0.01
                       o<<<<< (total)           0.01
                       o<<<<< (aa) ff           0.00
                       o<<<<< (aa) gop          0.00
                       o<<<<< (aa) dot          0.00
                       o<<<<< (ab) str          0.00
                       o<<<<< (ab) gath         0.00
                       o<<<<< (ab) dotab        0.00
                       o<<<<< (ab) scat         0.00
                       o<<<<< (ab) sync         0.00
                       o<<<<< Density           0.00
                       o<<<<< Density one       0.00
                       o<<<<< Density two       0.00
                       o<<<<< Density ab        0.00
                       o<<<<< Spin adapt        0.00
                       o<<<<< Symm adapt        0.00

                       o<<<<< (ab) max sync:      0.00
       1.0000      -1.00207199 -1.25D-08 -1.25D-08  2.32D-08 3.5D-01      1.4

          Number of sigma calls:        7
                       o<<<<< (aa):             0.00
                       o<<<<< (bb):             0.00
                       o<<<<< (ab):             0.00
                       o<<<<< (total)           0.00
                       o<<<<< (aa) ff           0.00
                       o<<<<< (aa) gop          0.00
                       o<<<<< (aa) dot          0.00
                       o<<<<< (ab) str          0.00
                       o<<<<< (ab) gath         0.00
                       o<<<<< (ab) dotab        0.00
                       o<<<<< (ab) scat         0.00
                       o<<<<< (ab) sync         0.00
                       o<<<<< Density           0.00
                       o<<<<< Density one       0.00
                       o<<<<< Density two       0.00
                       o<<<<< Density ab        0.00
                       o<<<<< Spin adapt        0.00
                       o<<<<< Symm adapt        0.00

                       o<<<<< (ab) max sync:      0.00
       1.5405      -1.00207200 -8.34D-12 -7.81D-12  2.31D-08 2.3D-04      1.5



          %%%%% MacroIteration   3 %%%%%


          Number of sigma calls:        1
                       o<<<<< (aa):             0.00
                       o<<<<< (bb):             0.00
                       o<<<<< (ab):             0.00
                       o<<<<< (total)           0.00
                       o<<<<< (aa) ff           0.00
                       o<<<<< (aa) gop          0.00
                       o<<<<< (aa) dot          0.00
                       o<<<<< (ab) str          0.00
                       o<<<<< (ab) gath         0.00
                       o<<<<< (ab) dotab        0.00
                       o<<<<< (ab) scat         0.00
                       o<<<<< (ab) sync         0.00
                       o<<<<< Density           0.00
                       o<<<<< Density one       0.00
                       o<<<<< Density two       0.00
                       o<<<<< Density ab        0.00
                       o<<<<< Spin adapt        0.00
                       o<<<<< Symm adapt        0.00

                       o<<<<< (ab) max sync:      0.00

           >>>| Valence CI:             -1.190751241775
           >>>| MCSCF energy:           -1.002071996492
           >>>| Gradient norm:          0.742265739D-04




     ==============================
            MCSCF Converged
     ==============================



          Canonical Eigenvalues

              1      
    1   -0.2937
    2   -0.2059
    3   -0.0002
    4   -0.0001
    5   -0.0001
    6   -0.0000
    7   -0.0000
    8   -0.0000
    9   -0.0000
   10   -0.0000
   11    0.4449
   12    0.6969
   13    0.7986
   14    1.1831
   15    1.1831
   16    1.7213
   17    1.8043
   18    1.8043
   19    1.8696
   20    2.0258
   21    2.0258
   22    2.0867
   23    2.0867
   24    2.0889
   25    2.0889
   26    2.0902
   27    2.0902
   28    2.2939
   29    2.8687
   30    2.9669
   31    4.3969
   32    4.3969
   33    4.4285
   34    4.4285
   35    4.4937
   36    4.5110
   37    5.9396
   38    6.0559
   39    6.0559
   40    6.0650
   41    6.0677
   42    6.0677
   43    6.0690
   44    6.0690
   45    6.0690
   46    6.0690
   47    6.0691
   48    6.0691
   49    6.0691
   50    6.0691
   51    8.1080
   52    8.1345
   53    8.1345
   54    8.1398
   55    8.1398
   56    8.1406
   57    8.1406
   58    8.1407
   59    8.1407
   60    8.2019
   61    9.6371
   62    9.6728
   63    9.7101
   64    9.7101
   65    9.7219
   66    9.7219
   67    9.7588
   68    9.7600
   69   22.3779
   70   22.6048


          Converged CI vector

   Index           Coefficient          Config. Occupation
         1         -0.77707211          1  1
        12          0.62915979          2  2

          Number of sigma calls:        1
                       o<<<<< (aa):             0.00
                       o<<<<< (bb):             0.00
                       o<<<<< (ab):             0.00
                       o<<<<< (total)           0.00
                       o<<<<< (aa) ff           0.00
                       o<<<<< (aa) gop          0.00
                       o<<<<< (aa) dot          0.00
                       o<<<<< (ab) str          0.00
                       o<<<<< (ab) gath         0.00
                       o<<<<< (ab) dotab        0.00
                       o<<<<< (ab) scat         0.00
                       o<<<<< (ab) sync         0.00
                       o<<<<< Density           0.00
                       o<<<<< Density one       0.00
                       o<<<<< Density two       0.00
                       o<<<<< Density ab        0.00
                       o<<<<< Spin adapt        0.00
                       o<<<<< Symm adapt        0.00

                       o<<<<< (ab) max sync:      0.00



          Natural orbital occupation numbers

              1      
    1    1.2077
    2    0.7917
    3    0.0004
    4    0.0001
    5    0.0001
    6    0.0000
    7    0.0000
    8    0.0000
    9    0.0000
   10    0.0000


          Number of sigma calls:       15
                       o<<<<< (aa):             0.00
                       o<<<<< (bb):             0.00
                       o<<<<< (ab):             0.01
                       o<<<<< (total)           0.02
                       o<<<<< (aa) ff           0.00
                       o<<<<< (aa) gop          0.00
                       o<<<<< (aa) dot          0.00
                       o<<<<< (ab) str          0.00
                       o<<<<< (ab) gath         0.00
                       o<<<<< (ab) dotab        0.00
                       o<<<<< (ab) scat         0.00
                       o<<<<< (ab) sync         0.00
                       o<<<<< Density           0.00
                       o<<<<< Density one       0.00
                       o<<<<< Density two       0.00
                       o<<<<< Density ab        0.00
                       o<<<<< Spin adapt        0.00
                       o<<<<< Symm adapt        0.00

                       o<<<<< (ab) max sync:      0.00


       Final MCSCF results 
       ------------------- 

       Total MCSCF energy =     -1.002071996492
            Gradient norm =      7.4D-05

    CPU time for solution =      1.9s
   Wall time for solution =      2.0s



                        Analysis of MCSCF natural orbitals
                        ----------------------------------

 Vector    1  Occ=1.207688D+00  E=-2.937485D-01  Symmetry=a
              MO Center=  5.1D-15,  5.3D-12, -3.3D-15, r^2= 2.7D+00
   Bfn.  Coefficient  Atom+Function         Bfn.  Coefficient  Atom+Function  
  ----- ------------  ---------------      ----- ------------  ---------------
     3      0.330525  1 H  s                 38      0.330525  2 H  s          
     4      0.209444  1 H  s                 39      0.209444  2 H  s          
     2      0.171850  1 H  s                 37      0.171850  2 H  s          

 Vector    2  Occ=7.916841D-01  E=-2.058850D-01  Symmetry=a
              MO Center=  2.3D-14, -4.4D-12, -1.6D-14, r^2= 2.9D+00
   Bfn.  Coefficient  Atom+Function         Bfn.  Coefficient  Atom+Function  
  ----- ------------  ---------------      ----- ------------  ---------------
     3      0.371890  1 H  s                 38     -0.371890  2 H  s          
     4      0.209222  1 H  s                 39     -0.209222  2 H  s          
     2      0.188743  1 H  s                 37     -0.188743  2 H  s          

 Vector    3  Occ=3.727713D-04  E=-1.937813D-04  Symmetry=a
              MO Center= -3.7D-15,  1.9D-09, -2.2D-16, r^2= 3.2D+00
   Bfn.  Coefficient  Atom+Function         Bfn.  Coefficient  Atom+Function  
  ----- ------------  ---------------      ----- ------------  ---------------
     9      1.057940  1 H  py                44     -1.057940  2 H  py         
    12     -0.833229  1 H  py                47      0.833229  2 H  py         
     3     -0.680635  1 H  s                 38     -0.680635  2 H  s          
    32     -0.451617  1 H  fyyy              67      0.451617  2 H  fyyy       
    27     -0.427117  1 H  fxxy              34     -0.427117  1 H  fyzz       

 Vector    4  Occ=1.222167D-04  E=-6.936858D-05  Symmetry=a
              MO Center=  1.7D-13, -6.2D-12, -3.0D-15, r^2= 2.9D+00
   Bfn.  Coefficient  Atom+Function         Bfn.  Coefficient  Atom+Function  
  ----- ------------  ---------------      ----- ------------  ---------------
     8      1.419840  1 H  px                43      1.419840  2 H  px         
    11     -0.918473  1 H  px                46     -0.918473  2 H  px         
    29     -0.635760  1 H  fxyy              64     -0.635760  2 H  fxyy       
    26     -0.597516  1 H  fxxx              31     -0.597516  1 H  fxzz       
    61     -0.597516  2 H  fxxx              66     -0.597516  2 H  fxzz       

 Vector    5  Occ=1.222167D-04  E=-6.936858D-05  Symmetry=a
              MO Center= -2.4D-15, -7.1D-12, -1.2D-13, r^2= 2.9D+00
   Bfn.  Coefficient  Atom+Function         Bfn.  Coefficient  Atom+Function  
  ----- ------------  ---------------      ----- ------------  ---------------
    10      1.419840  1 H  pz                45      1.419840  2 H  pz         
    13     -0.918473  1 H  pz                48     -0.918473  2 H  pz         
    33     -0.635760  1 H  fyyz              68     -0.635760  2 H  fyyz       
    28     -0.597516  1 H  fxxz              35     -0.597516  1 H  fzzz       
    63     -0.597516  2 H  fxxz              70     -0.597516  2 H  fzzz       

 Vector    6  Occ=5.532003D-06  E=-3.539862D-06  Symmetry=a
              MO Center= -1.2D-13, -1.1D-09,  1.1D-13, r^2= 2.8D+00
   Bfn.  Coefficient  Atom+Function         Bfn.  Coefficient  Atom+Function  
  ----- ------------  ---------------      ----- ------------  ---------------
     9      0.988636  1 H  py                44     -0.988636  2 H  py         
     2      0.625838  1 H  s                 37      0.625838  2 H  s          
     4     -0.487085  1 H  s                 39     -0.487085  2 H  s          
    27     -0.401831  1 H  fxxy              34     -0.401831  1 H  fyzz       
    62      0.401831  2 H  fxxy              69      0.401831  2 H  fyzz       

 Vector    7  Occ=1.611785D-06  E=-1.545179D-06  Symmetry=a
              MO Center= -2.2D-12,  4.1D-09,  1.3D-12, r^2= 2.3D+00
   Bfn.  Coefficient  Atom+Function         Bfn.  Coefficient  Atom+Function  
  ----- ------------  ---------------      ----- ------------  ---------------
     9      1.482155  1 H  py                44      1.482155  2 H  py         
     3     -0.973396  1 H  s                 38      0.973396  2 H  s          
     2      0.867489  1 H  s                 37     -0.867489  2 H  s          
    27     -0.539809  1 H  fxxy              34     -0.539809  1 H  fyzz       
    62     -0.539809  2 H  fxxy              69     -0.539809  2 H  fyzz       

 Vector    8  Occ=1.306099D-06  E=-1.167267D-06  Symmetry=a
              MO Center=  2.4D-12, -1.1D-12, -1.4D-13, r^2= 2.0D+00
   Bfn.  Coefficient  Atom+Function         Bfn.  Coefficient  Atom+Function  
  ----- ------------  ---------------      ----- ------------  ---------------
     8      1.373137  1 H  px                43     -1.373137  2 H  px         
    26     -0.445467  1 H  fxxx              31     -0.445467  1 H  fxzz       
    61      0.445467  2 H  fxxx              66      0.445467  2 H  fxzz       
    21      0.379896  1 H  dxy               56      0.379896  2 H  dxy        
    29     -0.327809  1 H  fxyy              64      0.327809  2 H  fxyy       

 Vector    9  Occ=1.306099D-06  E=-1.167267D-06  Symmetry=a
              MO Center= -7.6D-14, -7.2D-13, -1.3D-12, r^2= 2.0D+00
   Bfn.  Coefficient  Atom+Function         Bfn.  Coefficient  Atom+Function  
  ----- ------------  ---------------      ----- ------------  ---------------
    10      1.373137  1 H  pz                45     -1.373137  2 H  pz         
    28     -0.445467  1 H  fxxz              35     -0.445467  1 H  fzzz       
    63      0.445467  2 H  fxxz              70      0.445467  2 H  fzzz       
    24      0.379896  1 H  dyz               59      0.379896  2 H  dyz        
    33     -0.327809  1 H  fyyz              68      0.327809  2 H  fyyz       

 Vector   10  Occ=7.402543D-07  E=-9.567029D-07  Symmetry=a
              MO Center= -9.5D-15,  2.6D-09, -6.3D-15, r^2= 2.7D+00
   Bfn.  Coefficient  Atom+Function         Bfn.  Coefficient  Atom+Function  
  ----- ------------  ---------------      ----- ------------  ---------------
     9      3.218993  1 H  py                44     -3.218993  2 H  py         
    27     -1.415871  1 H  fxxy              34     -1.415871  1 H  fyzz       
    62      1.415871  2 H  fxxy              69      1.415871  2 H  fyzz       
    32     -1.103017  1 H  fyyy              67      1.103017  2 H  fyyy       
     6     -0.795978  1 H  py                41      0.795978  2 H  py         

 Vector   11  Occ=0.000000D+00  E= 4.448932D-01  Symmetry=a
              MO Center=  2.1D-12,  7.5D-09, -1.3D-12, r^2= 8.6D+00
   Bfn.  Coefficient  Atom+Function         Bfn.  Coefficient  Atom+Function  
  ----- ------------  ---------------      ----- ------------  ---------------
     3      3.075850  1 H  s                 38     -3.075850  2 H  s          
     4     -1.994510  1 H  s                 39      1.994510  2 H  s          
     2     -0.764942  1 H  s                 37      0.764942  2 H  s          
     9     -0.682036  1 H  py                44     -0.682036  2 H  py         
    23     -0.467554  1 H  dyy               58      0.467554  2 H  dyy        

 Vector   12  Occ=0.000000D+00  E= 6.969382D-01  Symmetry=a
              MO Center= -2.3D-12, -7.5D-09,  1.4D-12, r^2= 4.1D+00
   Bfn.  Coefficient  Atom+Function         Bfn.  Coefficient  Atom+Function  
  ----- ------------  ---------------      ----- ------------  ---------------
     9      1.889959  1 H  py                44      1.889959  2 H  py         
    12     -1.191875  1 H  py                47     -1.191875  2 H  py         
     3      0.776542  1 H  s                 38     -0.776542  2 H  s          
    27     -0.759541  1 H  fxxy              32     -0.755990  1 H  fyyy       
    34     -0.759541  1 H  fyzz              62     -0.759541  2 H  fxxy       

 Vector   13  Occ=0.000000D+00  E= 7.986354D-01  Symmetry=a
              MO Center= -2.8D-15, -1.1D-08,  3.2D-15, r^2= 6.4D+00
   Bfn.  Coefficient  Atom+Function         Bfn.  Coefficient  Atom+Function  
  ----- ------------  ---------------      ----- ------------  ---------------
     3      3.941153  1 H  s                 38      3.941153  2 H  s          
     4     -1.564494  1 H  s                 39     -1.564494  2 H  s          
     2     -1.235907  1 H  s                 37     -1.235907  2 H  s          
    23     -0.627112  1 H  dyy               58     -0.627112  2 H  dyy        
    20     -0.619847  1 H  dxx               25     -0.619847  1 H  dzz        

 Vector   14  Occ=0.000000D+00  E= 1.183142D+00  Symmetry=a
              MO Center=  1.2D-12, -2.4D-11, -8.3D-14, r^2= 4.3D+00
   Bfn.  Coefficient  Atom+Function         Bfn.  Coefficient  Atom+Function  
  ----- ------------  ---------------      ----- ------------  ---------------
     8      4.978463  1 H  px                43     -4.978463  2 H  px         
    26     -1.934429  1 H  fxxx              31     -1.934429  1 H  fxzz       
    61      1.934429  2 H  fxxx              66      1.934429  2 H  fxzz       
    29     -1.914847  1 H  fxyy              64      1.914847  2 H  fxyy       
    11     -1.500355  1 H  px                46      1.500355  2 H  px         

 Vector   15  Occ=0.000000D+00  E= 1.183142D+00  Symmetry=a
              MO Center= -4.1D-14, -2.3D-11, -6.1D-13, r^2= 4.3D+00
   Bfn.  Coefficient  Atom+Function         Bfn.  Coefficient  Atom+Function  
  ----- ------------  ---------------      ----- ------------  ---------------
    10      4.978463  1 H  pz                45     -4.978463  2 H  pz         
    28     -1.934429  1 H  fxxz              35     -1.934429  1 H  fzzz       
    63      1.934429  2 H  fxxz              70      1.934429  2 H  fzzz       
    33     -1.914847  1 H  fyyz              68      1.914847  2 H  fyyz       
    13     -1.500355  1 H  pz                48      1.500355  2 H  pz         

 Vector   16  Occ=0.000000D+00  E= 1.721312D+00  Symmetry=a
              MO Center= -1.2D-12,  4.0D-09,  7.1D-13, r^2= 4.0D+00
   Bfn.  Coefficient  Atom+Function         Bfn.  Coefficient  Atom+Function  
  ----- ------------  ---------------      ----- ------------  ---------------
     9      4.867447  1 H  py                44      4.867447  2 H  py         
     3      2.103653  1 H  s                 38     -2.103653  2 H  s          
    27     -1.891505  1 H  fxxy              34     -1.891505  1 H  fyzz       
    62     -1.891505  2 H  fxxy              69     -1.891505  2 H  fyzz       
    32     -1.880254  1 H  fyyy              67     -1.880254  2 H  fyyy       

 Vector   17  Occ=0.000000D+00  E= 1.804298D+00  Symmetry=a
              MO Center= -7.2D-14,  5.0D-11,  5.2D-15, r^2= 3.2D+00
   Bfn.  Coefficient  Atom+Function         Bfn.  Coefficient  Atom+Function  
  ----- ------------  ---------------      ----- ------------  ---------------
     8      6.190209  1 H  px                43      6.190209  2 H  px         
    26     -2.418472  1 H  fxxx              29     -2.420620  1 H  fxyy       
    31     -2.418472  1 H  fxzz              61     -2.418472  2 H  fxxx       
    64     -2.420620  2 H  fxyy              66     -2.418472  2 H  fxzz       
     5     -1.637329  1 H  px                40     -1.637329  2 H  px         

 Vector   18  Occ=0.000000D+00  E= 1.804298D+00  Symmetry=a
              MO Center=  2.6D-16,  4.9D-11,  4.4D-14, r^2= 3.2D+00
   Bfn.  Coefficient  Atom+Function         Bfn.  Coefficient  Atom+Function  
  ----- ------------  ---------------      ----- ------------  ---------------
    10      6.190209  1 H  pz                45      6.190209  2 H  pz         
    28     -2.418472  1 H  fxxz              33     -2.420620  1 H  fyyz       
    35     -2.418472  1 H  fzzz              63     -2.418472  2 H  fxxz       
    68     -2.420620  2 H  fyyz              70     -2.418472  2 H  fzzz       
     7     -1.637329  1 H  pz                42     -1.637329  2 H  pz         

 Vector   19  Occ=0.000000D+00  E= 1.869570D+00  Symmetry=a
              MO Center=  1.2D-14, -1.1D-09, -9.0D-15, r^2= 3.5D+00
   Bfn.  Coefficient  Atom+Function         Bfn.  Coefficient  Atom+Function  
  ----- ------------  ---------------      ----- ------------  ---------------
     9      4.305592  1 H  py                44     -4.305592  2 H  py         
    32     -1.683145  1 H  fyyy              67      1.683145  2 H  fyyy       
    27     -1.670458  1 H  fxxy              34     -1.670458  1 H  fyzz       
    62      1.670458  2 H  fxxy              69      1.670458  2 H  fyzz       
     6     -1.136247  1 H  py                41      1.136247  2 H  py         

 Vector   20  Occ=0.000000D+00  E= 2.025777D+00  Symmetry=a
              MO Center= -1.2D-14, -2.4D-10, -5.6D-16, r^2= 3.2D+00
   Bfn.  Coefficient  Atom+Function         Bfn.  Coefficient  Atom+Function  
  ----- ------------  ---------------      ----- ------------  ---------------
    24      0.975560  1 H  dyz               59     -0.975560  2 H  dyz        
    21      0.853192  1 H  dxy               56     -0.853192  2 H  dxy        


 Wrote Lagrangian and 1- and 2-particle density matrices to ./H2.mcpdm


     Multipole analysis of the density
     ---------------------------------

     L   x y z        total        nuclear
     -   - - -        -----        -------
     0   0 0 0     -0.000000      2.000000

     1   1 0 0     -0.000000      0.000000
     1   0 1 0     -0.000000      0.000000
     1   0 0 1      0.000000      0.000000

     2   2 0 0     -2.023583      0.000000
     2   1 1 0      0.000000      0.000000
     2   1 0 1     -0.000000      0.000000
     2   0 2 0     -1.842200     14.045000
     2   0 1 1     -0.000000      0.000000
     2   0 0 2     -2.023583      0.000000


  Mulliken analysis of the total density
  --------------------------------------

    Atom       Charge   Shell Charges
 -----------   ------   -------------------------------------------------------
    1 H    1     1.00   0.05  0.22  0.48  0.26  0.00 -0.00  0.00  0.00  0.00  0.00
    2 H    1     1.00   0.05  0.22  0.48  0.26  0.00 -0.00  0.00  0.00  0.00  0.00

    Mulliken analysis of the active space density
    ---------------------------------------------

    Atom       Charge   Shell Charges
 -----------   ------   -------------------------------------------------------
    1 H    1     1.00   0.05  0.22  0.48  0.26  0.00 -0.00  0.00  0.00  0.00  0.00
    2 H    1     1.00   0.05  0.22  0.48  0.26  0.00 -0.00  0.00  0.00  0.00  0.00

 Parallel integral file used      13 records with       0 large values


 Task  times  cpu:        1.9s     wall:        2.1s


                                NWChem Input Module
                                -------------------


                                 NWChem SCF Module
                                 -----------------


                                        H2



  ao basis        = "ao basis"
  functions       =    70
  atoms           =     2
  closed shells   =     1
  open shells     =     0
  charge          =   0.00
  wavefunction    = RHF 
  input vectors   = ./H2.mos
  output vectors  = ./H2-5.30.mos
  use symmetry    = F
  symmetry adapt  = F


 Summary of "ao basis" -> "ao basis" (cartesian)
 ------------------------------------------------------------------------------
       Tag                 Description            Shells   Functions and Types
 ---------------- ------------------------------  ------  ---------------------
 H                          cc-pVQZ                 10       35   4s3p2d1f



 Forming initial guess at       2.1s


 Loading old vectors from job with title :

H2


 Starting SCF solution at       2.1s



 ----------------------------------------------
         Quadratically convergent ROHF

 Convergence threshold     :          1.000E-04
 Maximum no. of iterations :           30
 Final Fock-matrix accuracy:          1.000E-07
 ----------------------------------------------


 Integral file          = ./H2.aoints.0
 Record size in doubles =  65536        No. of integs per rec  =  43688
 Max. records in memory =     99        Max. records in file   = 280264
 No. of bits per label  =      8        No. of bits per value  =     64


 #quartets = 1.800D+04 #integrals = 4.277D+05 #direct =  0.0% #cached =100.0%



       Final RHF  results 
       ------------------ 

         Total SCF energy =     -0.822721578600
      One-electron energy =     -1.408575859235
      Two-electron energy =      0.397175035351
 Nuclear repulsion energy =      0.188679245283

        Time for solution =      0.0s


             Final eigenvalues
             -----------------

              1      
    1   -0.2937
    2   -0.2059
    3   -0.0002
    4   -0.0001
    5   -0.0001
    6   -0.0000
    7   -0.0000
    8   -0.0000
    9   -0.0000
   10   -0.0000
   11    0.4449

                       ROHF Final Molecular Orbital Analysis
                       -------------------------------------

 Vector    1  Occ=2.000000D+00  E=-2.937485D-01
              MO Center=  5.1D-15,  5.3D-12, -3.3D-15, r^2= 2.7D+00
   Bfn.  Coefficient  Atom+Function         Bfn.  Coefficient  Atom+Function  
  ----- ------------  ---------------      ----- ------------  ---------------
     3      0.330525  1 H  s                 38      0.330525  2 H  s          
     4      0.209444  1 H  s                 39      0.209444  2 H  s          
     2      0.171850  1 H  s                 37      0.171850  2 H  s          

 Vector    2  Occ=0.000000D+00  E=-2.058850D-01
              MO Center=  2.3D-14, -4.4D-12, -1.6D-14, r^2= 2.9D+00
   Bfn.  Coefficient  Atom+Function         Bfn.  Coefficient  Atom+Function  
  ----- ------------  ---------------      ----- ------------  ---------------
     3      0.371890  1 H  s                 38     -0.371890  2 H  s          
     4      0.209222  1 H  s                 39     -0.209222  2 H  s          
     2      0.188743  1 H  s                 37     -0.188743  2 H  s          

 Vector    3  Occ=0.000000D+00  E=-1.937813D-04
              MO Center= -3.7D-15,  1.9D-09, -2.2D-16, r^2= 3.2D+00
   Bfn.  Coefficient  Atom+Function         Bfn.  Coefficient  Atom+Function  
  ----- ------------  ---------------      ----- ------------  ---------------
     9      1.057940  1 H  py                44     -1.057940  2 H  py         
    12     -0.833229  1 H  py                47      0.833229  2 H  py         
     3     -0.680635  1 H  s                 38     -0.680635  2 H  s          
    32     -0.451617  1 H  fyyy              67      0.451617  2 H  fyyy       
    27     -0.427117  1 H  fxxy              34     -0.427117  1 H  fyzz       

 Vector    4  Occ=0.000000D+00  E=-6.936858D-05
              MO Center=  1.7D-13, -6.2D-12, -3.0D-15, r^2= 2.9D+00
   Bfn.  Coefficient  Atom+Function         Bfn.  Coefficient  Atom+Function  
  ----- ------------  ---------------      ----- ------------  ---------------
     8      1.419840  1 H  px                43      1.419840  2 H  px         
    11     -0.918473  1 H  px                46     -0.918473  2 H  px         
    29     -0.635760  1 H  fxyy              64     -0.635760  2 H  fxyy       
    26     -0.597516  1 H  fxxx              31     -0.597516  1 H  fxzz       
    61     -0.597516  2 H  fxxx              66     -0.597516  2 H  fxzz       

 Vector    5  Occ=0.000000D+00  E=-6.936858D-05
              MO Center= -2.4D-15, -7.1D-12, -1.2D-13, r^2= 2.9D+00
   Bfn.  Coefficient  Atom+Function         Bfn.  Coefficient  Atom+Function  
  ----- ------------  ---------------      ----- ------------  ---------------
    10      1.419840  1 H  pz                45      1.419840  2 H  pz         
    13     -0.918473  1 H  pz                48     -0.918473  2 H  pz         
    33     -0.635760  1 H  fyyz              68     -0.635760  2 H  fyyz       
    28     -0.597516  1 H  fxxz              35     -0.597516  1 H  fzzz       
    63     -0.597516  2 H  fxxz              70     -0.597516  2 H  fzzz       

 Vector    6  Occ=0.000000D+00  E=-3.539862D-06
              MO Center= -1.2D-13, -1.1D-09,  1.1D-13, r^2= 2.8D+00
   Bfn.  Coefficient  Atom+Function         Bfn.  Coefficient  Atom+Function  
  ----- ------------  ---------------      ----- ------------  ---------------
     9      0.988636  1 H  py                44     -0.988636  2 H  py         
     2      0.625838  1 H  s                 37      0.625838  2 H  s          
     4     -0.487085  1 H  s                 39     -0.487085  2 H  s          
    27     -0.401831  1 H  fxxy              34     -0.401831  1 H  fyzz       
    62      0.401831  2 H  fxxy              69      0.401831  2 H  fyzz       

 Vector    7  Occ=0.000000D+00  E=-1.545179D-06
              MO Center= -2.2D-12,  4.1D-09,  1.3D-12, r^2= 2.3D+00
   Bfn.  Coefficient  Atom+Function         Bfn.  Coefficient  Atom+Function  
  ----- ------------  ---------------      ----- ------------  ---------------
     9      1.482155  1 H  py                44      1.482155  2 H  py         
     3     -0.973396  1 H  s                 38      0.973396  2 H  s          
     2      0.867489  1 H  s                 37     -0.867489  2 H  s          
    27     -0.539809  1 H  fxxy              34     -0.539809  1 H  fyzz       
    62     -0.539809  2 H  fxxy              69     -0.539809  2 H  fyzz       

 Vector    8  Occ=0.000000D+00  E=-1.167267D-06
              MO Center=  2.4D-12, -1.1D-12, -1.4D-13, r^2= 2.0D+00
   Bfn.  Coefficient  Atom+Function         Bfn.  Coefficient  Atom+Function  
  ----- ------------  ---------------      ----- ------------  ---------------
     8      1.373137  1 H  px                43     -1.373137  2 H  px         
    26     -0.445467  1 H  fxxx              31     -0.445467  1 H  fxzz       
    61      0.445467  2 H  fxxx              66      0.445467  2 H  fxzz       
    21      0.379896  1 H  dxy               56      0.379896  2 H  dxy        
    29     -0.327809  1 H  fxyy              64      0.327809  2 H  fxyy       

 Vector    9  Occ=0.000000D+00  E=-1.167267D-06
              MO Center= -7.6D-14, -7.2D-13, -1.3D-12, r^2= 2.0D+00
   Bfn.  Coefficient  Atom+Function         Bfn.  Coefficient  Atom+Function  
  ----- ------------  ---------------      ----- ------------  ---------------
    10      1.373137  1 H  pz                45     -1.373137  2 H  pz         
    28     -0.445467  1 H  fxxz              35     -0.445467  1 H  fzzz       
    63      0.445467  2 H  fxxz              70      0.445467  2 H  fzzz       
    24      0.379896  1 H  dyz               59      0.379896  2 H  dyz        
    33     -0.327809  1 H  fyyz              68      0.327809  2 H  fyyz       

 Vector   10  Occ=0.000000D+00  E=-9.567029D-07
              MO Center= -9.5D-15,  2.6D-09, -6.3D-15, r^2= 2.7D+00
   Bfn.  Coefficient  Atom+Function         Bfn.  Coefficient  Atom+Function  
  ----- ------------  ---------------      ----- ------------  ---------------
     9      3.218993  1 H  py                44     -3.218993  2 H  py         
    27     -1.415871  1 H  fxxy              34     -1.415871  1 H  fyzz       
    62      1.415871  2 H  fxxy              69      1.415871  2 H  fyzz       
    32     -1.103017  1 H  fyyy              67      1.103017  2 H  fyyy       
     6     -0.795978  1 H  py                41      0.795978  2 H  py         

 Vector   11  Occ=0.000000D+00  E= 4.448932D-01
              MO Center=  2.1D-12,  7.5D-09, -1.3D-12, r^2= 8.6D+00
   Bfn.  Coefficient  Atom+Function         Bfn.  Coefficient  Atom+Function  
  ----- ------------  ---------------      ----- ------------  ---------------
     3      3.075850  1 H  s                 38     -3.075850  2 H  s          
     4     -1.994510  1 H  s                 39      1.994510  2 H  s          
     2     -0.764942  1 H  s                 37      0.764942  2 H  s          
     9     -0.682036  1 H  py                44     -0.682036  2 H  py         
    23     -0.467554  1 H  dyy               58      0.467554  2 H  dyy        

 Vector   12  Occ=0.000000D+00  E= 6.969382D-01
              MO Center= -2.3D-12, -7.5D-09,  1.4D-12, r^2= 4.1D+00
   Bfn.  Coefficient  Atom+Function         Bfn.  Coefficient  Atom+Function  
  ----- ------------  ---------------      ----- ------------  ---------------
     9      1.889959  1 H  py                44      1.889959  2 H  py         
    12     -1.191875  1 H  py                47     -1.191875  2 H  py         
     3      0.776542  1 H  s                 38     -0.776542  2 H  s          
    27     -0.759541  1 H  fxxy              32     -0.755990  1 H  fyyy       
    34     -0.759541  1 H  fyzz              62     -0.759541  2 H  fxxy       


 center of mass
 --------------
 x =   0.00000000 y =   0.00000000 z =   0.00000000

 moments of inertia (a.u.)
 ------------------
          14.154902125000           0.000000000000           0.000000000000
           0.000000000000           0.000000000000           0.000000000000
           0.000000000000           0.000000000000          14.154902125000

  Mulliken analysis of the total density
  --------------------------------------

    Atom       Charge   Shell Charges
 -----------   ------   -------------------------------------------------------
    1 H    1     1.00   0.04  0.20  0.46  0.29  0.00 -0.00  0.00  0.00  0.00  0.00
    2 H    1     1.00   0.04  0.20  0.46  0.29  0.00 -0.00  0.00  0.00  0.00  0.00

       Multipole analysis of the density wrt the origin
       ------------------------------------------------

     L   x y z        total         open         nuclear
     -   - - -        -----         ----         -------
     0   0 0 0     -0.000000      0.000000      2.000000

     1   1 0 0     -0.000000      0.000000      0.000000
     1   0 1 0     -0.000000      0.000000      0.000000
     1   0 0 1      0.000000      0.000000      0.000000

     2   2 0 0     -2.138203      0.000000      0.000000
     2   1 1 0     -0.000000      0.000000      0.000000
     2   1 0 1      0.000000      0.000000      0.000000
     2   0 2 0     -1.254670      0.000000     14.045000
     2   0 1 1      0.000000      0.000000      0.000000
     2   0 0 2     -2.138203      0.000000      0.000000


 Parallel integral file used      10 records with       0 large values

 ------------------------------------
     Number of active orbitals     10
     Number of active alpha electrons      1
     Number of active beta electrons       1
 ------------------------------------
                   NWChem Extensible Many-Electron Theory Module
                   ---------------------------------------------

              ======================================================
                   This portion of the program was automatically
                  generated by a Tensor Contraction Engine (TCE).
                  The development of this portion of the program
                 and TCE was supported by US Department of Energy,
                Office of Science, Office of Basic Energy Science.
                      TCE is a product of Battelle and PNNL.
              Please cite: S.Hirata, J.Phys.Chem.A 107, 9887 (2003).
              ======================================================

                                        H2


            General Information
            -------------------
      Number of processors :     1
         Wavefunction type : Restricted Hartree-Fock
          No. of electrons :     2
           Alpha electrons :     1
            Beta electrons :     1
           No. of orbitals :   140
            Alpha orbitals :    70
             Beta orbitals :    70
        Alpha frozen cores :     0
         Beta frozen cores :     0
     Alpha frozen virtuals :    60
      Beta frozen virtuals :    60
         Spin multiplicity : singlet 
    Number of AO functions :    70
       Number of AO shells :    20
        Use of symmetry is : off
      Symmetry adaption is : off
         Schwarz screening : 0.10D-09

          Correlation Information
          -----------------------
          Calculation type : Coupled-cluster singles & doubles                           
   Perturbative correction : none                                                        
            Max iterations :      300
        Residual threshold : 0.10D-06
     T(0) DIIS level shift : 0.00D+00
     L(0) DIIS level shift : 0.00D+00
     T(1) DIIS level shift : 0.00D+00
     L(1) DIIS level shift : 0.00D+00
     T(R) DIIS level shift : 0.00D+00
     T(I) DIIS level shift : 0.00D+00
   CC-T/L Amplitude update :  5-th order DIIS
                I/O scheme : Global Array Library
        L-threshold :  0.10D-06
        EOM-threshold :  0.10D-06
 no EOMCCSD initial starts read in
 TCE RESTART OPTIONS
 READ_INT:   F
 WRITE_INT:  F
 READ_TA:    F
 WRITE_TA:   F
 READ_XA:    F
 WRITE_XA:   F
 READ_IN3:   F
 WRITE_IN3:  F
 SLICE:      F
 D4D5:       F
 quantumc:   T
 qrotation:  F
 pwtce:      F
 qducc:      F
 nacto:                         0
 nrotv:                         0
 nrot:                          0

            Memory Information
            ------------------
          Available GA space size is    1610607836 doubles
          Available MA space size is    1610610644 doubles

 Maximum block size supplied by input
 Maximum block size         1 doubles

 tile_dim =      1

 Block   Spin    Irrep     Size     Offset   Alpha
 -------------------------------------------------
   1    alpha     a      1 doubles       0       1
   2    beta      a      1 doubles       1       1
   3    alpha     a      1 doubles       2       3
   4    alpha     a      1 doubles       3       4
   5    alpha     a      1 doubles       4       5
   6    alpha     a      1 doubles       5       6
   7    alpha     a      1 doubles       6       7
   8    alpha     a      1 doubles       7       8
   9    alpha     a      1 doubles       8       9
  10    alpha     a      1 doubles       9      10
  11    alpha     a      1 doubles      10      11
  12    beta      a      1 doubles      11       3
  13    beta      a      1 doubles      12       4
  14    beta      a      1 doubles      13       5
  15    beta      a      1 doubles      14       6
  16    beta      a      1 doubles      15       7
  17    beta      a      1 doubles      16       8
  18    beta      a      1 doubles      17       9
  19    beta      a      1 doubles      18      10
  20    beta      a      1 doubles      19      11

 Global array virtual files algorithm will be used

 Parallel file system coherency ......... OK

 Integral file          = ./H2.aoints.0
 Record size in doubles =  65536        No. of integs per rec  =  43688
 Max. records in memory =     99        Max. records in file   = 280264
 No. of bits per label  =      8        No. of bits per value  =     64


 #quartets = 1.955D+04 #integrals = 5.480D+05 #direct =  0.0% #cached =100.0%


 Fock matrix recomputed
 1-e file size   =              100
 1-e file name   = ./H2.f1
 Cpu & wall time / sec            0.0            0.0
 4-electron integrals stored in orbital form

 v2    file size   =             1540
 4-index algorithm nr.  13 is used
 imaxsize =       30
 imaxsize ichop =        0
 begin_one_electron_integrals
    1    1        -0.7042879296
    3    1         0.0434235466
    6    1        -0.0011119673
   10    1        -0.0017346280
    2    2        -0.6706322847
    7    2        -0.0044330811
    1    3         0.0434235466
    3    3        -0.1477026796
    6    3        -0.0748019440
    7    3         0.0000000002
   10    3        -0.1919339059
    4    4        -0.0547555540
    5    5        -0.0547555540
    1    6        -0.0011119673
    3    6        -0.0748019440
    6    6         0.0882545395
    7    6        -0.0000000009
   10    6         0.2110430690
    2    7        -0.0044330811
    3    7         0.0000000002
    6    7        -0.0000000009
    7    7         0.7253655555
   10    7        -0.0000000013
    8    8         0.6035795941
    9    9         0.6035795941
    1   10        -0.0017346280
    3   10        -0.1919339059
    6   10         0.2110430690
    7   10        -0.0000000013
   10   10         1.4704396583
 end_one_electron_integrals
 begin_two_electron_integrals
    1    1    1    1        0.3971750369
    2    1    2    1        0.2189471654
    3    1    1    1       -0.0262167353
    3    1    3    1        0.0476693026
    3    1    2    2       -0.0189880386
    4    1    4    1        0.0438347423
    5    1    5    1        0.0438347423
    6    1    1    1        0.0848641343
    6    1    3    1       -0.0003997991
    6    1    6    1        0.0678216245
    6    1    2    2        0.0948137053
    6    1    3    3        0.0311235232
    6    1    4    4        0.0315780059
    6    1    5    5        0.0315780059
    7    1    2    1        0.0643264575
    7    1    7    1        0.0634167095
    7    1    3    2       -0.0126432760
    7    1    6    2        0.0645594213
    8    1    8    1        0.0568421154
    8    1    4    2       -0.0427953285
    8    1    5    2        0.0018959027
    8    1    7    4        0.0116965785
    8    1    7    5       -0.0005181775
    9    1    9    1        0.0568421154
    9    1    4    2       -0.0018959027
    9    1    5    2       -0.0427953285
    9    1    7    4        0.0005181775
    9    1    7    5        0.0116965785
   10    1    1    1       -0.0216302249
   10    1    3    1       -0.0144999879
   10    1    6    1       -0.0164812981
   10    1   10    1        0.0297281953
   10    1    2    2       -0.0262656400
   10    1    3    2       -0.0000000001
   10    1    7    2       -0.0076947249
   10    1    3    3        0.0128562645
   10    1    6    3       -0.0041482565
   10    1    4    4       -0.0084925441
   10    1    5    5       -0.0084925441
   10    1    6    6       -0.0202227302
   10    1    7    6        0.0000000001
   10    1    7    7       -0.0163315758
   10    1    8    8       -0.0167622094
   10    1    9    9       -0.0167622094
    2    2    1    1        0.4066664502
    2    2    2    2        0.4188640414
    3    2    2    1        0.0216707449
    3    2    3    2        0.0311673170
    4    2    4    2        0.0357994029
    5    2    5    2        0.0357994029
    6    2    2    1        0.1037843931
    6    2    3    2        0.0006555813
    6    2    6    2        0.0779581809
    7    2    1    1        0.0777088766
    7    2    3    1       -0.0190561071
    7    2    6    1        0.0645120489
    7    2    7    1       -0.0000000002
    7    2    2    2        0.0839056377
    7    2    7    2        0.0724361391
    7    2    3    3        0.0387052983
    7    2    6    3       -0.0047648570
    7    2    4    4        0.0300069948
    7    2    5    5        0.0300069948
    7    2    6    6        0.0868555548
    8    2    4    1       -0.0492258175
    8    2    5    1        0.0021807839
    8    2    8    2        0.0643982106
    8    2    4    3        0.0085810263
    8    2    5    3       -0.0003801534
    8    2    6    4        0.0086548535
    8    2    6    5       -0.0003834241
    9    2    4    1       -0.0021807839
    9    2    5    1       -0.0492258175
    9    2    9    2        0.0643982106
    9    2    4    3        0.0003801534
    9    2    5    3        0.0085810263
    9    2    6    4        0.0003834241
    9    2    6    5        0.0086548535
   10    2    1    1        0.0000000001
   10    2    2    1       -0.0294726734
   10    2    3    1       -0.0000000002
   10    2    7    1       -0.0096187624
   10    2    3    2       -0.0122173034
   10    2    6    2       -0.0211221575
   10    2   10    2        0.0307607915
   10    2    3    3        0.0000000001
   10    2    7    3       -0.0039933984
   10    2    4    4        0.0000000001
   10    2    8    4        0.0139470255
   10    2    9    4        0.0006178759
   10    2    5    5        0.0000000001
   10    2    8    5       -0.0006178759
   10    2    9    5        0.0139470255
   10    2    6    6        0.0000000002
   10    2    7    6       -0.0220087213
   10    2    7    7        0.0000000002
   10    2    8    8        0.0000000002
   10    2    9    9        0.0000000002
    3    3    1    1        0.3372636367
    3    3    2    1       -0.0000000002
    3    3    3    1       -0.0495446567
    3    3    2    2        0.3342171256
    3    3    3    3        0.3562205957
    4    3    4    1       -0.0080662215
    4    3    4    3        0.0156922681
    5    3    5    1       -0.0080662215
    5    3    5    3        0.0156922681
    6    3    1    1        0.0129722901
    6    3    2    1       -0.0000000001
    6    3    3    1       -0.0142255668
    6    3    6    1       -0.0083801365
    6    3    2    2        0.0089665453
    6    3    3    3        0.0277973837
    6    3    6    3        0.0183782869
    6    3    4    4        0.0173952864
    6    3    5    5        0.0173952864
    7    3    1    1        0.0000000001
    7    3    2    1       -0.0512466531
    7    3    7    1       -0.0184018776
    7    3    2    2        0.0000000001
    7    3    3    2       -0.0039178077
    7    3    6    2       -0.0244103790
    7    3    3    3        0.0000000001
    7    3    7    3        0.0205314708
    8    3    8    1       -0.0103189556
    8    3    4    2        0.0068522526
    8    3    5    2       -0.0003035659
    8    3    8    3        0.0116700751
    8    3    7    4        0.0001763467
    8    3    7    5       -0.0000078124
    9    3    9    1       -0.0103189556
    9    3    4    2        0.0003035659
    9    3    5    2        0.0068522526
    9    3    9    3        0.0116700751
    9    3    7    4        0.0000078124
    9    3    7    5        0.0001763467
   10    3    1    1       -0.0562860103
   10    3    2    1       -0.0000000004
   10    3    3    1        0.0389377785
   10    3    6    1       -0.0239596191
   10    3   10    1       -0.0108145105
   10    3    2    2       -0.0544278796
   10    3    6    2       -0.0000000002
   10    3    7    2       -0.0341650940
   10    3   10    2       -0.0000000002
   10    3    3    3       -0.0559501644
   10    3    6    3       -0.0052598993
   10    3   10    3        0.0548697408
   10    3    4    4       -0.0438259896
   10    3    8    4        0.0000000003
   10    3    5    5       -0.0438259896
   10    3    9    5        0.0000000003
   10    3    6    6       -0.0585725378
   10    3    7    6       -0.0000000003
   10    3    7    7       -0.0746472054
   10    3    8    8       -0.0739191033
   10    3    9    9       -0.0739191033
    4    4    1    1        0.3328461427
    4    4    3    1       -0.0337059635
    4    4    2    2        0.3339354468
    4    4    3    3        0.3102980882
    4    4    4    4        0.3318481176
    5    4    5    4        0.0143009150
    6    4    4    1       -0.0169393708
    6    4    4    3        0.0044615632
    6    4    6    4        0.0190575290
    7    4    4    2       -0.0159287330
    7    4    7    4        0.0184401699
    8    4    2    1       -0.1481798885
    8    4    7    1       -0.0325865341
    8    4    3    2       -0.0033491247
    8    4    6    2       -0.0579209074
    8    4    3    3        0.0000000001
    8    4    7    3        0.0337771924
    8    4    8    4        0.1293659165
    8    4    6    6       -0.0000000001
    8    4    7    6       -0.1215117332
    8    4    7    7        0.0000000005
    9    4    2    1       -0.0065646104
    9    4    7    1       -0.0014436365
    9    4    3    2       -0.0001483717
    9    4    6    2       -0.0025659905
    9    4    7    3        0.0014963846
    9    4    8    4        0.0052194155
    9    4    9    4        0.0117817123
    9    4    8    5        0.0113192551
    9    4    7    6       -0.0053831677
   10    4    4    1       -0.0069115871
   10    4    8    2        0.0082529376
   10    4    9    2        0.0003656186
   10    4    4    3       -0.0008677343
   10    4    6    4        0.0036077830
   10    4   10    4        0.0075375605
   10    4    8    7       -0.0033780739
   10    4    9    7       -0.0001496542
    5    5    1    1        0.3328461427
    5    5    3    1       -0.0337059635
    5    5    2    2        0.3339354468
    5    5    3    3        0.3102980882
    5    5    4    4        0.3032462875
    5    5    5    5        0.3318481176
    6    5    5    1       -0.0169393708
    6    5    5    3        0.0044615632
    6    5    6    5        0.0190575290
    7    5    5    2       -0.0159287330
    7    5    7    5        0.0184401699
    8    5    2    1        0.0065646104
    8    5    7    1        0.0014436365
    8    5    3    2        0.0001483717
    8    5    6    2        0.0025659905
    8    5    7    3       -0.0014963846
    8    5    8    4       -0.0052194155
    8    5    8    5        0.0117817123
    8    5    7    6        0.0053831677
    9    5    2    1       -0.1481798885
    9    5    7    1       -0.0325865341
    9    5    3    2       -0.0033491247
    9    5    6    2       -0.0579209074
    9    5    3    3        0.0000000001
    9    5    7    3        0.0337771924
    9    5    8    4        0.1062649492
    9    5    9    4        0.0052194155
    9    5    8    5       -0.0052194155
    9    5    9    5        0.1293659165
    9    5    6    6       -0.0000000001
    9    5    7    6       -0.1215117332
    9    5    7    7        0.0000000005
   10    5    5    1       -0.0069115871
   10    5    8    2       -0.0003656186
   10    5    9    2        0.0082529376
   10    5    5    3       -0.0008677343
   10    5    6    5        0.0036077830
   10    5   10    5        0.0075375605
   10    5    8    7        0.0001496542
   10    5    9    7       -0.0033780739
    6    6    1    1        0.3775719626
    6    6    2    1        0.0000000002
    6    6    3    1       -0.0405097087
    6    6    6    1        0.0814197698
    6    6    2    2        0.3834567404
    6    6    6    2        0.0000000002
    6    6    3    3        0.3272133643
    6    6    6    3        0.0174834783
    6    6    4    4        0.3193600203
    6    6    5    5        0.3193600203
    6    6    6    6        0.3796815364
    7    6    1    1       -0.0000000002
    7    6    2    1        0.1819379202
    7    6    7    1        0.0773364014
    7    6    2    2       -0.0000000002
    7    6    3    2        0.0015839677
    7    6    6    2        0.1009015069
    7    6    7    2       -0.0000000001
    7    6    3    3       -0.0000000003
    7    6    6    3       -0.0000000001
    7    6    7    3       -0.0449634094
    7    6    4    4       -0.0000000001
    7    6    5    5       -0.0000000001
    7    6    7    6        0.1765175215
    8    6    8    1        0.0173377218
    8    6    4    2       -0.0081856579
    8    6    5    2        0.0003626380
    8    6    8    3       -0.0026348724
    8    6    7    4       -0.0078123202
    8    6    7    5        0.0003460985
    8    6    8    6        0.0149773490
    9    6    9    1        0.0173377218
    9    6    4    2       -0.0003626380
    9    6    5    2       -0.0081856579
    9    6    9    3       -0.0026348724
    9    6    7    4       -0.0003460985
    9    6    7    5       -0.0078123202
    9    6    9    6        0.0149773490
   10    6    1    1       -0.0070703654
   10    6    2    1        0.0000000002
   10    6    3    1       -0.0258637836
   10    6    6    1       -0.0193282926
   10    6   10    1        0.0208869745
   10    6    2    2       -0.0135531079
   10    6    6    2        0.0000000001
   10    6    7    2       -0.0082764416
   10    6   10    2        0.0000000001
   10    6    3    3        0.0212921360
   10    6    6    3        0.0044945576
   10    6   10    3       -0.0184421662
   10    6    4    4        0.0125663923
   10    6    8    4       -0.0000000001
   10    6    5    5        0.0125663923
   10    6    9    5       -0.0000000001
   10    6    6    6       -0.0013381339
   10    6    7    6        0.0000000002
   10    6   10    6        0.0285323939
   10    6    7    7        0.0014715806
   10    6    8    8        0.0064999213
   10    6    9    9        0.0064999213
    7    7    1    1        0.4146358256
    7    7    2    1       -0.0000000008
    7    7    3    1       -0.0455996923
    7    7    6    1        0.1059461342
    7    7    7    1       -0.0000000004
    7    7    2    2        0.4241893478
    7    7    6    2       -0.0000000003
    7    7    7    2        0.1120667387
    7    7    3    3        0.3448364245
    7    7    6    3        0.0064555238
    7    7    7    3        0.0000000004
    7    7    4    4        0.3422166382
    7    7    5    5        0.3422166382
    7    7    6    6        0.4139564373
    7    7    7    6       -0.0000000009
    7    7    7    7        0.4706087048
    8    7    4    1        0.0027329303
    8    7    5    1       -0.0001210733
    8    7    8    2        0.0067208275
    8    7    4    3        0.0021104335
    8    7    5    3       -0.0000934956
    8    7    6    4       -0.0127168509
    8    7    6    5        0.0005633772
    8    7    8    7        0.0178583189
    9    7    4    1        0.0001210733
    9    7    5    1        0.0027329303
    9    7    9    2        0.0067208275
    9    7    4    3        0.0000934956
    9    7    5    3        0.0021104335
    9    7    6    4       -0.0005633772
    9    7    6    5       -0.0127168509
    9    7    9    7        0.0178583189
   10    7    2    1        0.0083672468
   10    7    3    1        0.0000000001
   10    7    6    1        0.0000000001
   10    7    7    1        0.0039784255
   10    7    2    2        0.0000000001
   10    7    3    2       -0.0194949067
   10    7    6    2       -0.0017312095
   10    7   10    2        0.0208923086
   10    7    7    3       -0.0113287864
   10    7    8    4       -0.0195517555
   10    7    9    4       -0.0008661746
   10    7    8    5        0.0008661746
   10    7    9    5       -0.0195517555
   10    7    7    6        0.0136722870
   10    7   10    7        0.0341369076
    8    8    1    1        0.4133180877
    8    8    3    1       -0.0463712587
    8    8    6    1        0.0827014301
    8    8    2    2        0.4206833530
    8    8    7    2        0.0794861357
    8    8    3    3        0.3530866078
    8    8    6    3        0.0141100033
    8    8    7    3        0.0000000001
    8    8    4    4        0.3734452481
    8    8    5    4       -0.0012372886
    8    8    5    5        0.3455713230
    8    8    6    6        0.3894048191
    8    8    7    6       -0.0000000002
    8    8    7    7        0.4327186000
    8    8    8    8        0.4772643859
    9    8    4    4        0.0012372886
    9    8    5    4        0.0139369626
    9    8    5    5       -0.0012372886
    9    8    9    8        0.0219908801
   10    8    8    1       -0.0098860979
   10    8    4    2        0.0079775607
   10    8    5    2       -0.0003534189
   10    8    8    3       -0.0073604161
   10    8    7    4       -0.0052959153
   10    8    7    5        0.0002346177
   10    8    8    6       -0.0026533113
   10    8   10    8        0.0146081819
    9    9    1    1        0.4133180877
    9    9    3    1       -0.0463712587
    9    9    6    1        0.0827014301
    9    9    2    2        0.4206833530
    9    9    7    2        0.0794861357
    9    9    3    3        0.3530866078
    9    9    6    3        0.0141100033
    9    9    7    3        0.0000000001
    9    9    4    4        0.3455713230
    9    9    5    4        0.0012372886
    9    9    5    5        0.3734452481
    9    9    6    6        0.3894048191
    9    9    7    6       -0.0000000002
    9    9    7    7        0.4327186000
    9    9    8    8        0.4332826259
    9    9    9    9        0.4772643859
   10    9    9    1       -0.0098860979
   10    9    4    2        0.0003534189
   10    9    5    2        0.0079775607
   10    9    9    3       -0.0073604161
   10    9    7    4       -0.0002346177
   10    9    7    5       -0.0052959153
   10    9    9    6       -0.0026533113
   10    9   10    9        0.0146081819
   10   10    1    1        0.3861018356
   10   10    2    1        0.0000000002
   10   10    3    1       -0.0546104570
   10   10    6    1        0.0720115506
   10   10    7    1        0.0000000002
   10   10   10    1        0.0145862330
   10   10    2    2        0.3889747863
   10   10    3    2       -0.0000000002
   10   10    6    2        0.0000000003
   10   10    7    2        0.0790556760
   10   10   10    2        0.0000000003
   10   10    3    3        0.3725397057
   10   10    6    3        0.0134506602
   10   10   10    3       -0.0851602670
   10   10    4    4        0.3314592933
   10   10    8    4       -0.0000000002
   10   10    5    5        0.3314592933
   10   10    9    5       -0.0000000002
   10   10    6    6        0.3719796979
   10   10    7    6        0.0000000001
   10   10   10    6        0.0201867206
   10   10    7    7        0.4126040471
   10   10   10    7        0.0000000003
   10   10    8    8        0.4070505218
   10   10    9    9        0.4070505218
   10   10   10   10        0.4360758736
 end_two_electron_integrals
 enrep_tce =   0.18867924528301885     
  EHF(A)             =        -0.82272158
  EHF(total)         =        -0.82272158
  Shift (HFtot-HFA)  =        -0.00000000
 Cpu & wall time / sec            1.6            1.7
 T1-number-of-tasks                    9

 t1 file size   =                9
 t1 file name   = ./H2.t1
 t1 file handle =       -998
 T2-number-of-boxes                  126

 t2 file size   =              126
 t2 file name   = ./H2.t2
 t2 file handle =       -996
CCSD iterations
 ---------------------------------------------------------
 Iter          Residuum       Correlation     Cpu    Wall 
 ---------------------------------------------------------
NEW TASK SCHEDULING
CCSD_T1_NTS --- OK
CCSD_T2_NTS --- OK
    1   0.8483607232023  -0.2696698872341     0.2     0.5
    2   3.4987436715831   0.1338214684535     0.5     0.5
    3  24.5742053168581  -1.2952770956524     0.3     0.5
    4 488.6736724368178  13.0537632192190     0.3     0.5
    5******************3783.3716341096369     0.5     0.6
 MICROCYCLE DIIS UPDATE:                    5                    5
    6   0.1716245141074  -0.1833550385117     0.4     0.5
    7   0.6936673666450  -0.1921051617850     0.4     0.6
    8   3.2242955194931  -0.0544216325748     0.4     0.5
    9  20.3125513181170  -0.8118268859345     0.3     0.5
   10 895.6241915950421   8.3802393055875     0.5     0.5
 MICROCYCLE DIIS UPDATE:                   10                    5
   11   0.0415337865737  -0.1781692780718     0.3     0.5
   12   0.2609356453537  -0.1869731425529     0.3     0.5
   13   1.7495165454056  -0.1433553556487     0.4     0.5
   14  11.8912028621296  -0.2753006754314     0.5     0.5
   15 187.9412767941079   2.6562888731561     0.5     0.5
 MICROCYCLE DIIS UPDATE:                   15                    5
   16   0.0069111649829  -0.1795542778679     0.5     0.6
   17   0.0488035533040  -0.1790522785880     0.4     0.5
   18   0.3492557123111  -0.1810012813633     0.6     0.6
   19   2.4638778916994  -0.1625465160616     0.3     0.5
   20  17.6507025146325  -0.1299612334094     0.3     0.6
 MICROCYCLE DIIS UPDATE:                   20                    5
   21   0.0002882133026  -0.1793912601568     0.4     0.5
   22   0.0018021425622  -0.1793073930956     0.4     0.6
   23   0.0126307438405  -0.1794470511458     0.3     0.5
   24   0.0898528321082  -0.1790752836728     0.5     0.5
   25   0.6400159252963  -0.1790968540995     0.4     0.5
 MICROCYCLE DIIS UPDATE:                   25                    5
   26   0.0000078157310  -0.1793521242272     0.5     0.5
   27   0.0000373651493  -0.1793464548564     0.5     0.5
   28   0.0002428220188  -0.1793628927782     0.4     0.5
   29   0.0016754948527  -0.1793056294498     0.4     0.5
   30   0.0117959908675  -0.1795144455046     0.4     0.5
 MICROCYCLE DIIS UPDATE:                   30                    5
   31   0.0000001102227  -0.1793504462088     0.4     0.5
   32   0.0000004193165  -0.1793503695030     0.4     0.5
   33   0.0000024952084  -0.1793506270055     0.4     0.5
   34   0.0000182820704  -0.1793492487769     0.3     0.5
   35   0.0001339312073  -0.1793576174042     0.4     0.5
 MICROCYCLE DIIS UPDATE:                   35                    5
   36   0.0000000042866  -0.1793504203946     0.5     0.5
 -----------------------------------------------------------------
 Iterations converged
 CCSD correlation energy / hartree =        -0.179350420394590
 CCSD total energy / hartree       =        -1.002071998994885

 Singles contributions

 Doubles contributions
     2a   (alpha)     2a   (beta ) ---     1a   (alpha)     1a   (beta )       -0.8096522907
 Ground state specification:
 exp(T)|Ref>~(1+T)|Ref>
 ------- a(p)+/a(q) strings ----------

 singles norm

 doubles norm

 Reference string
  0.77719603515160840      :(1a)+ (1b)+ |0>

 Singles strings

 Doubles strings
 -0.62925855015614984      :(2a)+ (2b)+ (1b)  (1a)  (1a)+ (1b)+ |0>
 -------------------------------------

 Parallel integral file used      13 records with       0 large values


 Task  times  cpu:       16.8s     wall:       21.8s


                                NWChem Input Module
                                -------------------


 Summary of allocated global arrays
-----------------------------------
  No active global arrays


MA_summarize_allocated_blocks: starting scan ...
MA_summarize_allocated_blocks: scan completed: 0 heap blocks, 0 stack blocks
MA usage statistics:

	allocation statistics:
					      heap	     stack
					      ----	     -----
	current number of blocks	         0	         0
	maximum number of blocks	        18	        42
	current total bytes		         0	         0
	maximum total bytes		  51983048	  61995224
	maximum total K-bytes		     51984	     61996
	maximum total M-bytes		        52	        62


                                     CITATION
                                     --------
                Please cite the following reference when publishing
                           results obtained with NWChem:

          E. Apra, E. J. Bylaska, W. A. de Jong, N. Govind, K. Kowalski,
       T. P. Straatsma, M. Valiev, H. J. J. van Dam, Y. Alexeev, J. Anchell,
       V. Anisimov, F. W. Aquino, R. Atta-Fynn, J. Autschbach, N. P. Bauman,
     J. C. Becca, D. E. Bernholdt, K. Bhaskaran-Nair, S. Bogatko, P. Borowski,
         J. Boschen, J. Brabec, A. Bruner, E. Cauet, Y. Chen, G. N. Chuev,
      C. J. Cramer, J. Daily, M. J. O. Deegan, T. H. Dunning Jr., M. Dupuis,
   K. G. Dyall, G. I. Fann, S. A. Fischer, A. Fonari, H. Fruchtl, L. Gagliardi,
      J. Garza, N. Gawande, S. Ghosh, K. Glaesemann, A. W. Gotz, J. Hammond,
       V. Helms, E. D. Hermes, K. Hirao, S. Hirata, M. Jacquelin, L. Jensen,
   B. G. Johnson, H. Jonsson, R. A. Kendall, M. Klemm, R. Kobayashi, V. Konkov,
      S. Krishnamoorthy, M. Krishnan, Z. Lin, R. D. Lins, R. J. Littlefield,
      A. J. Logsdail, K. Lopata, W. Ma, A. V. Marenich, J. Martin del Campo,
   D. Mejia-Rodriguez, J. E. Moore, J. M. Mullin, T. Nakajima, D. R. Nascimento,
    J. A. Nichols, P. J. Nichols, J. Nieplocha, A. Otero-de-la-Roza, B. Palmer,
    A. Panyala, T. Pirojsirikul, B. Peng, R. Peverati, J. Pittner, L. Pollack,
   R. M. Richard, P. Sadayappan, G. C. Schatz, W. A. Shelton, D. W. Silverstein,
   D. M. A. Smith, T. A. Soares, D. Song, M. Swart, H. L. Taylor, G. S. Thomas,
            V. Tipparaju, D. G. Truhlar, K. Tsemekhman, T. Van Voorhis,
      A. Vazquez-Mayagoitia, P. Verma, O. Villa, A. Vishnu, K. D. Vogiatzis,
        D. Wang, J. H. Weare, M. J. Williamson, T. L. Windus, K. Wolinski,
        A. T. Wong, Q. Wu, C. Yang, Q. Yu, M. Zacharias, Z. Zhang, Y. Zhao,
                                and R. J. Harrison
                        "NWChem: Past, present, and future
                         J. Chem. Phys. 152, 184102 (2020)
                               doi:10.1063/5.0004997

                                      AUTHORS
                                      -------
  E. Apra, E. J. Bylaska, N. Govind, K. Kowalski, M. Valiev, D. Mejia-Rodriguez,
       A. Kunitsa, N. P. Bauman, A. Panyala, W. A. de Jong, T. P. Straatsma,
        H. J. J. van Dam, D. Wang, T. L. Windus, J. Hammond, J. Autschbach,
    K. Bhaskaran-Nair, J. Brabec, K. Lopata, S. A. Fischer, S. Krishnamoorthy,
     M. Jacquelin, W. Ma, M. Klemm, O. Villa, Y. Chen, V. Anisimov, F. Aquino,
    S. Hirata, M. T. Hackler, Eric Hermes, L. Jensen, J. E. Moore, J. C. Becca,
      V. Konjkov, T. Risthaus, M. Malagoli, A. Marenich, A. Otero-de-la-Roza,
        J. Mullin, P. Nichols, R. Peverati, J. Pittner, Y. Zhao, P.-D. Fan,
        A. Fonari, M. J. Williamson, R. J. Harrison, J. R. Rehr, M. Dupuis,
     D. Silverstein, D. M. A. Smith, J. Nieplocha, V. Tipparaju, M. Krishnan,
     B. E. Van Kuiken, A. Vazquez-Mayagoitia, M. Swart, Q. Wu, T. Van Voorhis,
     A. A. Auer, M. Nooijen, L. D. Crosby, E. Brown, G. Cisneros, G. I. Fann,
   H. Fruchtl, J. Garza, K. Hirao, R. A. Kendall, J. A. Nichols, K. Tsemekhman,
    K. Wolinski, J. Anchell, D. E. Bernholdt, P. Borowski, T. Clark, D. Clerc,
   H. Dachsel, M. J. O. Deegan, K. Dyall, D. Elwood, E. Glendening, M. Gutowski,
   A. C. Hess, J. Jaffe, B. G. Johnson, J. Ju, R. Kobayashi, R. Kutteh, Z. Lin,
   R. Littlefield, X. Long, B. Meng, T. Nakajima, S. Niu, L. Pollack, M. Rosing,
   K. Glaesemann, G. Sandrone, M. Stave, H. Taylor, G. Thomas, J. H. van Lenthe,
                               A. T. Wong, Z. Zhang.

 Total times  cpu:       18.7s     wall:       23.9s
