 argument  1 = input.nw
  NWChem w/ OpenMP: maximum threads =    1



============================== echo of input deck ==============================

echo
start H4
title "H4"

memory total 12 gb

geometry units bohr
symmetry c1
H 0 0 0
H 0 0 2.42
H 0 0 4.84
H 0 0 7.26
end

basis spherical
  * library cc-pVTZ
end

scf
  vectors input H4.mos
  vectors output H4.mos
end

tce
  2eorb
  2emet 13
  ccsd
  maxiter 300
end

set tce:print_integrals T
set tce:qorb 4
set tce:qela 2
set tce:qelb 2

# set tce:qducc T
# set tce:nactv 3
# set tce:nonhf T
# set tce:ducc_model 6

set tce:printtol 0.02

task tce
================================================================================


                                         
                                         


             Northwest Computational Chemistry Package (NWChem) 7.0.1
             --------------------------------------------------------


                    Environmental Molecular Sciences Laboratory
                       Pacific Northwest National Laboratory
                                Richland, WA 99352

                              Copyright (c) 1994-2020
                       Pacific Northwest National Laboratory
                            Battelle Memorial Institute

             NWChem is an open-source computational chemistry package
                        distributed under the terms of the
                      Educational Community License (ECL) 2.0
             A copy of the license is included with this distribution
                              in the LICENSE.TXT file

                                  ACKNOWLEDGMENT
                                  --------------

            This software and its documentation were developed at the
            EMSL at Pacific Northwest National Laboratory, a multiprogram
            national laboratory, operated for the U.S. Department of Energy
            by Battelle under Contract Number DE-AC05-76RL01830. Support
            for this work was provided by the Department of Energy Office
            of Biological and Environmental Research, Office of Basic
            Energy Sciences, and the Office of Advanced Scientific Computing.


           Job information
           ---------------

    hostname        = WE46210
    program         = /home/baum612/code/nwchem/bin/LINUX64/nwchem
    date            = Thu Oct 31 14:11:50 2024

    compiled        = Wed_Sep_04_02:00:17_2024
    source          = /home/baum612/code/nwchem
    nwchem branch   = 7.0.0
    nwchem revision = nwchem_on_git-4191-g39d87d64de
    ga revision     = 5.8.1
    use scalapack   = F
    input           = input.nw
    prefix          = H4.
    data base       = ./H4.db
    status          = startup
    nproc           =        1
    time left       =     -1s



           Memory information
           ------------------

    heap     =  402653178 doubles =   3072.0 Mbytes
    stack    =  402653183 doubles =   3072.0 Mbytes
    global   =  805306368 doubles =   6144.0 Mbytes (distinct from heap & stack)
    total    = 1610612729 doubles =  12288.0 Mbytes
    verify   = yes
    hardfail = no 


           Directory information
           ---------------------

  0 permanent = .
  0 scratch   = .




                                NWChem Input Module
                                -------------------


                                        H4
                                        --
 Turning off AUTOSYM since
 SYMMETRY directive was detected!


          ------
          auto-z
          ------
     1 autoz failed with cvr_scaling = 1.2 changing to 1.3
     2 autoz failed with cvr_scaling = 1.3 changing to 1.4
     3 autoz failed with cvr_scaling = 1.4 changing to 1.5
     4 autoz failed with cvr_scaling = 1.5 changing to 1.6
     5 autoz failed with cvr_scaling = 1.6 changing to 1.7
  autoz: angle generation failed due to 4 colinear atoms                     1                    2                    3                    4

 AUTOZ failed to generate good internal coordinates.
 Cartesian coordinates will be used in optimizations.



                             Geometry "geometry" -> ""
                             -------------------------

 Output coordinates in a.u. (scale by  1.000000000 to convert to a.u.)

  No.       Tag          Charge          X              Y              Z
 ---- ---------------- ---------- -------------- -------------- --------------
    1 H                    1.0000     0.00000000     0.00000000    -3.63000000
    2 H                    1.0000     0.00000000     0.00000000    -1.21000000
    3 H                    1.0000     0.00000000     0.00000000     1.21000000
    4 H                    1.0000     0.00000000     0.00000000     3.63000000

      Atomic Mass 
      ----------- 

      H                  1.007825


 Effective nuclear repulsion energy (a.u.)       1.7906336088

            Nuclear Dipole moment (a.u.) 
            ----------------------------
        X                 Y               Z
 ---------------- ---------------- ----------------
     0.0000000000     0.0000000000    -0.0000000000


            XYZ format geometry
            -------------------
     4
 geometry
 H                     0.00000000     0.00000000    -1.92091341
 H                     0.00000000     0.00000000    -0.64030447
 H                     0.00000000     0.00000000     0.64030447
 H                     0.00000000     0.00000000     1.92091341



 Summary of "ao basis" -> "" (spherical)
 ------------------------------------------------------------------------------
       Tag                 Description            Shells   Functions and Types
 ---------------- ------------------------------  ------  ---------------------
 *                          cc-pVTZ                   on all atoms 


                      Basis "ao basis" -> "ao basis" (spherical)
                      -----
  H (Hydrogen)
  ------------
            Exponent  Coefficients 
       -------------- ---------------------------------------------------------
  1 S  3.38700000E+01  0.006068
  1 S  5.09500000E+00  0.045308
  1 S  1.15900000E+00  0.202822

  2 S  3.25800000E-01  1.000000

  3 S  1.02700000E-01  1.000000

  4 P  1.40700000E+00  1.000000

  5 P  3.88000000E-01  1.000000

  6 D  1.05700000E+00  1.000000



 Summary of "ao basis" -> "ao basis" (spherical)
 ------------------------------------------------------------------------------
       Tag                 Description            Shells   Functions and Types
 ---------------- ------------------------------  ------  ---------------------
 H                          cc-pVTZ                  6       14   3s2p1d


                                 NWChem SCF Module
                                 -----------------


                                        H4



  ao basis        = "ao basis"
  functions       =    56
  atoms           =     4
  closed shells   =     2
  open shells     =     0
  charge          =   0.00
  wavefunction    = RHF 
  input vectors   = ./H4.mos
  output vectors  = ./H4.mos
  use symmetry    = F
  symmetry adapt  = F


 Summary of "ao basis" -> "ao basis" (spherical)
 ------------------------------------------------------------------------------
       Tag                 Description            Shells   Functions and Types
 ---------------- ------------------------------  ------  ---------------------
 H                          cc-pVTZ                  6       14   3s2p1d



 Forming initial guess at       0.0s


 Loading old vectors from job with title :

H4


 Starting SCF solution at       0.0s



 ----------------------------------------------
         Quadratically convergent ROHF

 Convergence threshold     :          1.000E-04
 Maximum no. of iterations :           30
 Final Fock-matrix accuracy:          1.000E-07
 ----------------------------------------------


 Integral file          = ./H4.aoints.0
 Record size in doubles =  65536        No. of integs per rec  =  43688
 Max. records in memory =     43        Max. records in file   = 230136
 No. of bits per label  =      8        No. of bits per value  =     64


 #quartets = 4.127D+04 #integrals = 2.409D+05 #direct =  0.0% #cached =100.0%


              iter       energy          gnorm     gmax       time
             ----- ------------------- --------- --------- --------
                 1       -2.0856719056  6.37D-03  4.40D-03      0.1
                 2       -2.0856750714  9.91D-06  4.60D-06      0.1


       Final RHF  results 
       ------------------ 

         Total SCF energy =     -2.085675071369
      One-electron energy =     -5.803584196210
      Two-electron energy =      1.927275516026
 Nuclear repulsion energy =      1.790633608815

        Time for solution =      0.1s


             Final eigenvalues
             -----------------

              1      
    1   -0.5600
    2   -0.4145
    3    0.0122
    4    0.2014
    5    0.3466
    6    0.4415
    7    0.4603
    8    0.5882
    9    0.5952
   10    0.5952
   11    0.7066
   12    0.7066

                       ROHF Final Molecular Orbital Analysis
                       -------------------------------------

 Vector    1  Occ=2.000000D+00  E=-5.600117D-01
              MO Center= -6.4D-17,  1.3D-16,  3.6D-12, r^2= 2.1D+00
   Bfn.  Coefficient  Atom+Function         Bfn.  Coefficient  Atom+Function  
  ----- ------------  ---------------      ----- ------------  ---------------
    16      0.227243  2 H  s                 30      0.227243  3 H  s          
     2      0.160049  1 H  s                 44      0.160049  4 H  s          

 Vector    2  Occ=2.000000D+00  E=-4.145048D-01
              MO Center= -2.8D-16,  4.4D-16, -4.8D-12, r^2= 3.5D+00
   Bfn.  Coefficient  Atom+Function         Bfn.  Coefficient  Atom+Function  
  ----- ------------  ---------------      ----- ------------  ---------------
     2      0.229024  1 H  s                 44     -0.229024  4 H  s          
    17      0.224367  2 H  s                 31     -0.224367  3 H  s          
     3      0.195759  1 H  s                 45     -0.195759  4 H  s          
    16      0.174424  2 H  s                 30     -0.174424  3 H  s          

 Vector    3  Occ=0.000000D+00  E= 1.218084D-02
              MO Center=  4.1D-17, -5.0D-17,  1.2D-11, r^2= 4.7D+00
   Bfn.  Coefficient  Atom+Function         Bfn.  Coefficient  Atom+Function  
  ----- ------------  ---------------      ----- ------------  ---------------
     3      0.671424  1 H  s                 45      0.671424  4 H  s          
    17     -0.417767  2 H  s                 31     -0.417767  3 H  s          
     2      0.159650  1 H  s                 44      0.159650  4 H  s          
    16     -0.151034  2 H  s                 30     -0.151034  3 H  s          

 Vector    4  Occ=0.000000D+00  E= 2.014494D-01
              MO Center=  2.6D-16,  2.5D-16,  1.6D-11, r^2= 7.3D+00
   Bfn.  Coefficient  Atom+Function         Bfn.  Coefficient  Atom+Function  
  ----- ------------  ---------------      ----- ------------  ---------------
    17      2.171178  2 H  s                 31     -2.171178  3 H  s          
     3     -1.513742  1 H  s                 45      1.513742  4 H  s          
     2      0.166203  1 H  s                 44     -0.166203  4 H  s          
    16      0.158785  2 H  s                 30     -0.158785  3 H  s          

 Vector    5  Occ=0.000000D+00  E= 3.465758D-01
              MO Center= -1.2D-16, -2.0D-16, -2.2D-11, r^2= 5.1D+00
   Bfn.  Coefficient  Atom+Function         Bfn.  Coefficient  Atom+Function  
  ----- ------------  ---------------      ----- ------------  ---------------
     2      0.682453  1 H  s                 44      0.682453  4 H  s          
     3     -0.667267  1 H  s                 45     -0.667267  4 H  s          
    16      0.594725  2 H  s                 30      0.594725  3 H  s          
    17     -0.494296  2 H  s                 31     -0.494296  3 H  s          

 Vector    6  Occ=0.000000D+00  E= 4.414579D-01
              MO Center=  1.5D-16,  1.4D-16, -1.7D-10, r^2= 5.6D+00
   Bfn.  Coefficient  Atom+Function         Bfn.  Coefficient  Atom+Function  
  ----- ------------  ---------------      ----- ------------  ---------------
     2      0.932500  1 H  s                 44     -0.932500  4 H  s          
    17     -0.775782  2 H  s                 31      0.775782  3 H  s          
     3     -0.729081  1 H  s                 45      0.729081  4 H  s          

 Vector    7  Occ=0.000000D+00  E= 4.603452D-01
              MO Center= -3.4D-17, -5.6D-17,  2.1D-10, r^2= 5.8D+00
   Bfn.  Coefficient  Atom+Function         Bfn.  Coefficient  Atom+Function  
  ----- ------------  ---------------      ----- ------------  ---------------
     3      1.325135  1 H  s                 45      1.325135  4 H  s          
    17     -1.251078  2 H  s                 31     -1.251078  3 H  s          
    16      0.761726  2 H  s                 30      0.761726  3 H  s          
     2     -0.639043  1 H  s                 44     -0.639043  4 H  s          

 Vector    8  Occ=0.000000D+00  E= 5.882020D-01
              MO Center= -4.1D-16, -8.4D-17, -4.4D-11, r^2= 4.7D+00
   Bfn.  Coefficient  Atom+Function         Bfn.  Coefficient  Atom+Function  
  ----- ------------  ---------------      ----- ------------  ---------------
    17      4.070196  2 H  s                 31     -4.070196  3 H  s          
     3     -1.501758  1 H  s                 45      1.501758  4 H  s          
    16     -1.203406  2 H  s                 30      1.203406  3 H  s          
     2      0.206170  1 H  s                 44     -0.206170  4 H  s          

 Vector    9  Occ=0.000000D+00  E= 5.952173D-01
              MO Center=  1.6D-16,  1.5D-16,  5.5D-12, r^2= 2.1D+00
   Bfn.  Coefficient  Atom+Function         Bfn.  Coefficient  Atom+Function  
  ----- ------------  ---------------      ----- ------------  ---------------
    21      0.442020  2 H  px                35      0.442020  3 H  px         
     7      0.274544  1 H  px                49      0.274544  4 H  px         
    22      0.253582  2 H  py                36      0.253582  3 H  py         
     8      0.157503  1 H  py                50      0.157503  4 H  py         

 Vector   10  Occ=0.000000D+00  E= 5.952173D-01
              MO Center= -4.8D-17,  4.5D-17,  5.5D-12, r^2= 2.1D+00
   Bfn.  Coefficient  Atom+Function         Bfn.  Coefficient  Atom+Function  
  ----- ------------  ---------------      ----- ------------  ---------------
    22      0.442020  2 H  py                36      0.442020  3 H  py         
     8      0.274544  1 H  py                50      0.274544  4 H  py         
    21     -0.253582  2 H  px                35     -0.253582  3 H  px         
     7     -0.157503  1 H  px                49     -0.157503  4 H  px         

 Vector   11  Occ=0.000000D+00  E= 7.066085D-01
              MO Center= -1.7D-16, -2.3D-16, -2.7D-12, r^2= 3.7D+00
   Bfn.  Coefficient  Atom+Function         Bfn.  Coefficient  Atom+Function  
  ----- ------------  ---------------      ----- ------------  ---------------
     8      0.535544  1 H  py                50     -0.535544  4 H  py         
    22      0.321668  2 H  py                36     -0.321668  3 H  py         
     7      0.241545  1 H  px                49     -0.241545  4 H  px         

 Vector   12  Occ=0.000000D+00  E= 7.066085D-01
              MO Center=  1.1D-15, -5.4D-16, -2.7D-12, r^2= 3.7D+00
   Bfn.  Coefficient  Atom+Function         Bfn.  Coefficient  Atom+Function  
  ----- ------------  ---------------      ----- ------------  ---------------
     7      0.535544  1 H  px                49     -0.535544  4 H  px         
    21      0.321668  2 H  px                35     -0.321668  3 H  px         
     8     -0.241545  1 H  py                50      0.241545  4 H  py         


 center of mass
 --------------
 x =   0.00000000 y =   0.00000000 z =   0.00000000

 moments of inertia (a.u.)
 ------------------
          29.511131650000           0.000000000000           0.000000000000
           0.000000000000          29.511131650000           0.000000000000
           0.000000000000           0.000000000000           0.000000000000

  Mulliken analysis of the total density
  --------------------------------------

    Atom       Charge   Shell Charges
 -----------   ------   -------------------------------------------------------
    1 H    1     0.97   0.15  0.45  0.35  0.00  0.01  0.00
    2 H    1     1.03   0.16  0.48  0.36  0.00  0.02  0.00
    3 H    1     1.03   0.16  0.48  0.36  0.00  0.02  0.00
    4 H    1     0.97   0.15  0.45  0.35  0.00  0.01  0.00

       Multipole analysis of the density wrt the origin
       ------------------------------------------------

     L   x y z        total         open         nuclear
     -   - - -        -----         ----         -------
     0   0 0 0     -0.000000      0.000000      4.000000

     1   1 0 0      0.000000      0.000000      0.000000
     1   0 1 0     -0.000000      0.000000      0.000000
     1   0 0 1      0.000000      0.000000     -0.000000

     2   2 0 0     -4.098600      0.000000      0.000000
     2   1 1 0      0.000000      0.000000      0.000000
     2   1 0 1      0.000000      0.000000      0.000000
     2   0 2 0     -4.098600      0.000000      0.000000
     2   0 1 1     -0.000000      0.000000      0.000000
     2   0 0 2     -2.013707      0.000000     29.282000


 Parallel integral file used       6 records with       0 large values

 ------------------------------------
     Number of active orbitals      4
     Number of active alpha electrons      2
     Number of active beta electrons       2
 ------------------------------------
                   NWChem Extensible Many-Electron Theory Module
                   ---------------------------------------------

              ======================================================
                   This portion of the program was automatically
                  generated by a Tensor Contraction Engine (TCE).
                  The development of this portion of the program
                 and TCE was supported by US Department of Energy,
                Office of Science, Office of Basic Energy Science.
                      TCE is a product of Battelle and PNNL.
              Please cite: S.Hirata, J.Phys.Chem.A 107, 9887 (2003).
              ======================================================

                                        H4


            General Information
            -------------------
      Number of processors :     1
         Wavefunction type : Restricted Hartree-Fock
          No. of electrons :     4
           Alpha electrons :     2
            Beta electrons :     2
           No. of orbitals :   112
            Alpha orbitals :    56
             Beta orbitals :    56
        Alpha frozen cores :     0
         Beta frozen cores :     0
     Alpha frozen virtuals :    52
      Beta frozen virtuals :    52
         Spin multiplicity : singlet 
    Number of AO functions :    56
       Number of AO shells :    24
        Use of symmetry is : off
      Symmetry adaption is : off
         Schwarz screening : 0.10D-09

          Correlation Information
          -----------------------
          Calculation type : Coupled-cluster singles & doubles                           
   Perturbative correction : none                                                        
            Max iterations :      300
        Residual threshold : 0.10D-06
     T(0) DIIS level shift : 0.00D+00
     L(0) DIIS level shift : 0.00D+00
     T(1) DIIS level shift : 0.00D+00
     L(1) DIIS level shift : 0.00D+00
     T(R) DIIS level shift : 0.00D+00
     T(I) DIIS level shift : 0.00D+00
   CC-T/L Amplitude update :  5-th order DIIS
                I/O scheme : Global Array Library
        L-threshold :  0.10D-06
        EOM-threshold :  0.10D-06
 no EOMCCSD initial starts read in
 TCE RESTART OPTIONS
 READ_INT:   F
 WRITE_INT:  F
 READ_TA:    F
 WRITE_TA:   F
 READ_XA:    F
 WRITE_XA:   F
 READ_IN3:   F
 WRITE_IN3:  F
 SLICE:      F
 D4D5:       F
 quantumc:   T
 qrotation:  F
 pwtce:      F
 qducc:      F
 nacto:                         0
 nrotv:                         0
 nrot:                          0

            Memory Information
            ------------------
          Available GA space size is     805303232 doubles
          Available MA space size is     805304260 doubles

 Maximum block size supplied by input
 Maximum block size         1 doubles

 tile_dim =      1

 Block   Spin    Irrep     Size     Offset   Alpha
 -------------------------------------------------
   1    alpha     a      1 doubles       0       1
   2    alpha     a      1 doubles       1       2
   3    beta      a      1 doubles       2       1
   4    beta      a      1 doubles       3       2
   5    alpha     a      1 doubles       4       5
   6    alpha     a      1 doubles       5       6
   7    beta      a      1 doubles       6       5
   8    beta      a      1 doubles       7       6

 Global array virtual files algorithm will be used

 Parallel file system coherency ......... OK

 Integral file          = ./H4.aoints.0
 Record size in doubles =  65536        No. of integs per rec  =  43688
 Max. records in memory =     43        Max. records in file   = 230136
 No. of bits per label  =      8        No. of bits per value  =     64


 #quartets = 4.218D+04 #integrals = 2.769D+05 #direct =  0.0% #cached =100.0%


 Fock matrix recomputed
 1-e file size   =               16
 1-e file name   = ./H4.f1
 Cpu & wall time / sec            0.1            0.1
 4-electron integrals stored in orbital form

 v2    file size   =               55
 4-index algorithm nr.  13 is used
 imaxsize =       30
 imaxsize ichop =        0
 begin_one_electron_integrals
    1    1        -1.5485366925
    3    1         0.1340048298
    2    2        -1.3532554056
    4    2        -0.1423783153
    1    3         0.1340048298
    3    3        -1.1126235917
    2    4        -0.1423783153
    4    4        -0.7981469738
 end_one_electron_integrals
 begin_two_electron_integrals
    1    1    1    1        0.4100229104
    2    1    2    1        0.1357646146
    3    1    1    1       -0.0654459254
    3    1    3    1        0.0749265169
    3    1    2    2       -0.0009250805
    4    1    2    1        0.0390444742
    4    1    4    1        0.0380292345
    4    1    3    2       -0.0155136819
    2    2    1    1        0.3571333333
    2    2    2    2        0.3602483100
    3    2    2    1        0.0667088582
    3    2    3    2        0.0781530771
    4    2    1    1        0.0722941595
    4    2    3    1       -0.0441400594
    4    2    2    2        0.0368332678
    4    2    4    2        0.0427796993
    4    2    3    3        0.0217070306
    3    3    1    1        0.3257171446
    3    3    3    1       -0.0148763570
    3    3    2    2        0.3132248783
    3    3    3    3        0.3016221110
    4    3    2    1       -0.0731844989
    4    3    4    1       -0.0090846147
    4    3    3    2       -0.0487770508
    4    3    4    3        0.0649397706
    4    4    1    1        0.2759025372
    4    4    3    1       -0.0145094895
    4    4    2    2        0.2643001286
    4    4    4    2        0.0181839806
    4    4    3    3        0.2553844531
    4    4    4    4        0.2414414181
 end_two_electron_integrals
 enrep_tce =    1.7906336088154267     
  EHF(A)             =        -2.08567526
  EHF(total)         =        -2.08567507
  Shift (HFtot-HFA)  =         0.00000019
 Cpu & wall time / sec            0.8            0.8
 T1-number-of-tasks                    4

 t1 file size   =                4
 t1 file name   = ./H4.t1
 t1 file handle =       -998
 T2-number-of-boxes                   25

 t2 file size   =               25
 t2 file name   = ./H4.t2
 t2 file handle =       -996
CCSD iterations
 ---------------------------------------------------------
 Iter          Residuum       Correlation     Cpu    Wall 
 ---------------------------------------------------------
NEW TASK SCHEDULING
CCSD_T1_NTS --- OK
CCSD_T2_NTS --- OK
    1   0.0555256478380  -0.0195603070001     0.1     0.1
    2   0.0250122432875  -0.0266773249268     0.1     0.1
    3   0.0129278554411  -0.0296042183571     0.1     0.1
    4   0.0075300457341  -0.0309049307761     0.0     0.1
    5   0.0047434111414  -0.0315274770564     0.1     0.1
 MICROCYCLE DIIS UPDATE:                    5                    5
    6   0.0001036194926  -0.0323162142351     0.1     0.1
    7   0.0000232712254  -0.0323186542718     0.1     0.1
    8   0.0000086675806  -0.0323194160501     0.1     0.2
    9   0.0000031766730  -0.0323199158125     0.1     0.1
   10   0.0000013348784  -0.0323201108948     0.1     0.1
 MICROCYCLE DIIS UPDATE:                   10                    5
   11   0.0000001926521  -0.0323202403948     0.1     0.1
   12   0.0000001380741  -0.0323202583727     0.1     0.2
   13   0.0000000928792  -0.0323202683563     0.1     0.2
 -----------------------------------------------------------------
 Iterations converged
 CCSD correlation energy / hartree =        -0.032320268356321
 CCSD total energy / hartree       =        -2.117995339724842

 Singles contributions
     4a   (alpha) ---     2a   (alpha)       -0.0228708751

 Doubles contributions
     3a   (alpha)     4a   (alpha) ---     1a   (alpha)     2a   (alpha)        0.0365291788
     3a   (alpha)     3a   (beta ) ---     1a   (alpha)     1a   (beta )       -0.0703720787
     3a   (alpha)     3a   (beta ) ---     2a   (alpha)     2a   (beta )       -0.1896675111
     3a   (alpha)     4a   (beta ) ---     1a   (alpha)     2a   (beta )        0.0685879963
     3a   (alpha)     4a   (beta ) ---     2a   (alpha)     1a   (beta )        0.0320588175
     4a   (alpha)     3a   (beta ) ---     1a   (alpha)     2a   (beta )        0.0320588175
     4a   (alpha)     3a   (beta ) ---     2a   (alpha)     1a   (beta )        0.0685879963
     4a   (alpha)     4a   (beta ) ---     1a   (alpha)     1a   (beta )       -0.0394814097
     4a   (alpha)     4a   (beta ) ---     2a   (alpha)     2a   (beta )       -0.0368552015
 Ground state specification:
 exp(T)|Ref>~(1+T)|Ref>
 ------- a(p)+/a(q) strings ----------

 singles norm

 doubles norm

 Reference string
  0.98248430495100803      :(1a)+ (2a)+ (1b)+ (2b)+ |0>

 Singles strings

 Doubles strings
 -0.18634535283965306      :(3a)+ (3b)+ (2b)  (2a)  (1a)+ (2a)+ (1b)+ (2b)+ |0>
 -------------------------------------

 Parallel integral file used       7 records with       0 large values


 Task  times  cpu:        2.1s     wall:        2.8s


                                NWChem Input Module
                                -------------------


 Summary of allocated global arrays
-----------------------------------
  No active global arrays


MA_summarize_allocated_blocks: starting scan ...
MA_summarize_allocated_blocks: scan completed: 0 heap blocks, 0 stack blocks
MA usage statistics:

	allocation statistics:
					      heap	     stack
					      ----	     -----
	current number of blocks	         0	         0
	maximum number of blocks	        17	        42
	current total bytes		         0	         0
	maximum total bytes		  22559264	  29736792
	maximum total K-bytes		     22560	     29737
	maximum total M-bytes		        23	        30


                                     CITATION
                                     --------
                Please cite the following reference when publishing
                           results obtained with NWChem:

          E. Apra, E. J. Bylaska, W. A. de Jong, N. Govind, K. Kowalski,
       T. P. Straatsma, M. Valiev, H. J. J. van Dam, Y. Alexeev, J. Anchell,
       V. Anisimov, F. W. Aquino, R. Atta-Fynn, J. Autschbach, N. P. Bauman,
     J. C. Becca, D. E. Bernholdt, K. Bhaskaran-Nair, S. Bogatko, P. Borowski,
         J. Boschen, J. Brabec, A. Bruner, E. Cauet, Y. Chen, G. N. Chuev,
      C. J. Cramer, J. Daily, M. J. O. Deegan, T. H. Dunning Jr., M. Dupuis,
   K. G. Dyall, G. I. Fann, S. A. Fischer, A. Fonari, H. Fruchtl, L. Gagliardi,
      J. Garza, N. Gawande, S. Ghosh, K. Glaesemann, A. W. Gotz, J. Hammond,
       V. Helms, E. D. Hermes, K. Hirao, S. Hirata, M. Jacquelin, L. Jensen,
   B. G. Johnson, H. Jonsson, R. A. Kendall, M. Klemm, R. Kobayashi, V. Konkov,
      S. Krishnamoorthy, M. Krishnan, Z. Lin, R. D. Lins, R. J. Littlefield,
      A. J. Logsdail, K. Lopata, W. Ma, A. V. Marenich, J. Martin del Campo,
   D. Mejia-Rodriguez, J. E. Moore, J. M. Mullin, T. Nakajima, D. R. Nascimento,
    J. A. Nichols, P. J. Nichols, J. Nieplocha, A. Otero-de-la-Roza, B. Palmer,
    A. Panyala, T. Pirojsirikul, B. Peng, R. Peverati, J. Pittner, L. Pollack,
   R. M. Richard, P. Sadayappan, G. C. Schatz, W. A. Shelton, D. W. Silverstein,
   D. M. A. Smith, T. A. Soares, D. Song, M. Swart, H. L. Taylor, G. S. Thomas,
            V. Tipparaju, D. G. Truhlar, K. Tsemekhman, T. Van Voorhis,
      A. Vazquez-Mayagoitia, P. Verma, O. Villa, A. Vishnu, K. D. Vogiatzis,
        D. Wang, J. H. Weare, M. J. Williamson, T. L. Windus, K. Wolinski,
        A. T. Wong, Q. Wu, C. Yang, Q. Yu, M. Zacharias, Z. Zhang, Y. Zhao,
                                and R. J. Harrison
                        "NWChem: Past, present, and future
                         J. Chem. Phys. 152, 184102 (2020)
                               doi:10.1063/5.0004997

                                      AUTHORS
                                      -------
  E. Apra, E. J. Bylaska, N. Govind, K. Kowalski, M. Valiev, D. Mejia-Rodriguez,
       A. Kunitsa, N. P. Bauman, A. Panyala, W. A. de Jong, T. P. Straatsma,
        H. J. J. van Dam, D. Wang, T. L. Windus, J. Hammond, J. Autschbach,
    K. Bhaskaran-Nair, J. Brabec, K. Lopata, S. A. Fischer, S. Krishnamoorthy,
     M. Jacquelin, W. Ma, M. Klemm, O. Villa, Y. Chen, V. Anisimov, F. Aquino,
    S. Hirata, M. T. Hackler, Eric Hermes, L. Jensen, J. E. Moore, J. C. Becca,
      V. Konjkov, T. Risthaus, M. Malagoli, A. Marenich, A. Otero-de-la-Roza,
        J. Mullin, P. Nichols, R. Peverati, J. Pittner, Y. Zhao, P.-D. Fan,
        A. Fonari, M. J. Williamson, R. J. Harrison, J. R. Rehr, M. Dupuis,
     D. Silverstein, D. M. A. Smith, J. Nieplocha, V. Tipparaju, M. Krishnan,
     B. E. Van Kuiken, A. Vazquez-Mayagoitia, M. Swart, Q. Wu, T. Van Voorhis,
     A. A. Auer, M. Nooijen, L. D. Crosby, E. Brown, G. Cisneros, G. I. Fann,
   H. Fruchtl, J. Garza, K. Hirao, R. A. Kendall, J. A. Nichols, K. Tsemekhman,
    K. Wolinski, J. Anchell, D. E. Bernholdt, P. Borowski, T. Clark, D. Clerc,
   H. Dachsel, M. J. O. Deegan, K. Dyall, D. Elwood, E. Glendening, M. Gutowski,
   A. C. Hess, J. Jaffe, B. G. Johnson, J. Ju, R. Kobayashi, R. Kutteh, Z. Lin,
   R. Littlefield, X. Long, B. Meng, T. Nakajima, S. Niu, L. Pollack, M. Rosing,
   K. Glaesemann, G. Sandrone, M. Stave, H. Taylor, G. Thomas, J. H. van Lenthe,
                               A. T. Wong, Z. Zhang.

 Total times  cpu:        2.1s     wall:        2.8s
