 argument  1 = input.nw
  NWChem w/ OpenMP: maximum threads =    1



============================== echo of input deck ==============================
 echo
 start H2O
 title "H2O"

 memory total 24 gb

 geometry units bohr
 symmetry c1
        O  0.00000000  0.00000000  0.00000000
        H  0.00000000  1.7512775  0.00000000
        H  1.72558000 -0.64860000  0.00000000
 end

 basis spherical
   * library 6-311++G**
 end

 mcscf
   active  8
   actelec 10
   multiplicity 1
   maxiter 40
   vectors input h2o.mos
   vectors output h2o.mos
 end

 task mcscf

 scf
   vectors input h2o.mos
   vectors output h2o-trash.mos
   noscf
 end

 tce
   2eorb
   2emet 13
   ccsd
   maxiter 300
 end

 set tce:print_integrals T
 set tce:qorb 8
 set tce:qela 5
 set tce:qelb 5

# set tce:qducc T
# set tce:nactv 3
# set tce:nonhf T
# set tce:ducc_model 6

 set tce:printtol 0.02

 task tce
================================================================================


                                         
                                         


             Northwest Computational Chemistry Package (NWChem) 7.0.1
             --------------------------------------------------------


                    Environmental Molecular Sciences Laboratory
                       Pacific Northwest National Laboratory
                                Richland, WA 99352

                              Copyright (c) 1994-2020
                       Pacific Northwest National Laboratory
                            Battelle Memorial Institute

             NWChem is an open-source computational chemistry package
                        distributed under the terms of the
                      Educational Community License (ECL) 2.0
             A copy of the license is included with this distribution
                              in the LICENSE.TXT file

                                  ACKNOWLEDGMENT
                                  --------------

            This software and its documentation were developed at the
            EMSL at Pacific Northwest National Laboratory, a multiprogram
            national laboratory, operated for the U.S. Department of Energy
            by Battelle under Contract Number DE-AC05-76RL01830. Support
            for this work was provided by the Department of Energy Office
            of Biological and Environmental Research, Office of Basic
            Energy Sciences, and the Office of Advanced Scientific Computing.


           Job information
           ---------------

    hostname        = WE46210
    program         = /home/baum612/code/nwchem/bin/LINUX64/nwchem
    date            = Thu Sep  5 11:20:18 2024

    compiled        = Wed_Sep_04_02:00:17_2024
    source          = /home/baum612/code/nwchem
    nwchem branch   = 7.0.0
    nwchem revision = nwchem_on_git-4191-g39d87d64de
    ga revision     = 5.8.1
    use scalapack   = F
    input           = input.nw
    prefix          = H2O.
    data base       = ./H2O.db
    status          = startup
    nproc           =        1
    time left       =     -1s



           Memory information
           ------------------

    heap     =  805306366 doubles =   6144.0 Mbytes
    stack    =  805306363 doubles =   6144.0 Mbytes
    global   = 1610612736 doubles =  12288.0 Mbytes (distinct from heap & stack)
    total    = 3221225465 doubles =  24576.0 Mbytes
    verify   = yes
    hardfail = no 


           Directory information
           ---------------------

  0 permanent = .
  0 scratch   = .




                                NWChem Input Module
                                -------------------


                                        H2O
                                        ---
 Turning off AUTOSYM since
 SYMMETRY directive was detected!


          ------
          auto-z
          ------
  no constraints, skipping    0.0000000000000000     
  no constraints, skipping    0.0000000000000000     


                             Geometry "geometry" -> ""
                             -------------------------

 Output coordinates in a.u. (scale by  1.000000000 to convert to a.u.)

  No.       Tag          Charge          X              Y              Z
 ---- ---------------- ---------- -------------- -------------- --------------
    1 O                    8.0000    -0.17255800    -0.11026775     0.00000000
    2 H                    1.0000    -0.17255800     1.64100975     0.00000000
    3 H                    1.0000     1.55302200    -0.75886775     0.00000000

      Atomic Mass 
      ----------- 

      O                 15.994910
      H                  1.007825


 Effective nuclear repulsion energy (a.u.)       9.2460951523

            Nuclear Dipole moment (a.u.) 
            ----------------------------
        X                 Y               Z
 ---------------- ---------------- ----------------
    -0.0000000000     0.0000000000     0.0000000000



                                Z-matrix (autoz)
                                -------- 

 Units are Angstrom for bonds and degrees for angles

      Type          Name      I     J     K     L     M      Value
      ----------- --------  ----- ----- ----- ----- ----- ----------
    1 Stretch                  1     2                       0.92674
    2 Stretch                  1     3                       0.97551
    3 Bend                     2     1     3               110.59992


            XYZ format geometry
            -------------------
     3
 geometry
 O                    -0.09131377    -0.05835118     0.00000000
 H                    -0.09131377     0.86838503     0.00000000
 H                     0.82182391    -0.40157555     0.00000000

 ==============================================================================
                                internuclear distances
 ------------------------------------------------------------------------------
       center one      |      center two      | atomic units |       a.u.
 ------------------------------------------------------------------------------
    2 H                |   1 O                |     1.75128  |     1.75128
    3 H                |   1 O                |     1.84345  |     1.84345
 ------------------------------------------------------------------------------
                         number of included internuclear distances:          2
 ==============================================================================



 ==============================================================================
                                 internuclear angles
 ------------------------------------------------------------------------------
        center 1       |       center 2       |       center 3       |  degrees
 ------------------------------------------------------------------------------
    2 H                |   1 O                |   3 H                |   110.60
 ------------------------------------------------------------------------------
                            number of included internuclear angles:          1
 ==============================================================================





 Summary of "ao basis" -> "" (spherical)
 ------------------------------------------------------------------------------
       Tag                 Description            Shells   Functions and Types
 ---------------- ------------------------------  ------  ---------------------
 *                         6-311++G**                 on all atoms 


                      Basis "ao basis" -> "ao basis" (spherical)
                      -----
  O (Oxygen)
  ----------
            Exponent  Coefficients 
       -------------- ---------------------------------------------------------
  1 S  8.58850000E+03  0.001895
  1 S  1.29723000E+03  0.014386
  1 S  2.99296000E+02  0.070732
  1 S  8.73771000E+01  0.240001
  1 S  2.56789000E+01  0.594797
  1 S  3.74004000E+00  0.280802

  2 S  4.21175000E+01  0.113889
  2 S  9.62837000E+00  0.920811
  2 S  2.85332000E+00 -0.003274

  3 P  4.21175000E+01  0.036511
  3 P  9.62837000E+00  0.237153
  3 P  2.85332000E+00  0.819702

  4 S  9.05661000E-01  1.000000

  5 P  9.05661000E-01  1.000000

  6 S  2.55611000E-01  1.000000

  7 P  2.55611000E-01  1.000000

  8 S  8.45000000E-02  1.000000

  9 P  8.45000000E-02  1.000000

 10 D  1.29200000E+00  1.000000

  H (Hydrogen)
  ------------
            Exponent  Coefficients 
       -------------- ---------------------------------------------------------
  1 S  3.38650000E+01  0.025494
  1 S  5.09479000E+00  0.190373
  1 S  1.15879000E+00  0.852161

  2 S  3.25840000E-01  1.000000

  3 S  1.02741000E-01  1.000000

  4 S  3.60000000E-02  1.000000

  5 P  7.50000000E-01  1.000000



 Summary of "ao basis" -> "ao basis" (spherical)
 ------------------------------------------------------------------------------
       Tag                 Description            Shells   Functions and Types
 ---------------- ------------------------------  ------  ---------------------
 O                         6-311++G**               10       22   5s4p1d
 H                         6-311++G**                5        7   4s1p



                            NWChem Direct MCSCF Module
                            --------------------------


                                        H2O


     -----------------------------------
       Basis functions:             36
       Inactive shells:              0
       Active shells:                8
       Active electrons:            10
       Symmetry:                    a       
       Multiplicity:                 1
       Orbital rotations:          224
     -----------------------------------

     -----------------------------------
       E2 extrapolation:             F
       Conjugacy:                    T
       Micro CI relax:               T
       Canonical orbitals:           T
       Maximum iterations:          40
       Converge threshold:    1.00E-04
       Conjugacy resets:            20
       Initial levelshift:        0.10
     -----------------------------------

 Loading old vectors from job with title :

H2O


   input molecular orbitals = ./h2o.mos
  output molecular orbtials = ./h2o.mos

       No. of determinants:          3136


  Starting Orbital Energies
   -20.557205    -1.365961    -0.761881    -0.594336    -0.533124    -0.026075
    -0.023917    -0.016971     0.070603     0.087627     0.239215     0.277901
     0.315666     0.491648     0.502646     0.610595     0.983857     1.037788
     1.483027     1.510528     1.627772     1.736679     1.887079     2.266677
     2.380410     2.727793     2.849711     3.440928     3.558586     3.683573
     4.090836     4.226600     5.308414     5.793112     6.233000    51.586367

  Orbital Symmetry Irreps
a    a    a    a    a    a    a    a    a    a    a    a    a    a    a   
a    a    a    a    a    a    a    a    a    a    a    a    a    a    a   
a    a    a    a    a    a   

 Integral file          = ./H2O.aoints.0
 Record size in doubles =  65536        No. of integs per rec  =  43688
 Max. records in memory =     10        Max. records in file   = 232546
 No. of bits per label  =      8        No. of bits per value  =     64


 #quartets = 2.216D+04 #integrals = 1.003D+05 #direct =  0.0% #cached =100.0%




          %%%%% MacroIteration   1 %%%%%


          Number of sigma calls:       14
                       o<<<<< (aa):             0.00
                       o<<<<< (bb):             0.00
                       o<<<<< (ab):             0.06
                       o<<<<< (total)           0.07
                       o<<<<< (aa) ff           0.00
                       o<<<<< (aa) gop          0.00
                       o<<<<< (aa) dot          0.00
                       o<<<<< (ab) str          0.00
                       o<<<<< (ab) gath         0.00
                       o<<<<< (ab) dotab        0.00
                       o<<<<< (ab) scat         0.00
                       o<<<<< (ab) sync         0.00
                       o<<<<< Density           0.01
                       o<<<<< Density one       0.00
                       o<<<<< Density two       0.00
                       o<<<<< Density ab        0.00
                       o<<<<< Spin adapt        0.44
                       o<<<<< Symm adapt        0.00

                       o<<<<< (ab) max sync:      0.00

           >>>| Valence CI:            -85.389763869603
           >>>| MCSCF energy:          -76.143668717336
           >>>| Gradient norm:          0.124230460D-01

                              ----- Line search ------

        step       energy         lsg     num-lsg   num-lsh   lsrat    time
      ------- ---------------- --------- --------- --------- ------- --------
       0.0000     -76.14366872 -1.30D-05  0.00D+00  0.00D+00 0.0D+00      0.9

          Number of sigma calls:       14
                       o<<<<< (aa):             0.00
                       o<<<<< (bb):             0.00
                       o<<<<< (ab):             0.05
                       o<<<<< (total)           0.06
                       o<<<<< (aa) ff           0.00
                       o<<<<< (aa) gop          0.00
                       o<<<<< (aa) dot          0.00
                       o<<<<< (ab) str          0.00
                       o<<<<< (ab) gath         0.00
                       o<<<<< (ab) dotab        0.00
                       o<<<<< (ab) scat         0.00
                       o<<<<< (ab) sync         0.00
                       o<<<<< Density           0.01
                       o<<<<< Density one       0.00
                       o<<<<< Density two       0.00
                       o<<<<< Density ab        0.01
                       o<<<<< Spin adapt        0.34
                       o<<<<< Symm adapt        0.00

                       o<<<<< (ab) max sync:      0.00
       1.0000     -76.14367541 -3.71D-07 -3.71D-07  1.26D-05 2.9D-02      1.3
     --- Orbitals canonicalized ---



          %%%%% MacroIteration   2 %%%%%


          Number of sigma calls:       11
                       o<<<<< (aa):             0.00
                       o<<<<< (bb):             0.00
                       o<<<<< (ab):             0.05
                       o<<<<< (total)           0.06
                       o<<<<< (aa) ff           0.00
                       o<<<<< (aa) gop          0.00
                       o<<<<< (aa) dot          0.00
                       o<<<<< (ab) str          0.00
                       o<<<<< (ab) gath         0.00
                       o<<<<< (ab) dotab        0.00
                       o<<<<< (ab) scat         0.00
                       o<<<<< (ab) sync         0.00
                       o<<<<< Density           0.01
                       o<<<<< Density one       0.00
                       o<<<<< Density two       0.00
                       o<<<<< Density ab        0.01
                       o<<<<< Spin adapt        0.21
                       o<<<<< Symm adapt        0.00

                       o<<<<< (ab) max sync:      0.00

           >>>| Valence CI:            -85.389770560183
           >>>| MCSCF energy:          -76.143675407916
           >>>| Gradient norm:          0.748449872D-03
     --- Warning:    1 Hessian diagonals < 0.05 ---
     --- Conjugacy reset ---

                              ----- Line search ------

        step       energy         lsg     num-lsg   num-lsh   lsrat    time
      ------- ---------------- --------- --------- --------- ------- --------
       0.0000     -76.14367541 -1.13D-07  0.00D+00  0.00D+00 0.0D+00      1.6

          Number of sigma calls:        9
                       o<<<<< (aa):             0.00
                       o<<<<< (bb):             0.00
                       o<<<<< (ab):             0.03
                       o<<<<< (total)           0.03
                       o<<<<< (aa) ff           0.00
                       o<<<<< (aa) gop          0.00
                       o<<<<< (aa) dot          0.00
                       o<<<<< (ab) str          0.00
                       o<<<<< (ab) gath         0.00
                       o<<<<< (ab) dotab        0.00
                       o<<<<< (ab) scat         0.00
                       o<<<<< (ab) sync         0.00
                       o<<<<< Density           0.01
                       o<<<<< Density one       0.00
                       o<<<<< Density two       0.00
                       o<<<<< Density ab        0.01
                       o<<<<< Spin adapt        0.16
                       o<<<<< Symm adapt        0.00

                       o<<<<< (ab) max sync:      0.00
       1.0000     -76.14367548 -4.09D-08 -4.09D-08  7.17D-08 3.6D-01      1.9

          Number of sigma calls:        9
                       o<<<<< (aa):             0.00
                       o<<<<< (bb):             0.00
                       o<<<<< (ab):             0.03
                       o<<<<< (total)           0.03
                       o<<<<< (aa) ff           0.00
                       o<<<<< (aa) gop          0.00
                       o<<<<< (aa) dot          0.00
                       o<<<<< (ab) str          0.00
                       o<<<<< (ab) gath         0.00
                       o<<<<< (ab) dotab        0.00
                       o<<<<< (ab) scat         0.00
                       o<<<<< (ab) sync         0.00
                       o<<<<< Density           0.00
                       o<<<<< Density one       0.00
                       o<<<<< Density two       0.00
                       o<<<<< Density ab        0.00
                       o<<<<< Spin adapt        0.13
                       o<<<<< Symm adapt        0.00

                       o<<<<< (ab) max sync:      0.00
       1.5699     -76.14367550 -4.73D-11 -4.50D-11  7.17D-08 4.2D-04      2.1



          %%%%% MacroIteration   3 %%%%%


          Number of sigma calls:        1
                       o<<<<< (aa):             0.00
                       o<<<<< (bb):             0.00
                       o<<<<< (ab):             0.00
                       o<<<<< (total)           0.00
                       o<<<<< (aa) ff           0.00
                       o<<<<< (aa) gop          0.00
                       o<<<<< (aa) dot          0.00
                       o<<<<< (ab) str          0.00
                       o<<<<< (ab) gath         0.00
                       o<<<<< (ab) dotab        0.00
                       o<<<<< (ab) scat         0.00
                       o<<<<< (ab) sync         0.00
                       o<<<<< Density           0.01
                       o<<<<< Density one       0.00
                       o<<<<< Density two       0.00
                       o<<<<< Density ab        0.01
                       o<<<<< Spin adapt        0.00
                       o<<<<< Symm adapt        0.00

                       o<<<<< (ab) max sync:      0.00

           >>>| Valence CI:            -85.389770648594
           >>>| MCSCF energy:          -76.143675496327
           >>>| Gradient norm:          0.149791029D-03
     --- Warning:    1 Hessian diagonals < 0.05 ---

                              ----- Line search ------

        step       energy         lsg     num-lsg   num-lsh   lsrat    time
      ------- ---------------- --------- --------- --------- ------- --------
       0.0000     -76.14367550 -8.24D-09  0.00D+00  0.00D+00 0.0D+00      2.1

          Number of sigma calls:        8
                       o<<<<< (aa):             0.00
                       o<<<<< (bb):             0.00
                       o<<<<< (ab):             0.02
                       o<<<<< (total)           0.03
                       o<<<<< (aa) ff           0.00
                       o<<<<< (aa) gop          0.00
                       o<<<<< (aa) dot          0.00
                       o<<<<< (ab) str          0.00
                       o<<<<< (ab) gath         0.00
                       o<<<<< (ab) dotab        0.00
                       o<<<<< (ab) scat         0.00
                       o<<<<< (ab) sync         0.00
                       o<<<<< Density           0.00
                       o<<<<< Density one       0.00
                       o<<<<< Density two       0.00
                       o<<<<< Density ab        0.00
                       o<<<<< Spin adapt        0.16
                       o<<<<< Symm adapt        0.00

                       o<<<<< (ab) max sync:      0.00
       1.0000     -76.14367550 -4.34D-09 -4.34D-09  3.91D-09 5.3D-01      2.4

          Number of sigma calls:        8
                       o<<<<< (aa):             0.00
                       o<<<<< (bb):             0.00
                       o<<<<< (ab):             0.02
                       o<<<<< (total)           0.03
                       o<<<<< (aa) ff           0.00
                       o<<<<< (aa) gop          0.00
                       o<<<<< (aa) dot          0.00
                       o<<<<< (ab) str          0.00
                       o<<<<< (ab) gath         0.00
                       o<<<<< (ab) dotab        0.00
                       o<<<<< (ab) scat         0.00
                       o<<<<< (ab) sync         0.00
                       o<<<<< Density           0.01
                       o<<<<< Density one       0.00
                       o<<<<< Density two       0.00
                       o<<<<< Density ab        0.01
                       o<<<<< Spin adapt        0.08
                       o<<<<< Symm adapt        0.00

                       o<<<<< (ab) max sync:      0.00
       2.1095     -76.14367551 -6.19D-13 -6.18D-13  3.91D-09 7.5D-05      2.5



          %%%%% MacroIteration   4 %%%%%


          Number of sigma calls:        1
                       o<<<<< (aa):             0.00
                       o<<<<< (bb):             0.00
                       o<<<<< (ab):             0.00
                       o<<<<< (total)           0.00
                       o<<<<< (aa) ff           0.00
                       o<<<<< (aa) gop          0.00
                       o<<<<< (aa) dot          0.00
                       o<<<<< (ab) str          0.00
                       o<<<<< (ab) gath         0.00
                       o<<<<< (ab) dotab        0.00
                       o<<<<< (ab) scat         0.00
                       o<<<<< (ab) sync         0.00
                       o<<<<< Density           0.01
                       o<<<<< Density one       0.00
                       o<<<<< Density two       0.00
                       o<<<<< Density ab        0.01
                       o<<<<< Spin adapt        0.00
                       o<<<<< Symm adapt        0.00

                       o<<<<< (ab) max sync:      0.00

           >>>| Valence CI:            -85.389770657290
           >>>| MCSCF energy:          -76.143675505022
           >>>| Gradient norm:          0.130442513D-03
     --- Warning:    1 Hessian diagonals < 0.05 ---

                              ----- Line search ------

        step       energy         lsg     num-lsg   num-lsh   lsrat    time
      ------- ---------------- --------- --------- --------- ------- --------
       0.0000     -76.14367551 -2.96D-09  0.00D+00  0.00D+00 0.0D+00      2.6

          Number of sigma calls:        8
                       o<<<<< (aa):             0.00
                       o<<<<< (bb):             0.00
                       o<<<<< (ab):             0.02
                       o<<<<< (total)           0.02
                       o<<<<< (aa) ff           0.00
                       o<<<<< (aa) gop          0.00
                       o<<<<< (aa) dot          0.00
                       o<<<<< (ab) str          0.00
                       o<<<<< (ab) gath         0.00
                       o<<<<< (ab) dotab        0.00
                       o<<<<< (ab) scat         0.00
                       o<<<<< (ab) sync         0.00
                       o<<<<< Density           0.01
                       o<<<<< Density one       0.01
                       o<<<<< Density two       0.00
                       o<<<<< Density ab        0.00
                       o<<<<< Spin adapt        0.18
                       o<<<<< Symm adapt        0.00

                       o<<<<< (ab) max sync:      0.00
       1.0000     -76.14367551 -1.41D-09 -1.41D-09  1.54D-09 4.8D-01      2.8

          Number of sigma calls:        8
                       o<<<<< (aa):             0.00
                       o<<<<< (bb):             0.00
                       o<<<<< (ab):             0.04
                       o<<<<< (total)           0.05
                       o<<<<< (aa) ff           0.00
                       o<<<<< (aa) gop          0.00
                       o<<<<< (aa) dot          0.00
                       o<<<<< (ab) str          0.00
                       o<<<<< (ab) gath         0.00
                       o<<<<< (ab) dotab        0.00
                       o<<<<< (ab) scat         0.00
                       o<<<<< (ab) sync         0.00
                       o<<<<< Density           0.01
                       o<<<<< Density one       0.00
                       o<<<<< Density two       0.00
                       o<<<<< Density ab        0.01
                       o<<<<< Spin adapt        0.23
                       o<<<<< Symm adapt        0.00

                       o<<<<< (ab) max sync:      0.00
       1.9172     -76.14367551 -1.08D-13  2.05D-13  1.54D-09 3.7D-05      3.2



          %%%%% MacroIteration   5 %%%%%


          Number of sigma calls:        1
                       o<<<<< (aa):             0.00
                       o<<<<< (bb):             0.00
                       o<<<<< (ab):             0.01
                       o<<<<< (total)           0.01
                       o<<<<< (aa) ff           0.00
                       o<<<<< (aa) gop          0.00
                       o<<<<< (aa) dot          0.00
                       o<<<<< (ab) str          0.00
                       o<<<<< (ab) gath         0.00
                       o<<<<< (ab) dotab        0.00
                       o<<<<< (ab) scat         0.00
                       o<<<<< (ab) sync         0.00
                       o<<<<< Density           0.02
                       o<<<<< Density one       0.01
                       o<<<<< Density two       0.00
                       o<<<<< Density ab        0.01
                       o<<<<< Spin adapt        0.00
                       o<<<<< Symm adapt        0.00

                       o<<<<< (ab) max sync:      0.00

           >>>| Valence CI:            -85.389770660124
           >>>| MCSCF energy:          -76.143675507857
           >>>| Gradient norm:          0.421947644D-04




     ==============================
            MCSCF Converged
     ==============================



          Canonical Eigenvalues

              1      
    1  -20.5568
    2   -1.3673
    3   -0.7632
    4   -0.5947
    5   -0.5333
    6   -0.0261
    7   -0.0237
    8   -0.0170
    9    0.0705
   10    0.0876
   11    0.2394
   12    0.2779
   13    0.3156
   14    0.4917
   15    0.5031
   16    0.6099
   17    0.9820
   18    1.0372
   19    1.4836
   20    1.5099
   21    1.6268
   22    1.7373
   23    1.8895
   24    2.2683
   25    2.3867
   26    2.7260
   27    2.8487
   28    3.4420
   29    3.5624
   30    3.6871
   31    4.0921
   32    4.2293
   33    5.3080
   34    5.7954
   35    6.2423
   36   51.5896


          Converged CI vector

   Index           Coefficient          Config. Occupation
         1          0.97604682          1  2  3  4  5  1  2  3  4  5
        22         -0.07198099          1  2  3  4  5  1  2  3  4  8
         3         -0.04080227          1  2  3  4  5  1  2  3  5  6
         8          0.02158048          1  2  3  4  5  1  2  3  5  7
        27          0.02068785          1  2  3  4  5  1  2  3  6  8
         4         -0.02074201          1  2  3  4  5  1  2  4  5  6
         9         -0.03704053          1  2  3  4  5  1  2  4  5  7
        38          0.02351568          1  2  3  4  5  1  2  4  7  8
      1177         -0.07198099          1  2  3  4  8  1  2  3  4  5
      1198         -0.05442933          1  2  3  4  8  1  2  3  4  8
      1179         -0.02551617          1  2  3  4  8  1  2  3  5  6
      1185         -0.03183791          1  2  3  4  8  1  2  4  5  7
       113         -0.04080227          1  2  3  5  6  1  2  3  4  5
       134         -0.02551617          1  2  3  5  6  1  2  3  4  8
       115         -0.03771731          1  2  3  5  6  1  2  3  5  6
       116         -0.02530740          1  2  3  5  6  1  2  4  5  6
       121         -0.02380434          1  2  3  5  6  1  2  4  5  7
       117          0.02166841          1  2  3  5  6  1  3  4  5  6
       393          0.02158048          1  2  3  5  7  1  2  3  4  5
       400         -0.02171327          1  2  3  5  7  1  2  3  5  7
       401          0.02164364          1  2  3  5  7  1  2  4  5  7
      1457          0.02068785          1  2  3  6  8  1  2  3  4  5
       169         -0.02074201          1  2  4  5  6  1  2  3  4  5
       171         -0.02530740          1  2  4  5  6  1  2  3  5  6
       172         -0.03381347          1  2  4  5  6  1  2  4  5  6
       449         -0.03704053          1  2  4  5  7  1  2  3  4  5
       470         -0.03183791          1  2  4  5  7  1  2  3  4  8
       451         -0.02380434          1  2  4  5  7  1  2  3  5  6
       456          0.02164364          1  2  4  5  7  1  2  3  5  7
       457         -0.05071849          1  2  4  5  7  1  2  4  5  7
      2073          0.02351568          1  2  4  7  8  1  2  3  4  5
       227          0.02166841          1  3  4  5  6  1  2  3  5  6
       229         -0.02437759          1  3  4  5  6  1  3  4  5  6

          Number of sigma calls:        1
                       o<<<<< (aa):             0.00
                       o<<<<< (bb):             0.00
                       o<<<<< (ab):             0.01
                       o<<<<< (total)           0.01
                       o<<<<< (aa) ff           0.00
                       o<<<<< (aa) gop          0.00
                       o<<<<< (aa) dot          0.00
                       o<<<<< (ab) str          0.00
                       o<<<<< (ab) gath         0.00
                       o<<<<< (ab) dotab        0.00
                       o<<<<< (ab) scat         0.00
                       o<<<<< (ab) sync         0.00
                       o<<<<< Density           0.02
                       o<<<<< Density one       0.01
                       o<<<<< Density two       0.00
                       o<<<<< Density ab        0.01
                       o<<<<< Spin adapt        0.00
                       o<<<<< Symm adapt        0.00

                       o<<<<< (ab) max sync:      0.00



          Natural orbital occupation numbers

              1      
    1    2.0000
    2    1.9990
    3    1.9812
    4    1.9791
    5    1.9767
    6    0.0241
    7    0.0214
    8    0.0185


          Number of sigma calls:       14
                       o<<<<< (aa):             0.00
                       o<<<<< (bb):             0.00
                       o<<<<< (ab):             0.07
                       o<<<<< (total)           0.08
                       o<<<<< (aa) ff           0.00
                       o<<<<< (aa) gop          0.00
                       o<<<<< (aa) dot          0.00
                       o<<<<< (ab) str          0.00
                       o<<<<< (ab) gath         0.00
                       o<<<<< (ab) dotab        0.00
                       o<<<<< (ab) scat         0.00
                       o<<<<< (ab) sync         0.00
                       o<<<<< Density           0.02
                       o<<<<< Density one       0.00
                       o<<<<< Density two       0.00
                       o<<<<< Density ab        0.01
                       o<<<<< Spin adapt        0.36
                       o<<<<< Symm adapt        0.00

                       o<<<<< (ab) max sync:      0.00


       Final MCSCF results 
       ------------------- 

       Total MCSCF energy =    -76.143675507856
            Gradient norm =      4.2D-05

    CPU time for solution =      3.8s
   Wall time for solution =      6.4s



                        Analysis of MCSCF natural orbitals
                        ----------------------------------

 Vector    1  Occ=1.999989D+00  E=-2.055677D+01  Symmetry=a
              MO Center= -9.1D-02, -5.8D-02, -2.3D-11, r^2= 1.8D-02
   Bfn.  Coefficient  Atom+Function         Bfn.  Coefficient  Atom+Function  
  ----- ------------  ---------------      ----- ------------  ---------------
     1      0.560253  1 O  s                  2      0.489124  1 O  s          

 Vector    2  Occ=1.998975D+00  E=-1.367320D+00  Symmetry=a
              MO Center= -3.0D-01, -2.0D-01, -2.3D-08, r^2= 4.3D-01
   Bfn.  Coefficient  Atom+Function         Bfn.  Coefficient  Atom+Function  
  ----- ------------  ---------------      ----- ------------  ---------------
     6      0.551790  1 O  s                 10      0.480947  1 O  s          

 Vector    3  Occ=1.981214D+00  E=-7.632308D-01  Symmetry=a
              MO Center= -7.3D-02, -4.4D-02,  2.2D-08, r^2= 7.1D-01
   Bfn.  Coefficient  Atom+Function         Bfn.  Coefficient  Atom+Function  
  ----- ------------  ---------------      ----- ------------  ---------------
     9      0.435623  1 O  pz                13      0.405900  1 O  pz         
     5      0.288201  1 O  pz         

 Vector    4  Occ=1.979127D+00  E=-5.946999D-01  Symmetry=a
              MO Center= -4.3D-02,  3.6D-01,  4.5D-10, r^2= 5.8D-01
   Bfn.  Coefficient  Atom+Function         Bfn.  Coefficient  Atom+Function  
  ----- ------------  ---------------      ----- ------------  ---------------
     8      0.345713  1 O  py                24      0.269096  2 H  s          
     4      0.230218  1 O  py                12      0.215360  1 O  py         
    23      0.196993  2 H  s          

 Vector    5  Occ=1.976703D+00  E=-5.333355D-01  Symmetry=a
              MO Center=  3.4D-01, -1.8D-01,  6.3D-10, r^2= 6.1D-01
   Bfn.  Coefficient  Atom+Function         Bfn.  Coefficient  Atom+Function  
  ----- ------------  ---------------      ----- ------------  ---------------
     7      0.341089  1 O  px                31      0.276132  3 H  s          
     3      0.225628  1 O  px                11      0.226704  1 O  px         
    30      0.190995  3 H  s          

 Vector    6  Occ=2.405876D-02  E=-2.605162D-02  Symmetry=a
              MO Center=  5.1D-01, -2.0D-01,  3.5D-09, r^2= 6.6D-01
   Bfn.  Coefficient  Atom+Function         Bfn.  Coefficient  Atom+Function  
  ----- ------------  ---------------      ----- ------------  ---------------
    31      0.539648  3 H  s                  7     -0.509445  1 O  px         
     6     -0.478602  1 O  s                  3     -0.427641  1 O  px         
    30      0.287357  3 H  s                 11      0.157974  1 O  px         

 Vector    7  Occ=2.144081D-02  E=-2.373646D-02  Symmetry=a
              MO Center= -4.8D-02,  5.0D-01,  3.1D-09, r^2= 6.8D-01
   Bfn.  Coefficient  Atom+Function         Bfn.  Coefficient  Atom+Function  
  ----- ------------  ---------------      ----- ------------  ---------------
    24     -0.575062  2 H  s                  8      0.548373  1 O  py         
     4      0.457278  1 O  py                 6      0.368464  1 O  s          
    23     -0.298323  2 H  s          

 Vector    8  Occ=1.849105D-02  E=-1.696572D-02  Symmetry=a
              MO Center= -5.5D-02, -3.3D-02,  2.6D-08, r^2= 1.4D+00
   Bfn.  Coefficient  Atom+Function         Bfn.  Coefficient  Atom+Function  
  ----- ------------  ---------------      ----- ------------  ---------------
    13      0.659739  1 O  pz                 5     -0.520428  1 O  pz         
     9     -0.455742  1 O  pz                17      0.260797  1 O  pz         

 Vector    9  Occ=0.000000D+00  E= 7.052859D-02  Symmetry=a
              MO Center=  5.2D-01,  3.3D-01, -2.6D-08, r^2= 1.1D+01
   Bfn.  Coefficient  Atom+Function         Bfn.  Coefficient  Atom+Function  
  ----- ------------  ---------------      ----- ------------  ---------------
    33      0.979281  3 H  s                 26      0.969553  2 H  s          
    14     -0.837054  1 O  s                 32     -0.323509  3 H  s          
    25     -0.267565  2 H  s                 10      0.248233  1 O  s          

 Vector   10  Occ=0.000000D+00  E= 8.762634D-02  Symmetry=a
              MO Center=  5.1D-01,  3.5D-01, -4.8D-11, r^2= 1.4D+01
   Bfn.  Coefficient  Atom+Function         Bfn.  Coefficient  Atom+Function  
  ----- ------------  ---------------      ----- ------------  ---------------
    26      2.707771  2 H  s                 33     -2.697722  3 H  s          
    32      0.447110  3 H  s                 25     -0.392161  2 H  s          
    16     -0.356055  1 O  py                15      0.227291  1 O  px         

 Vector   11  Occ=0.000000D+00  E= 2.393846D-01  Symmetry=a
              MO Center= -2.1D-01, -1.6D-01,  2.8D-08, r^2= 5.6D+00
   Bfn.  Coefficient  Atom+Function         Bfn.  Coefficient  Atom+Function  
  ----- ------------  ---------------      ----- ------------  ---------------
    14      3.917617  1 O  s                 25     -3.100875  2 H  s          
    32     -2.714556  3 H  s                 15      1.918874  1 O  px         
    16      1.450967  1 O  py                11     -0.350741  1 O  px         
    26      0.273547  2 H  s                 10      0.256598  1 O  s          
    12     -0.236593  1 O  py                33      0.217195  3 H  s          

 Vector   12  Occ=0.000000D+00  E= 2.778958D-01  Symmetry=a
              MO Center= -4.5D-01, -3.0D-01, -8.9D-13, r^2= 5.8D+00
   Bfn.  Coefficient  Atom+Function         Bfn.  Coefficient  Atom+Function  
  ----- ------------  ---------------      ----- ------------  ---------------
    25      3.546976  2 H  s                 32     -3.326621  3 H  s          
    16     -2.933457  1 O  py                15      2.015175  1 O  px         
    26      0.822301  2 H  s                 33     -0.772726  3 H  s          
    12      0.304320  1 O  py                24     -0.276644  2 H  s          
    14     -0.271411  1 O  s                 31      0.257758  3 H  s          

 Vector   13  Occ=0.000000D+00  E= 3.155864D-01  Symmetry=a
              MO Center=  5.1D-02,  4.6D-02, -1.1D-07, r^2= 5.4D+00
   Bfn.  Coefficient  Atom+Function         Bfn.  Coefficient  Atom+Function  
  ----- ------------  ---------------      ----- ------------  ---------------
    14      8.489218  1 O  s                 25     -4.186870  2 H  s          
    32     -3.877870  3 H  s                 15      1.490462  1 O  px         
    10     -1.152664  1 O  s                 16      1.148837  1 O  py         
    26     -0.438883  2 H  s                 33     -0.275044  3 H  s          
    24      0.252413  2 H  s                 31      0.227746  3 H  s          

 Vector   14  Occ=0.000000D+00  E= 4.916622D-01  Symmetry=a
              MO Center=  1.0D+00, -3.6D-01, -6.8D-11, r^2= 5.5D+00
   Bfn.  Coefficient  Atom+Function         Bfn.  Coefficient  Atom+Function  
  ----- ------------  ---------------      ----- ------------  ---------------
    32      3.970151  3 H  s                 25     -2.191034  2 H  s          
    33     -1.804005  3 H  s                 31     -1.339188  3 H  s          
    26      1.323609  2 H  s                 24      0.626943  2 H  s          
    14     -0.496235  1 O  s                 15     -0.407420  1 O  px         
    16      0.383242  1 O  py         

 Vector   15  Occ=0.000000D+00  E= 5.031108D-01  Symmetry=a
              MO Center=  5.0D-02,  1.1D+00, -5.3D-11, r^2= 4.9D+00
   Bfn.  Coefficient  Atom+Function         Bfn.  Coefficient  Atom+Function  
  ----- ------------  ---------------      ----- ------------  ---------------
    25      3.996054  2 H  s                 14     -2.103103  1 O  s          
    32      1.592302  3 H  s                 24     -1.382407  2 H  s          
    26     -1.171469  2 H  s                 31     -0.663481  3 H  s          
    16     -0.438747  1 O  py                10     -0.235122  1 O  s          
    15     -0.196470  1 O  px         

 Vector   16  Occ=0.000000D+00  E= 6.099051D-01  Symmetry=a
              MO Center= -8.7D-02, -5.5D-02,  1.0D-07, r^2= 5.4D+00
   Bfn.  Coefficient  Atom+Function         Bfn.  Coefficient  Atom+Function  
  ----- ------------  ---------------      ----- ------------  ---------------
    17     -1.450738  1 O  pz                13      1.398983  1 O  pz         
     9     -0.421851  1 O  pz         

 Vector   17  Occ=0.000000D+00  E= 9.820219D-01  Symmetry=a
              MO Center=  7.4D-02, -9.3D-02,  2.0D-08, r^2= 2.5D+00
   Bfn.  Coefficient  Atom+Function         Bfn.  Coefficient  Atom+Function  
  ----- ------------  ---------------      ----- ------------  ---------------
    14      3.676544  1 O  s                 25     -2.766849  2 H  s          
    10     -2.363836  1 O  s                 24      2.268908  2 H  s          
    32     -1.827190  3 H  s                 12     -1.800884  1 O  py         
    16      1.434382  1 O  py                11     -1.386685  1 O  px         
    31      1.366777  3 H  s                 15      1.096225  1 O  px         

 Vector   18  Occ=0.000000D+00  E= 1.037237D+00  Symmetry=a
              MO Center= -3.3D-01, -9.0D-02,  8.1D-10, r^2= 2.7D+00
   Bfn.  Coefficient  Atom+Function         Bfn.  Coefficient  Atom+Function  
  ----- ------------  ---------------      ----- ------------  ---------------
    11      1.928891  1 O  px                12     -1.890767  1 O  py         
    32      1.856292  3 H  s                 31     -1.813493  3 H  s          
    15     -1.479430  1 O  px                16      1.445946  1 O  py         
    24      1.077436  2 H  s                 25     -0.909293  2 H  s          
    26     -0.717725  2 H  s                 14     -0.710936  1 O  s          


 Wrote Lagrangian and 1- and 2-particle density matrices to ./H2O.mcpdm


     Multipole analysis of the density
     ---------------------------------

     L   x y z        total        nuclear
     -   - - -        -----        -------
     0   0 0 0     -0.000000     10.000000

     1   1 0 0      0.660706     -0.000000
     1   0 1 0      0.437130      0.000000
     1   0 0 1     -0.000000      0.000000

     2   2 0 0     -4.254319      2.679864
     2   1 1 0     -0.854492     -1.309487
     2   1 0 1      0.000000      0.000000
     2   0 2 0     -3.714281      3.366065
     2   0 1 1      0.000000      0.000000
     2   0 0 2     -5.769833      0.000000


  Mulliken analysis of the total density
  --------------------------------------

    Atom       Charge   Shell Charges
 -----------   ------   -------------------------------------------------------
    1 O    8     8.50   1.08  0.91  0.96  0.99  2.08  0.78  1.51 -0.01  0.19  0.01
    2 H    1     0.75   0.28  0.38  0.01  0.01  0.07
    3 H    1     0.75   0.26  0.40  0.02  0.01  0.07

    Mulliken analysis of the active space density
    ---------------------------------------------

    Atom       Charge   Shell Charges
 -----------   ------   -------------------------------------------------------
    1 O    8     8.50   1.08  0.91  0.96  0.99  2.08  0.78  1.51 -0.01  0.19  0.01
    2 H    1     0.75   0.28  0.38  0.01  0.01  0.07
    3 H    1     0.75   0.26  0.40  0.02  0.01  0.07

 Parallel integral file used       3 records with       0 large values


 Task  times  cpu:        3.8s     wall:        6.4s


                                NWChem Input Module
                                -------------------


                                 NWChem SCF Module
                                 -----------------


                                        H2O



  ao basis        = "ao basis"
  functions       =    36
  atoms           =     3
  closed shells   =     5
  open shells     =     0
  charge          =   0.00
  wavefunction    = RHF 
  input vectors   = ./h2o.mos
  output vectors  = ./h2o-trash.mos
  use symmetry    = F
  symmetry adapt  = F


 Summary of "ao basis" -> "ao basis" (spherical)
 ------------------------------------------------------------------------------
       Tag                 Description            Shells   Functions and Types
 ---------------- ------------------------------  ------  ---------------------
 O                         6-311++G**               10       22   5s4p1d
 H                         6-311++G**                5        7   4s1p



 Forming initial guess at       6.5s


 Loading old vectors from job with title :

H2O


 Starting SCF solution at       6.5s



 ----------------------------------------------
         Quadratically convergent ROHF

 Convergence threshold     :          1.000E-04
 Maximum no. of iterations :           30
 Final Fock-matrix accuracy:          1.000E-07
 ----------------------------------------------


 Integral file          = ./H2O.aoints.0
 Record size in doubles =  65536        No. of integs per rec  =  43688
 Max. records in memory =     10        Max. records in file   = 232553
 No. of bits per label  =      8        No. of bits per value  =     64


 #quartets = 2.216D+04 #integrals = 1.002D+05 #direct =  0.0% #cached =100.0%



       Final RHF  results 
       ------------------ 

         Total SCF energy =    -76.050096419972
      One-electron energy =   -123.076380152400
      Two-electron energy =     37.780188580160
 Nuclear repulsion energy =      9.246095152267

        Time for solution =      0.0s


             Final eigenvalues
             -----------------

              1      
    1  -20.5568
    2   -1.3673
    3   -0.7632
    4   -0.5947
    5   -0.5333
    6   -0.0261
    7   -0.0237
    8   -0.0170
    9    0.0705
   10    0.0876
   11    0.2394
   12    0.2779
   13    0.3156
   14    0.4917
   15    0.5031

                       ROHF Final Molecular Orbital Analysis
                       -------------------------------------

 Vector    2  Occ=2.000000D+00  E=-1.367320D+00
              MO Center= -3.0D-01, -2.0D-01, -2.3D-08, r^2= 4.3D-01
   Bfn.  Coefficient  Atom+Function         Bfn.  Coefficient  Atom+Function  
  ----- ------------  ---------------      ----- ------------  ---------------
     6      0.551790  1 O  s                 10      0.480947  1 O  s          

 Vector    3  Occ=2.000000D+00  E=-7.632308D-01
              MO Center= -7.3D-02, -4.4D-02,  2.2D-08, r^2= 7.1D-01
   Bfn.  Coefficient  Atom+Function         Bfn.  Coefficient  Atom+Function  
  ----- ------------  ---------------      ----- ------------  ---------------
     9      0.435623  1 O  pz                13      0.405900  1 O  pz         
     5      0.288201  1 O  pz         

 Vector    4  Occ=2.000000D+00  E=-5.946999D-01
              MO Center= -4.3D-02,  3.6D-01,  4.5D-10, r^2= 5.8D-01
   Bfn.  Coefficient  Atom+Function         Bfn.  Coefficient  Atom+Function  
  ----- ------------  ---------------      ----- ------------  ---------------
     8      0.345713  1 O  py                24      0.269096  2 H  s          
     4      0.230218  1 O  py                12      0.215360  1 O  py         
    23      0.196993  2 H  s          

 Vector    5  Occ=2.000000D+00  E=-5.333355D-01
              MO Center=  3.4D-01, -1.8D-01,  6.3D-10, r^2= 6.1D-01
   Bfn.  Coefficient  Atom+Function         Bfn.  Coefficient  Atom+Function  
  ----- ------------  ---------------      ----- ------------  ---------------
     7      0.341089  1 O  px                31      0.276132  3 H  s          
     3      0.225628  1 O  px                11      0.226704  1 O  px         
    30      0.190995  3 H  s          

 Vector    6  Occ=0.000000D+00  E=-2.605162D-02
              MO Center=  5.1D-01, -2.0D-01,  3.5D-09, r^2= 6.6D-01
   Bfn.  Coefficient  Atom+Function         Bfn.  Coefficient  Atom+Function  
  ----- ------------  ---------------      ----- ------------  ---------------
    31      0.539648  3 H  s                  7     -0.509445  1 O  px         
     6     -0.478602  1 O  s                  3     -0.427641  1 O  px         
    30      0.287357  3 H  s                 11      0.157974  1 O  px         

 Vector    7  Occ=0.000000D+00  E=-2.373646D-02
              MO Center= -4.8D-02,  5.0D-01,  3.1D-09, r^2= 6.8D-01
   Bfn.  Coefficient  Atom+Function         Bfn.  Coefficient  Atom+Function  
  ----- ------------  ---------------      ----- ------------  ---------------
    24     -0.575062  2 H  s                  8      0.548373  1 O  py         
     4      0.457278  1 O  py                 6      0.368464  1 O  s          
    23     -0.298323  2 H  s          

 Vector    8  Occ=0.000000D+00  E=-1.696572D-02
              MO Center= -5.5D-02, -3.3D-02,  2.6D-08, r^2= 1.4D+00
   Bfn.  Coefficient  Atom+Function         Bfn.  Coefficient  Atom+Function  
  ----- ------------  ---------------      ----- ------------  ---------------
    13      0.659739  1 O  pz                 5     -0.520428  1 O  pz         
     9     -0.455742  1 O  pz                17      0.260797  1 O  pz         

 Vector    9  Occ=0.000000D+00  E= 7.052859D-02
              MO Center=  5.2D-01,  3.3D-01, -2.6D-08, r^2= 1.1D+01
   Bfn.  Coefficient  Atom+Function         Bfn.  Coefficient  Atom+Function  
  ----- ------------  ---------------      ----- ------------  ---------------
    33      0.979281  3 H  s                 26      0.969553  2 H  s          
    14     -0.837054  1 O  s                 32     -0.323509  3 H  s          
    25     -0.267565  2 H  s                 10      0.248233  1 O  s          

 Vector   10  Occ=0.000000D+00  E= 8.762634D-02
              MO Center=  5.1D-01,  3.5D-01, -4.8D-11, r^2= 1.4D+01
   Bfn.  Coefficient  Atom+Function         Bfn.  Coefficient  Atom+Function  
  ----- ------------  ---------------      ----- ------------  ---------------
    26      2.707771  2 H  s                 33     -2.697722  3 H  s          
    32      0.447110  3 H  s                 25     -0.392161  2 H  s          
    16     -0.356055  1 O  py                15      0.227291  1 O  px         

 Vector   11  Occ=0.000000D+00  E= 2.393846D-01
              MO Center= -2.1D-01, -1.6D-01,  2.8D-08, r^2= 5.6D+00
   Bfn.  Coefficient  Atom+Function         Bfn.  Coefficient  Atom+Function  
  ----- ------------  ---------------      ----- ------------  ---------------
    14      3.917617  1 O  s                 25     -3.100875  2 H  s          
    32     -2.714556  3 H  s                 15      1.918874  1 O  px         
    16      1.450967  1 O  py                11     -0.350741  1 O  px         
    26      0.273547  2 H  s                 10      0.256598  1 O  s          
    12     -0.236593  1 O  py                33      0.217195  3 H  s          

 Vector   12  Occ=0.000000D+00  E= 2.778958D-01
              MO Center= -4.5D-01, -3.0D-01, -8.9D-13, r^2= 5.8D+00
   Bfn.  Coefficient  Atom+Function         Bfn.  Coefficient  Atom+Function  
  ----- ------------  ---------------      ----- ------------  ---------------
    25      3.546976  2 H  s                 32     -3.326621  3 H  s          
    16     -2.933457  1 O  py                15      2.015175  1 O  px         
    26      0.822301  2 H  s                 33     -0.772726  3 H  s          
    12      0.304320  1 O  py                24     -0.276644  2 H  s          
    14     -0.271411  1 O  s                 31      0.257758  3 H  s          

 Vector   13  Occ=0.000000D+00  E= 3.155864D-01
              MO Center=  5.1D-02,  4.6D-02, -1.1D-07, r^2= 5.4D+00
   Bfn.  Coefficient  Atom+Function         Bfn.  Coefficient  Atom+Function  
  ----- ------------  ---------------      ----- ------------  ---------------
    14      8.489218  1 O  s                 25     -4.186870  2 H  s          
    32     -3.877870  3 H  s                 15      1.490462  1 O  px         
    10     -1.152664  1 O  s                 16      1.148837  1 O  py         
    26     -0.438883  2 H  s                 33     -0.275044  3 H  s          
    24      0.252413  2 H  s                 31      0.227746  3 H  s          

 Vector   14  Occ=0.000000D+00  E= 4.916622D-01
              MO Center=  1.0D+00, -3.6D-01, -6.8D-11, r^2= 5.5D+00
   Bfn.  Coefficient  Atom+Function         Bfn.  Coefficient  Atom+Function  
  ----- ------------  ---------------      ----- ------------  ---------------
    32      3.970151  3 H  s                 25     -2.191034  2 H  s          
    33     -1.804005  3 H  s                 31     -1.339188  3 H  s          
    26      1.323609  2 H  s                 24      0.626943  2 H  s          
    14     -0.496235  1 O  s                 15     -0.407420  1 O  px         
    16      0.383242  1 O  py         

 Vector   15  Occ=0.000000D+00  E= 5.031108D-01
              MO Center=  5.0D-02,  1.1D+00, -5.3D-11, r^2= 4.9D+00
   Bfn.  Coefficient  Atom+Function         Bfn.  Coefficient  Atom+Function  
  ----- ------------  ---------------      ----- ------------  ---------------
    25      3.996054  2 H  s                 14     -2.103103  1 O  s          
    32      1.592302  3 H  s                 24     -1.382407  2 H  s          
    26     -1.171469  2 H  s                 31     -0.663481  3 H  s          
    16     -0.438747  1 O  py                10     -0.235122  1 O  s          
    15     -0.196470  1 O  px         


 center of mass
 --------------
 x =  -0.07599894 y =  -0.04856473 z =   0.00000000

 moments of inertia (a.u.)
 ------------------
           3.446374807332           1.235275668642           0.000000000000
           1.235275668642           2.833002082974           0.000000000000
           0.000000000000           0.000000000000           6.279376890306

  Mulliken analysis of the total density
  --------------------------------------

    Atom       Charge   Shell Charges
 -----------   ------   -------------------------------------------------------
    1 O    8     8.51   1.08  0.91  0.95  0.99  2.09  0.79  1.51 -0.01  0.19  0.01
    2 H    1     0.75   0.28  0.38  0.01  0.01  0.07
    3 H    1     0.74   0.26  0.40  0.02  0.01  0.07

       Multipole analysis of the density wrt the origin
       ------------------------------------------------

     L   x y z        total         open         nuclear
     -   - - -        -----         ----         -------
     0   0 0 0     -0.000000      0.000000     10.000000

     1   1 0 0      0.670122      0.000000     -0.000000
     1   0 1 0      0.442466      0.000000      0.000000
     1   0 0 1     -0.000000      0.000000      0.000000

     2   2 0 0     -4.229039      0.000000      2.679864
     2   1 1 0     -0.861647      0.000000     -1.309487
     2   1 0 1      0.000000      0.000000      0.000000
     2   0 2 0     -3.686156      0.000000      3.366065
     2   0 1 1      0.000000      0.000000      0.000000
     2   0 0 2     -5.744772      0.000000      0.000000


 Parallel integral file used       3 records with       0 large values

 ------------------------------------
     Number of active orbitals      8
     Number of active alpha electrons      5
     Number of active beta electrons       5
 ------------------------------------
                   NWChem Extensible Many-Electron Theory Module
                   ---------------------------------------------

              ======================================================
                   This portion of the program was automatically
                  generated by a Tensor Contraction Engine (TCE).
                  The development of this portion of the program
                 and TCE was supported by US Department of Energy,
                Office of Science, Office of Basic Energy Science.
                      TCE is a product of Battelle and PNNL.
              Please cite: S.Hirata, J.Phys.Chem.A 107, 9887 (2003).
              ======================================================

                                        H2O


            General Information
            -------------------
      Number of processors :     1
         Wavefunction type : Restricted Hartree-Fock
          No. of electrons :    10
           Alpha electrons :     5
            Beta electrons :     5
           No. of orbitals :    72
            Alpha orbitals :    36
             Beta orbitals :    36
        Alpha frozen cores :     0
         Beta frozen cores :     0
     Alpha frozen virtuals :    28
      Beta frozen virtuals :    28
         Spin multiplicity : singlet 
    Number of AO functions :    36
       Number of AO shells :    20
        Use of symmetry is : off
      Symmetry adaption is : off
         Schwarz screening : 0.10D-09

          Correlation Information
          -----------------------
          Calculation type : Coupled-cluster singles & doubles                           
   Perturbative correction : none                                                        
            Max iterations :      300
        Residual threshold : 0.10D-06
     T(0) DIIS level shift : 0.00D+00
     L(0) DIIS level shift : 0.00D+00
     T(1) DIIS level shift : 0.00D+00
     L(1) DIIS level shift : 0.00D+00
     T(R) DIIS level shift : 0.00D+00
     T(I) DIIS level shift : 0.00D+00
   CC-T/L Amplitude update :  5-th order DIIS
                I/O scheme : Global Array Library
        L-threshold :  0.10D-06
        EOM-threshold :  0.10D-06
 no EOMCCSD initial starts read in
 TCE RESTART OPTIONS
 READ_INT:   F
 WRITE_INT:  F
 READ_TA:    F
 WRITE_TA:   F
 READ_XA:    F
 WRITE_XA:   F
 READ_IN3:   F
 WRITE_IN3:  F
 SLICE:      F
 D4D5:       F
 quantumc:   T
 qrotation:  F
 pwtce:      F
 qducc:      F
 nacto:                         0
 nrotv:                         0
 nrot:                          0

            Memory Information
            ------------------
          Available GA space size is    1610611440 doubles
          Available MA space size is    1610610740 doubles

 Maximum block size supplied by input
 Maximum block size         1 doubles

 tile_dim =      1

 Block   Spin    Irrep     Size     Offset   Alpha
 -------------------------------------------------
   1    alpha     a      1 doubles       0       1
   2    alpha     a      1 doubles       1       2
   3    alpha     a      1 doubles       2       3
   4    alpha     a      1 doubles       3       4
   5    alpha     a      1 doubles       4       5
   6    beta      a      1 doubles       5       1
   7    beta      a      1 doubles       6       2
   8    beta      a      1 doubles       7       3
   9    beta      a      1 doubles       8       4
  10    beta      a      1 doubles       9       5
  11    alpha     a      1 doubles      10      11
  12    alpha     a      1 doubles      11      12
  13    alpha     a      1 doubles      12      13
  14    beta      a      1 doubles      13      11
  15    beta      a      1 doubles      14      12
  16    beta      a      1 doubles      15      13

 Global array virtual files algorithm will be used

 Parallel file system coherency ......... OK

 Integral file          = ./H2O.aoints.0
 Record size in doubles =  65536        No. of integs per rec  =  43688
 Max. records in memory =     10        Max. records in file   = 232553
 No. of bits per label  =      8        No. of bits per value  =     64


 #quartets = 2.216D+04 #integrals = 1.003D+05 #direct =  0.0% #cached =100.0%


 Fock matrix recomputed
 1-e file size   =               64
 1-e file name   = ./H2O.f1
 Cpu & wall time / sec            0.0            0.0
 4-electron integrals stored in orbital form

 v2    file size   =              666
 4-index algorithm nr.  13 is used
 imaxsize =       30
 imaxsize ichop =        0
 begin_one_electron_integrals
    1    1       -32.8801300791
    2    1        -2.0577016755
    3    1         0.0000000134
    4    1         0.1713734775
    5    1         0.1591891821
    6    1        -0.2410910493
    7    1         0.1771978071
    8    1        -0.0000000149
    1    2        -2.0577016755
    2    2        -7.9136080204
    3    2        -0.0000000229
    4    2        -0.2635803407
    5    2        -0.2414725634
    6    2         0.0712299172
    7    2        -0.0495304525
    8    2        -0.0000000092
    1    3         0.0000000134
    2    3        -0.0000000229
    3    3        -6.9719463947
    4    3        -0.0000000099
    5    3        -0.0000000095
    6    3         0.0000000186
    7    3        -0.0000000248
    8    3         2.2806926587
    1    4         0.1713734775
    2    4        -0.2635803407
    3    4        -0.0000000099
    4    4        -6.9456883372
    5    4        -0.1177493850
    6    4         0.3553835129
    7    4        -2.0401853211
    8    4        -0.0000000355
    1    5         0.1591891821
    2    5        -0.2414725634
    3    5        -0.0000000095
    4    5        -0.1177493850
    5    5        -6.8268172448
    6    5         2.0480518562
    7    5         0.3349227562
    8    5        -0.0000000224
    1    6        -0.2410910493
    2    6         0.0712299172
    3    6         0.0000000186
    4    6         0.3553835129
    5    6         2.0480518562
    6    6        -6.1567411874
    7    6        -0.0648112127
    8    6         0.0000000060
    1    7         0.1771978071
    2    7        -0.0495304525
    3    7        -0.0000000248
    4    7        -2.0401853211
    5    7         0.3349227562
    6    7        -0.0648112127
    7    7        -6.1957590186
    8    7        -0.0000000062
    1    8        -0.0000000149
    2    8        -0.0000000092
    3    8         2.2806926587
    4    8        -0.0000000355
    5    8        -0.0000000224
    6    8         0.0000000060
    7    8        -0.0000000062
    8    8        -5.4960861924
 end_one_electron_integrals
 begin_two_electron_integrals
    1    1    1    1        4.8401703391
    2    1    1    1       -0.0471735088
    2    1    2    1        0.0156842147
    3    1    1    1       -0.0000000136
    3    1    3    1        0.0249173532
    3    1    2    2       -0.0000000015
    4    1    1    1       -0.1017948764
    4    1    2    1       -0.0011550517
    4    1    3    1        0.0000000003
    4    1    4    1        0.0209056125
    4    1    2    2       -0.0125614063
    4    1    3    2       -0.0000000002
    4    1    3    3       -0.0032659426
    5    1    1    1       -0.0980163912
    5    1    2    1       -0.0009648074
    5    1    3    1        0.0000000003
    5    1    4    1        0.0034408389
    5    1    5    1        0.0199690787
    5    1    2    2       -0.0119529419
    5    1    3    2       -0.0000000002
    5    1    4    2       -0.0002102115
    5    1    3    3       -0.0031877090
    5    1    4    4       -0.0022491731
    6    1    1    1        0.1929355756
    6    1    2    1        0.0002091342
    6    1    3    1       -0.0000000009
    6    1    4    1       -0.0100733339
    6    1    5    1       -0.0326498611
    6    1    6    1        0.0551452943
    6    1    2    2        0.0232865451
    6    1    3    2        0.0000000003
    6    1    4    2       -0.0014266389
    6    1    5    2       -0.0238729584
    6    1    3    3        0.0046314246
    6    1    5    3       -0.0000000008
    6    1    4    4        0.0025472325
    6    1    5    4       -0.0056397321
    6    1    5    5       -0.0140422612
    7    1    1    1       -0.1440052239
    7    1    2    1       -0.0002571605
    7    1    3    1        0.0000000008
    7    1    4    1        0.0327406172
    7    1    5    1       -0.0009543067
    7    1    6    1       -0.0056061951
    7    1    7    1        0.0543217942
    7    1    2    2       -0.0175573462
    7    1    4    2        0.0262178895
    7    1    5    2       -0.0072524312
    7    1    6    2        0.0051820344
    7    1    3    3       -0.0032282080
    7    1    4    3        0.0000000009
    7    1    5    3       -0.0000000002
    7    1    6    3        0.0000000001
    7    1    4    4        0.0168261922
    7    1    5    4        0.0034803872
    7    1    6    4       -0.0059868044
    7    1    5    5       -0.0069853581
    7    1    6    5        0.0052566575
    7    1    6    6       -0.0095915114
    8    1    1    1        0.0000000120
    8    1    2    1        0.0000000002
    8    1    3    1       -0.0362524760
    8    1    4    1        0.0000000002
    8    1    6    1        0.0000000003
    8    1    7    1       -0.0000000002
    8    1    8    1        0.0539295644
    8    1    2    2        0.0000000018
    8    1    3    2       -0.0352388020
    8    1    4    2        0.0000000008
    8    1    5    2        0.0000000006
    8    1    6    2       -0.0000000006
    8    1    7    2        0.0000000005
    8    1    3    3       -0.0000000019
    8    1    4    3       -0.0077427392
    8    1    5    3       -0.0075687466
    8    1    6    3        0.0106349154
    8    1    7    3       -0.0079046171
    8    1    4    4        0.0000000007
    8    1    5    4        0.0000000002
    8    1    6    4       -0.0000000003
    8    1    7    4        0.0000000004
    8    1    5    5        0.0000000005
    8    1    6    5       -0.0000000004
    8    1    7    5        0.0000000002
    8    1    6    6        0.0000000007
    8    1    7    6       -0.0000000002
    8    1    7    7        0.0000000006
    2    2    1    1        1.0521668518
    2    2    2    1        0.0230826930
    2    2    2    2        0.8489614859
    3    2    1    1        0.0000000013
    3    2    2    1       -0.0000000002
    3    2    3    1        0.0186061458
    3    2    2    2       -0.0000000044
    3    2    3    2        0.1288644500
    4    2    1    1       -0.0090427408
    4    2    2    1       -0.0019857331
    4    2    3    1       -0.0000000002
    4    2    4    1        0.0126510147
    4    2    2    2       -0.0488887108
    4    2    3    2       -0.0000000026
    4    2    4    2        0.0899080595
    4    2    3    3        0.0092260129
    5    2    1    1       -0.0063755698
    5    2    2    1       -0.0017665605
    5    2    3    1       -0.0000000001
    5    2    4    1       -0.0002946300
    5    2    5    1        0.0121620824
    5    2    2    2       -0.0450095279
    5    2    3    2       -0.0000000025
    5    2    4    2       -0.0173936663
    5    2    5    2        0.0859507703
    5    2    3    3        0.0091824436
    5    2    4    3       -0.0000000007
    5    2    4    4       -0.0088569072
    6    2    1    1       -0.0090207938
    6    2    2    1        0.0026646793
    6    2    3    1        0.0000000002
    6    2    4    1       -0.0003241839
    6    2    5    1       -0.0138061229
    6    2    6    1        0.0227231030
    6    2    2    2        0.0249281232
    6    2    3    2        0.0000000018
    6    2    4    2        0.0072413404
    6    2    5    2       -0.0516836877
    6    2    6    2        0.0446710774
    6    2    3    3       -0.0138601909
    6    2    4    3        0.0000000004
    6    2    5    3       -0.0000000012
    6    2    4    4       -0.0045938370
    6    2    5    4       -0.0081273181
    6    2    5    5       -0.0313590291
    7    2    1    1        0.0056894637
    7    2    2    1       -0.0020988558
    7    2    4    1        0.0147337486
    7    2    5    1       -0.0045160778
    7    2    6    1        0.0050383710
    7    2    7    1        0.0263478276
    7    2    2    2       -0.0170085987
    7    2    3    2       -0.0000000010
    7    2    4    2        0.0539766654
    7    2    5    2       -0.0246402590
    7    2    6    2        0.0170141636
    7    2    7    2        0.0533101090
    7    2    3    3        0.0101705734
    7    2    4    3        0.0000000013
    7    2    5    3       -0.0000000008
    7    2    6    3        0.0000000006
    7    2    4    4        0.0284128855
    7    2    5    4        0.0048424631
    7    2    6    4       -0.0091231508
    7    2    5    5       -0.0043739757
    7    2    6    5       -0.0015073701
    7    2    6    6       -0.0019918196
    8    2    1    1        0.0000000022
    8    2    2    1        0.0000000003
    8    2    3    1       -0.0189395753
    8    2    4    1        0.0000000004
    8    2    5    1        0.0000000003
    8    2    6    1       -0.0000000003
    8    2    7    1        0.0000000003
    8    2    8    1        0.0271857221
    8    2    2    2        0.0000000030
    8    2    3    2       -0.0525662476
    8    2    4    2        0.0000000012
    8    2    5    2        0.0000000009
    8    2    6    2       -0.0000000011
    8    2    7    2        0.0000000009
    8    2    8    2        0.0457447408
    8    2    3    3       -0.0000000024
    8    2    4    3       -0.0075034909
    8    2    5    3       -0.0076603136
    8    2    6    3        0.0138816083
    8    2    7    3       -0.0102066553
    8    2    4    4        0.0000000011
    8    2    5    4        0.0000000002
    8    2    6    4       -0.0000000005
    8    2    7    4        0.0000000006
    8    2    5    5        0.0000000009
    8    2    6    5       -0.0000000006
    8    2    7    5        0.0000000002
    8    2    6    6        0.0000000007
    8    2    7    6       -0.0000000003
    8    2    7    7        0.0000000005
    3    3    1    1        1.0147246150
    3    3    2    1        0.0200686239
    3    3    3    1        0.0000000009
    3    3    2    2        0.7147374745
    3    3    3    2        0.0000000079
    3    3    3    3        0.7281637480
    4    3    1    1        0.0000000003
    4    3    2    1       -0.0000000001
    4    3    3    1        0.0045969426
    4    3    4    1        0.0000000005
    4    3    2    2       -0.0000000030
    4    3    3    2        0.0221989253
    4    3    4    2        0.0000000017
    4    3    3    3        0.0000000019
    4    3    4    3        0.0363403701
    5    3    1    1        0.0000000005
    5    3    2    1       -0.0000000001
    5    3    3    1        0.0044713565
    5    3    5    1        0.0000000005
    5    3    2    2       -0.0000000027
    5    3    3    2        0.0218867146
    5    3    4    2       -0.0000000007
    5    3    5    2        0.0000000016
    5    3    3    3        0.0000000019
    5    3    4    3        0.0061724811
    5    3    5    3        0.0352732659
    5    3    4    4       -0.0000000001
    6    3    1    1       -0.0000000046
    6    3    2    1        0.0000000001
    6    3    3    1       -0.0073940757
    6    3    5    1       -0.0000000004
    6    3    6    1        0.0000000008
    6    3    2    2        0.0000000009
    6    3    3    2       -0.0202213164
    6    3    4    2        0.0000000005
    6    3    5    2       -0.0000000013
    6    3    6    2        0.0000000009
    6    3    3    3       -0.0000000032
    6    3    4    3       -0.0064377938
    6    3    5    3       -0.0197054767
    6    3    6    3        0.0254602836
    6    3    4    4       -0.0000000012
    6    3    5    4       -0.0000000004
    6    3    5    5       -0.0000000025
    7    3    1    1        0.0000000060
    7    3    3    1        0.0055013822
    7    3    4    1        0.0000000004
    7    3    5    1       -0.0000000002
    7    3    6    1        0.0000000002
    7    3    7    1        0.0000000009
    7    3    2    2        0.0000000005
    7    3    3    2        0.0150103815
    7    3    4    2        0.0000000014
    7    3    5    2       -0.0000000009
    7    3    6    2        0.0000000006
    7    3    7    2        0.0000000014
    7    3    3    3        0.0000000034
    7    3    4    3        0.0182819103
    7    3    5    3        0.0000333229
    7    3    6    3       -0.0037618424
    7    3    7    3        0.0230871472
    7    3    4    4        0.0000000029
    7    3    5    4        0.0000000002
    7    3    6    4       -0.0000000006
    7    3    5    5        0.0000000013
    7    3    6    5       -0.0000000014
    7    3    6    6        0.0000000018
    8    3    1    1       -0.5414276308
    8    3    2    1       -0.0185399257
    8    3    3    1       -0.0000000006
    8    3    4    1        0.0039463728
    8    3    5    1        0.0037602716
    8    3    6    1       -0.0068541494
    8    3    7    1        0.0051152738
    8    3    8    1        0.0000000011
    8    3    2    2       -0.2202251548
    8    3    3    2       -0.0000000032
    8    3    4    2        0.0011592635
    8    3    5    2       -0.0000983256
    8    3    6    2        0.0089379993
    8    3    7    2       -0.0063361753
    8    3    8    2        0.0000000018
    8    3    3    3       -0.2145398850
    8    3    4    3       -0.0000000003
    8    3    5    3       -0.0000000005
    8    3    6    3        0.0000000022
    8    3    7    3       -0.0000000023
    8    3    8    3        0.1682537349
    8    3    4    4       -0.1628036859
    8    3    5    4       -0.0048355530
    8    3    6    4        0.0218241055
    8    3    7    4       -0.1252262576
    8    3    5    5       -0.1579433785
    8    3    6    5        0.1245997501
    8    3    7    5        0.0203991631
    8    3    6    6       -0.1882840159
    8    3    7    6       -0.0041539759
    8    3    7    7       -0.1933540182
    4    4    1    1        0.9191198360
    4    4    2    1        0.0157467004
    4    4    3    1       -0.0000000004
    4    4    4    1        0.0052579114
    4    4    2    2        0.6396531839
    4    4    4    2        0.0829283237
    4    4    3    3        0.6296443967
    4    4    4    3        0.0000000027
    4    4    4    4        0.7817358590
    5    4    1    1        0.0192976870
    5    4    2    1       -0.0003104456
    5    4    4    1        0.0032038328
    5    4    5    1        0.0032666364
    5    4    2    2       -0.0128100997
    5    4    3    2       -0.0000000007
    5    4    4    2        0.0055949625
    5    4    5    2        0.0097767002
    5    4    3    3        0.0089316621
    5    4    4    3        0.0000000002
    5    4    5    3        0.0000000003
    5    4    4    4        0.0122288604
    5    4    5    4        0.0300803935
    6    4    1    1       -0.0858072917
    6    4    2    1       -0.0006663047
    6    4    3    1        0.0000000001
    6    4    4    1       -0.0048499693
    6    4    5    1       -0.0025266112
    6    4    6    1        0.0049784453
    6    4    2    2       -0.0173038453
    6    4    3    2        0.0000000005
    6    4    4    2       -0.0073237234
    6    4    5    2       -0.0085421942
    6    4    6    2        0.0059464717
    6    4    3    3       -0.0314482607
    6    4    4    3       -0.0000000003
    6    4    5    3       -0.0000000003
    6    4    6    3        0.0000000004
    6    4    4    4       -0.0291029995
    6    4    5    4       -0.0178028006
    6    4    6    4        0.0248108190
    6    4    5    5       -0.0369124556
    7    4    1    1        0.4839569251
    7    4    2    1        0.0143887339
    7    4    3    1       -0.0000000004
    7    4    4    1        0.0042958284
    7    4    5    1       -0.0041091069
    7    4    6    1        0.0054579951
    7    4    7    1        0.0038752078
    7    4    2    2        0.2038537345
    7    4    3    2        0.0000000011
    7    4    4    2       -0.0102034302
    7    4    5    2        0.0045785159
    7    4    6    2       -0.0075423376
    7    4    7    2        0.0194072509
    7    4    3    3        0.1783389268
    7    4    5    3        0.0000000003
    7    4    6    3       -0.0000000012
    7    4    7    3        0.0000000021
    7    4    4    4        0.1189559763
    7    4    5    4        0.0077961055
    7    4    6    4       -0.0335395143
    7    4    7    4        0.1996976651
    7    4    5    5        0.1549725978
    7    4    6    5       -0.1075735880
    7    4    6    6        0.1801585675
    8    4    1    1        0.0000000079
    8    4    2    1        0.0000000004
    8    4    3    1       -0.0034474930
    8    4    4    1       -0.0000000002
    8    4    7    1       -0.0000000004
    8    4    8    1        0.0044099430
    8    4    2    2        0.0000000038
    8    4    3    2       -0.0037917108
    8    4    4    2        0.0000000001
    8    4    6    2       -0.0000000003
    8    4    8    2        0.0045282291
    8    4    3    3        0.0000000027
    8    4    4    3       -0.0073146898
    8    4    5    3       -0.0016313112
    8    4    6    3        0.0050234503
    8    4    7    3       -0.0170542275
    8    4    8    3       -0.0000000018
    8    4    4    4        0.0000000031
    8    4    5    4        0.0000000001
    8    4    6    4       -0.0000000003
    8    4    7    4        0.0000000019
    8    4    8    4        0.0157158505
    8    4    5    5        0.0000000025
    8    4    6    5       -0.0000000019
    8    4    7    5       -0.0000000002
    8    4    6    6        0.0000000029
    8    4    7    7        0.0000000031
    5    5    1    1        0.8990353813
    5    5    2    1        0.0153478589
    5    5    3    1       -0.0000000004
    5    5    4    1       -0.0021108301
    5    5    5    1        0.0049754555
    5    5    2    2        0.6281891182
    5    5    4    2       -0.0048019358
    5    5    5    2        0.0791530696
    5    5    3    3        0.6197136935
    5    5    5    3        0.0000000025
    5    5    4    4        0.5815154080
    5    5    5    4        0.0198676359
    5    5    5    5        0.7629444481
    6    5    1    1       -0.4800937120
    6    5    2    1       -0.0135994190
    6    5    3    1        0.0000000004
    6    5    4    1        0.0030365900
    6    5    5    1       -0.0053556027
    6    5    6    1        0.0039866612
    6    5    2    2       -0.2027954188
    6    5    3    2       -0.0000000010
    6    5    4    2       -0.0050993185
    6    5    5    2        0.0062001260
    6    5    6    2        0.0212916200
    6    5    3    3       -0.1808090920
    6    5    4    3       -0.0000000003
    6    5    5    3       -0.0000000002
    6    5    6    3        0.0000000016
    6    5    4    4       -0.1655096565
    6    5    5    4       -0.0085719475
    6    5    6    4        0.0224474968
    6    5    5    5       -0.1138174618
    6    5    6    5        0.2048613895
    7    5    1    1       -0.0771085310
    7    5    2    1       -0.0040980899
    7    5    4    1        0.0036153109
    7    5    5    1        0.0033038214
    7    5    6    1       -0.0062046786
    7    5    7    1        0.0048525946
    7    5    2    2       -0.0509318534
    7    5    3    2       -0.0000000008
    7    5    4    2        0.0088127115
    7    5    5    2        0.0083289682
    7    5    6    2       -0.0036716003
    7    5    7    2        0.0016072449
    7    5    3    3       -0.0291601376
    7    5    4    3        0.0000000003
    7    5    5    3        0.0000000002
    7    5    6    3       -0.0000000002
    7    5    7    3       -0.0000000001
    7    5    4    4       -0.0128318350
    7    5    5    4        0.0135582057
    7    5    6    4       -0.0135753396
    7    5    7    4       -0.0231912691
    7    5    5    5       -0.0146097836
    7    5    6    5        0.0254102215
    7    5    7    5        0.0219878435
    7    5    6    6       -0.0127003780
    8    5    1    1        0.0000000048
    8    5    2    1        0.0000000003
    8    5    3    1       -0.0034193035
    8    5    5    1       -0.0000000002
    8    5    6    1        0.0000000003
    8    5    8    1        0.0044083163
    8    5    2    2        0.0000000025
    8    5    3    2       -0.0040777048
    8    5    5    2        0.0000000002
    8    5    7    2        0.0000000002
    8    5    8    2        0.0047607335
    8    5    3    3        0.0000000015
    8    5    4    3       -0.0016497418
    8    5    5    3       -0.0067947542
    8    5    6    3        0.0173502368
    8    5    7    3        0.0007154173
    8    5    8    3       -0.0000000009
    8    5    4    4        0.0000000016
    8    5    5    4        0.0000000002
    8    5    6    4       -0.0000000004
    8    5    7    4        0.0000000012
    8    5    8    4        0.0013447228
    8    5    5    5        0.0000000022
    8    5    6    5       -0.0000000009
    8    5    7    5       -0.0000000002
    8    5    8    5        0.0156364608
    8    5    6    6        0.0000000021
    8    5    7    7        0.0000000018
    6    6    1    1        1.0742160038
    6    6    2    1        0.0201676386
    6    6    3    1       -0.0000000006
    6    6    4    1       -0.0034054187
    6    6    5    1        0.0066370768
    6    6    6    1       -0.0149428340
    6    6    2    2        0.6231366025
    6    6    3    2        0.0000000004
    6    6    4    2       -0.0029561078
    6    6    5    2        0.0732317216
    6    6    6    2       -0.0339235845
    6    6    3    3        0.6249123566
    6    6    4    3        0.0000000002
    6    6    5    3        0.0000000028
    6    6    6    3       -0.0000000031
    6    6    4    4        0.5851853989
    6    6    5    4        0.0253226950
    6    6    6    4       -0.0462880648
    6    6    5    5        0.7468044796
    6    6    6    5       -0.1297319332
    6    6    6    6        0.7892676539
    7    6    1    1        0.0132444230
    7    6    2    1        0.0030819181
    7    6    4    1       -0.0067439800
    7    6    5    1       -0.0033340956
    7    6    6    1        0.0055848073
    7    6    7    1       -0.0107435236
    7    6    2    2        0.0313071133
    7    6    3    2        0.0000000006
    7    6    4    2       -0.0239339783
    7    6    5    2        0.0006790261
    7    6    6    2        0.0050485133
    7    6    7    2       -0.0112676048
    7    6    3    3        0.0035100760
    7    6    4    3       -0.0000000011
    7    6    5    3       -0.0000000003
    7    6    6    3        0.0000000003
    7    6    7    3       -0.0000000006
    7    6    4    4       -0.0331174808
    7    6    5    4       -0.0225640947
    7    6    6    4        0.0170947059
    7    6    7    4        0.0114547688
    7    6    5    5        0.0187020195
    7    6    6    5        0.0081055769
    7    6    7    5       -0.0189867976
    7    6    6    6        0.0151334528
    7    6    7    6        0.0353217301
    8    6    1    1       -0.0000000016
    8    6    2    1       -0.0000000003
    8    6    3    1        0.0074771282
    8    6    5    1        0.0000000003
    8    6    6    1       -0.0000000005
    8    6    7    1       -0.0000000001
    8    6    8    1       -0.0120311396
    8    6    2    2       -0.0000000026
    8    6    3    2        0.0281123015
    8    6    4    2       -0.0000000007
    8    6    5    2        0.0000000002
    8    6    6    2       -0.0000000003
    8    6    7    2       -0.0000000006
    8    6    8    2       -0.0111839759
    8    6    3    3        0.0000000021
    8    6    4    3        0.0102882742
    8    6    5    3        0.0284494154
    8    6    6    3       -0.0194212000
    8    6    7    3        0.0029108305
    8    6    8    3       -0.0000000003
    8    6    4    4       -0.0000000007
    8    6    5    4       -0.0000000003
    8    6    6    4        0.0000000002
    8    6    7    4       -0.0000000002
    8    6    8    4       -0.0025263061
    8    6    5    5       -0.0000000001
    8    6    6    5        0.0000000002
    8    6    8    5       -0.0085452858
    8    6    8    6        0.0319377072
    8    6    7    7       -0.0000000006
    7    7    1    1        1.1005909654
    7    7    2    1        0.0223533829
    7    7    3    1       -0.0000000005
    7    7    4    1        0.0033404821
    7    7    5    1       -0.0068733054
    7    7    6    1        0.0104475938
    7    7    7    1        0.0139647621
    7    7    2    2        0.6490061138
    7    7    3    2        0.0000000011
    7    7    4    2        0.0682372193
    7    7    5    2       -0.0132711408
    7    7    6    2       -0.0019146926
    7    7    7    2        0.0252613701
    7    7    3    3        0.6327391847
    7    7    4    3        0.0000000029
    7    7    5    3       -0.0000000001
    7    7    6    3       -0.0000000015
    7    7    7    3        0.0000000035
    7    7    4    4        0.7532789840
    7    7    5    4        0.0020781460
    7    7    6    4       -0.0242461182
    7    7    7    4        0.1365887200
    7    7    5    5        0.5769149215
    7    7    6    5       -0.1877505959
    7    7    7    5       -0.0238257286
    7    7    6    6        0.6015578987
    7    7    7    6       -0.0225123230
    7    7    7    7        0.7902003280
    8    7    1    1        0.0000000014
    8    7    2    1        0.0000000002
    8    7    3    1       -0.0055651482
    8    7    4    1       -0.0000000003
    8    7    5    1        0.0000000001
    8    7    6    1       -0.0000000001
    8    7    7    1       -0.0000000006
    8    7    8    1        0.0089194900
    8    7    2    2        0.0000000021
    8    7    3    2       -0.0207273145
    8    7    4    2       -0.0000000002
    8    7    5    2        0.0000000006
    8    7    6    2       -0.0000000005
    8    7    7    2       -0.0000000007
    8    7    8    2        0.0081555954
    8    7    3    3       -0.0000000016
    8    7    4    3       -0.0275129038
    8    7    5    3       -0.0009375513
    8    7    6    3        0.0029351053
    8    7    7    3       -0.0173110840
    8    7    8    3        0.0000000002
    8    7    4    4        0.0000000006
    8    7    5    4        0.0000000002
    8    7    7    4        0.0000000001
    8    7    8    4        0.0084323157
    8    7    5    5        0.0000000006
    8    7    6    5       -0.0000000003
    8    7    8    5       -0.0002899634
    8    7    6    6        0.0000000006
    8    7    7    6        0.0000000001
    8    7    8    6       -0.0056802763
    8    7    7    7        0.0000000002
    8    7    8    7        0.0291042617
    8    8    1    1        1.0432405335
    8    8    2    1        0.0218728108
    8    8    3    1        0.0000000004
    8    8    4    1       -0.0057837301
    8    8    5    1       -0.0054889089
    8    8    6    1        0.0090310556
    8    8    7    1       -0.0066829845
    8    8    8    1       -0.0000000013
    8    8    2    2        0.6290873407
    8    8    3    2        0.0000000055
    8    8    4    2        0.0045700086
    8    8    5    2        0.0051482805
    8    8    6    2       -0.0091093055
    8    8    7    2        0.0062731993
    8    8    8    2       -0.0000000014
    8    8    3    3        0.6391206972
    8    8    4    3        0.0000000006
    8    8    5    3        0.0000000009
    8    8    6    3       -0.0000000022
    8    8    7    3        0.0000000024
    8    8    8    3       -0.1957803857
    8    8    4    4        0.5625019286
    8    8    5    4        0.0069810354
    8    8    6    4       -0.0276558909
    8    8    7    4        0.1590039031
    8    8    8    4        0.0000000028
    8    8    5    5        0.5547843865
    8    8    6    5       -0.1599149392
    8    8    7    5       -0.0261566560
    8    8    8    5        0.0000000017
    8    8    6    6        0.5791049501
    8    8    7    6        0.0040800886
    8    8    8    6        0.0000000010
    8    8    7    7        0.5867724682
    8    8    8    7       -0.0000000006
    8    8    8    8        0.6015848048
 end_two_electron_integrals
 enrep_tce =    9.2460951522674861     
  EHF(A)             =       -76.05009642
  EHF(total)         =       -76.05009642
  Shift (HFtot-HFA)  =         0.00000000
 Cpu & wall time / sec            0.3            0.3
 T1-number-of-tasks                   15

 t1 file size   =               15
 t1 file name   = ./H2O.t1
 t1 file handle =       -998
 T2-number-of-boxes                  315

 t2 file size   =              315
 t2 file name   = ./H2O.t2
 t2 file handle =       -996
CCSD iterations
 ---------------------------------------------------------
 Iter          Residuum       Correlation     Cpu    Wall 
 ---------------------------------------------------------
NEW TASK SCHEDULING
CCSD_T1_NTS --- OK
CCSD_T2_NTS --- OK
    1   0.7897270414473  -0.2335276823237     2.1     2.8
    2   1.3328750241310   0.1361448071126     2.5     3.4
    3   2.3084697913709  -0.4829746536538     2.1     2.8
    4   4.0726407694194   0.5691928184939     2.6     3.5
    5   6.9870306674643  -1.2537674895913     1.9     2.7
 MICROCYCLE DIIS UPDATE:                    5                    5
    6   0.0166474062291  -0.0911542504433     2.7     3.6
    7   0.0179922438745  -0.0956576837682     1.9     2.6
    8   0.0253694802180  -0.0887156016112     2.6     3.6
    9   0.0429934470080  -0.0985063670810     1.9     2.5
   10   0.0805586750602  -0.0760336676299     2.7     3.6
 MICROCYCLE DIIS UPDATE:                   10                    5
   11   0.0003689876303  -0.0930950724445     1.9     2.6
   12   0.0005119505358  -0.0932041890784     2.6     3.6
   13   0.0008141477389  -0.0930356421671     1.8     2.6
   14   0.0013762826372  -0.0933016979901     2.5     3.6
   15   0.0024014355287  -0.0928726343839     1.9     2.6
 MICROCYCLE DIIS UPDATE:                   15                    5
   16   0.0000061126583  -0.0931386862735     2.6     3.5
   17   0.0000061328038  -0.0931378853389     1.9     2.7
   18   0.0000101784154  -0.0931395841486     2.4     3.4
   19   0.0000184562807  -0.0931362922629     2.0     2.8
   20   0.0000341626090  -0.0931424415657     2.5     3.4
 MICROCYCLE DIIS UPDATE:                   20                    5
   21   0.0000001980003  -0.0931384357044     2.1     2.8
   22   0.0000002452723  -0.0931384740062     2.5     3.3
   23   0.0000004491857  -0.0931384100863     2.2     2.9
   24   0.0000008550934  -0.0931385195149     2.3     3.3
   25   0.0000016481778  -0.0931383305576     2.1     3.0
 MICROCYCLE DIIS UPDATE:                   25                    5
   26   0.0000000054653  -0.0931384505033     2.7     3.4
 -----------------------------------------------------------------
 Iterations converged
 CCSD correlation energy / hartree =        -0.093138450503321
 CCSD total energy / hartree       =       -76.143234870475311

 Singles contributions

 Doubles contributions
     6a   (alpha)     7a   (alpha) ---     4a   (alpha)     5a   (alpha)       -0.0228247993
     6a   (alpha)     8a   (alpha) ---     3a   (alpha)     5a   (alpha)        0.0295902416
     6a   (alpha)     6a   (beta ) ---     5a   (alpha)     5a   (beta )       -0.0823548585
     6a   (alpha)     7a   (beta ) ---     5a   (alpha)     4a   (beta )        0.0320699029
     6a   (alpha)     8a   (beta ) ---     5a   (alpha)     3a   (beta )       -0.0401206970
     7a   (alpha)     8a   (alpha) ---     3a   (alpha)     4a   (alpha)       -0.0293490837
     7a   (alpha)     6a   (beta ) ---     4a   (alpha)     5a   (beta )        0.0320699029
     7a   (alpha)     7a   (beta ) ---     4a   (alpha)     4a   (beta )       -0.0742577692
     7a   (alpha)     8a   (beta ) ---     4a   (alpha)     3a   (beta )        0.0393465500
     8a   (alpha)     6a   (beta ) ---     3a   (alpha)     5a   (beta )       -0.0401206970
     8a   (alpha)     7a   (beta ) ---     3a   (alpha)     4a   (beta )        0.0393465500
     8a   (alpha)     8a   (beta ) ---     3a   (alpha)     3a   (beta )       -0.0602690505
 Ground state specification:
 exp(T)|Ref>~(1+T)|Ref>
 ------- a(p)+/a(q) strings ----------

 singles norm

 doubles norm

 Reference string
   1.0000000000000000      :(1a)+ (2a)+ (3a)+ (4a)+ (5a)+ (1b)+ (2b)+ (3b)+ (4b)+ (5b)+ |0>

 Singles strings

 Doubles strings
 -------------------------------------

 Parallel integral file used       3 records with       0 large values


 Task  times  cpu:       59.9s     wall:       81.8s


                                NWChem Input Module
                                -------------------


 Summary of allocated global arrays
-----------------------------------
  No active global arrays


MA_summarize_allocated_blocks: starting scan ...
MA_summarize_allocated_blocks: scan completed: 0 heap blocks, 0 stack blocks
MA usage statistics:

	allocation statistics:
					      heap	     stack
					      ----	     -----
	current number of blocks	         0	         0
	maximum number of blocks	        18	        42
	current total bytes		         0	         0
	maximum total bytes		   5323032	  24073272
	maximum total K-bytes		      5324	     24074
	maximum total M-bytes		         6	        25


                                     CITATION
                                     --------
                Please cite the following reference when publishing
                           results obtained with NWChem:

          E. Apra, E. J. Bylaska, W. A. de Jong, N. Govind, K. Kowalski,
       T. P. Straatsma, M. Valiev, H. J. J. van Dam, Y. Alexeev, J. Anchell,
       V. Anisimov, F. W. Aquino, R. Atta-Fynn, J. Autschbach, N. P. Bauman,
     J. C. Becca, D. E. Bernholdt, K. Bhaskaran-Nair, S. Bogatko, P. Borowski,
         J. Boschen, J. Brabec, A. Bruner, E. Cauet, Y. Chen, G. N. Chuev,
      C. J. Cramer, J. Daily, M. J. O. Deegan, T. H. Dunning Jr., M. Dupuis,
   K. G. Dyall, G. I. Fann, S. A. Fischer, A. Fonari, H. Fruchtl, L. Gagliardi,
      J. Garza, N. Gawande, S. Ghosh, K. Glaesemann, A. W. Gotz, J. Hammond,
       V. Helms, E. D. Hermes, K. Hirao, S. Hirata, M. Jacquelin, L. Jensen,
   B. G. Johnson, H. Jonsson, R. A. Kendall, M. Klemm, R. Kobayashi, V. Konkov,
      S. Krishnamoorthy, M. Krishnan, Z. Lin, R. D. Lins, R. J. Littlefield,
      A. J. Logsdail, K. Lopata, W. Ma, A. V. Marenich, J. Martin del Campo,
   D. Mejia-Rodriguez, J. E. Moore, J. M. Mullin, T. Nakajima, D. R. Nascimento,
    J. A. Nichols, P. J. Nichols, J. Nieplocha, A. Otero-de-la-Roza, B. Palmer,
    A. Panyala, T. Pirojsirikul, B. Peng, R. Peverati, J. Pittner, L. Pollack,
   R. M. Richard, P. Sadayappan, G. C. Schatz, W. A. Shelton, D. W. Silverstein,
   D. M. A. Smith, T. A. Soares, D. Song, M. Swart, H. L. Taylor, G. S. Thomas,
            V. Tipparaju, D. G. Truhlar, K. Tsemekhman, T. Van Voorhis,
      A. Vazquez-Mayagoitia, P. Verma, O. Villa, A. Vishnu, K. D. Vogiatzis,
        D. Wang, J. H. Weare, M. J. Williamson, T. L. Windus, K. Wolinski,
        A. T. Wong, Q. Wu, C. Yang, Q. Yu, M. Zacharias, Z. Zhang, Y. Zhao,
                                and R. J. Harrison
                        "NWChem: Past, present, and future
                         J. Chem. Phys. 152, 184102 (2020)
                               doi:10.1063/5.0004997

                                      AUTHORS
                                      -------
  E. Apra, E. J. Bylaska, N. Govind, K. Kowalski, M. Valiev, D. Mejia-Rodriguez,
       A. Kunitsa, N. P. Bauman, A. Panyala, W. A. de Jong, T. P. Straatsma,
        H. J. J. van Dam, D. Wang, T. L. Windus, J. Hammond, J. Autschbach,
    K. Bhaskaran-Nair, J. Brabec, K. Lopata, S. A. Fischer, S. Krishnamoorthy,
     M. Jacquelin, W. Ma, M. Klemm, O. Villa, Y. Chen, V. Anisimov, F. Aquino,
    S. Hirata, M. T. Hackler, Eric Hermes, L. Jensen, J. E. Moore, J. C. Becca,
      V. Konjkov, T. Risthaus, M. Malagoli, A. Marenich, A. Otero-de-la-Roza,
        J. Mullin, P. Nichols, R. Peverati, J. Pittner, Y. Zhao, P.-D. Fan,
        A. Fonari, M. J. Williamson, R. J. Harrison, J. R. Rehr, M. Dupuis,
     D. Silverstein, D. M. A. Smith, J. Nieplocha, V. Tipparaju, M. Krishnan,
     B. E. Van Kuiken, A. Vazquez-Mayagoitia, M. Swart, Q. Wu, T. Van Voorhis,
     A. A. Auer, M. Nooijen, L. D. Crosby, E. Brown, G. Cisneros, G. I. Fann,
   H. Fruchtl, J. Garza, K. Hirao, R. A. Kendall, J. A. Nichols, K. Tsemekhman,
    K. Wolinski, J. Anchell, D. E. Bernholdt, P. Borowski, T. Clark, D. Clerc,
   H. Dachsel, M. J. O. Deegan, K. Dyall, D. Elwood, E. Glendening, M. Gutowski,
   A. C. Hess, J. Jaffe, B. G. Johnson, J. Ju, R. Kobayashi, R. Kutteh, Z. Lin,
   R. Littlefield, X. Long, B. Meng, T. Nakajima, S. Niu, L. Pollack, M. Rosing,
   K. Glaesemann, G. Sandrone, M. Stave, H. Taylor, G. Thomas, J. H. van Lenthe,
                               A. T. Wong, Z. Zhang.

 Total times  cpu:       63.7s     wall:       88.3s
