 argument  1 = input.nw
  NWChem w/ OpenMP: maximum threads =    1



============================== echo of input deck ==============================
 echo
 start H2O
 title "H2O"

 memory total 24 gb

 geometry units bohr
 symmetry c1
        O  0.00000000  0.00000000  0.00000000
        H  0.00000000  1.96327425  0.00000000
        H  1.72558000 -0.64860000  0.00000000
 end

 basis spherical
   * library 6-311++G**
 end

 mcscf
   active  8
   actelec 10
   multiplicity 1
   maxiter 40
   vectors input h2o.mos
   vectors output h2o.mos
 end

 task mcscf

 scf
   vectors input h2o.mos
   vectors output h2o-trash.mos
   noscf
 end

 tce
   2eorb
   2emet 13
   ccsd
   maxiter 300
 end

 set tce:print_integrals T
 set tce:qorb 8
 set tce:qela 5
 set tce:qelb 5

# set tce:qducc T
# set tce:nactv 3
# set tce:nonhf T
# set tce:ducc_model 6

 set tce:printtol 0.02

 task tce
================================================================================


                                         
                                         


             Northwest Computational Chemistry Package (NWChem) 7.0.1
             --------------------------------------------------------


                    Environmental Molecular Sciences Laboratory
                       Pacific Northwest National Laboratory
                                Richland, WA 99352

                              Copyright (c) 1994-2020
                       Pacific Northwest National Laboratory
                            Battelle Memorial Institute

             NWChem is an open-source computational chemistry package
                        distributed under the terms of the
                      Educational Community License (ECL) 2.0
             A copy of the license is included with this distribution
                              in the LICENSE.TXT file

                                  ACKNOWLEDGMENT
                                  --------------

            This software and its documentation were developed at the
            EMSL at Pacific Northwest National Laboratory, a multiprogram
            national laboratory, operated for the U.S. Department of Energy
            by Battelle under Contract Number DE-AC05-76RL01830. Support
            for this work was provided by the Department of Energy Office
            of Biological and Environmental Research, Office of Basic
            Energy Sciences, and the Office of Advanced Scientific Computing.


           Job information
           ---------------

    hostname        = WE46210
    program         = /home/baum612/code/nwchem/bin/LINUX64/nwchem
    date            = Wed Sep  4 15:01:16 2024

    compiled        = Wed_Sep_04_02:00:17_2024
    source          = /home/baum612/code/nwchem
    nwchem branch   = 7.0.0
    nwchem revision = nwchem_on_git-4191-g39d87d64de
    ga revision     = 5.8.1
    use scalapack   = F
    input           = input.nw
    prefix          = H2O.
    data base       = ./H2O.db
    status          = startup
    nproc           =        1
    time left       =     -1s



           Memory information
           ------------------

    heap     =  805306366 doubles =   6144.0 Mbytes
    stack    =  805306363 doubles =   6144.0 Mbytes
    global   = 1610612736 doubles =  12288.0 Mbytes (distinct from heap & stack)
    total    = 3221225465 doubles =  24576.0 Mbytes
    verify   = yes
    hardfail = no 


           Directory information
           ---------------------

  0 permanent = .
  0 scratch   = .




                                NWChem Input Module
                                -------------------


                                        H2O
                                        ---
 Turning off AUTOSYM since
 SYMMETRY directive was detected!


          ------
          auto-z
          ------
  no constraints, skipping    0.0000000000000000     
  no constraints, skipping    0.0000000000000000     


                             Geometry "geometry" -> ""
                             -------------------------

 Output coordinates in a.u. (scale by  1.000000000 to convert to a.u.)

  No.       Tag          Charge          X              Y              Z
 ---- ---------------- ---------- -------------- -------------- --------------
    1 O                    8.0000    -0.17255800    -0.13146743     0.00000000
    2 H                    1.0000    -0.17255800     1.83180683     0.00000000
    3 H                    1.0000     1.55302200    -0.78006743     0.00000000

      Atomic Mass 
      ----------- 

      O                 15.994910
      H                  1.007825


 Effective nuclear repulsion energy (a.u.)       8.7339606426

            Nuclear Dipole moment (a.u.) 
            ----------------------------
        X                 Y               Z
 ---------------- ---------------- ----------------
    -0.0000000000     0.0000000000     0.0000000000



                                Z-matrix (autoz)
                                -------- 

 Units are Angstrom for bonds and degrees for angles

      Type          Name      I     J     K     L     M      Value
      ----------- --------  ----- ----- ----- ----- ----- ----------
    1 Stretch                  1     2                       1.03892
    2 Stretch                  1     3                       0.97551
    3 Bend                     2     1     3               110.59992


            XYZ format geometry
            -------------------
     3
 geometry
 O                    -0.09131377    -0.06956957     0.00000000
 H                    -0.09131377     0.96935050     0.00000000
 H                     0.82182391    -0.41279393     0.00000000

 ==============================================================================
                                internuclear distances
 ------------------------------------------------------------------------------
       center one      |      center two      | atomic units |       a.u.
 ------------------------------------------------------------------------------
    2 H                |   1 O                |     1.96327  |     1.96327
    3 H                |   1 O                |     1.84345  |     1.84345
 ------------------------------------------------------------------------------
                         number of included internuclear distances:          2
 ==============================================================================



 ==============================================================================
                                 internuclear angles
 ------------------------------------------------------------------------------
        center 1       |       center 2       |       center 3       |  degrees
 ------------------------------------------------------------------------------
    2 H                |   1 O                |   3 H                |   110.60
 ------------------------------------------------------------------------------
                            number of included internuclear angles:          1
 ==============================================================================





 Summary of "ao basis" -> "" (spherical)
 ------------------------------------------------------------------------------
       Tag                 Description            Shells   Functions and Types
 ---------------- ------------------------------  ------  ---------------------
 *                         6-311++G**                 on all atoms 


                      Basis "ao basis" -> "ao basis" (spherical)
                      -----
  O (Oxygen)
  ----------
            Exponent  Coefficients 
       -------------- ---------------------------------------------------------
  1 S  8.58850000E+03  0.001895
  1 S  1.29723000E+03  0.014386
  1 S  2.99296000E+02  0.070732
  1 S  8.73771000E+01  0.240001
  1 S  2.56789000E+01  0.594797
  1 S  3.74004000E+00  0.280802

  2 S  4.21175000E+01  0.113889
  2 S  9.62837000E+00  0.920811
  2 S  2.85332000E+00 -0.003274

  3 P  4.21175000E+01  0.036511
  3 P  9.62837000E+00  0.237153
  3 P  2.85332000E+00  0.819702

  4 S  9.05661000E-01  1.000000

  5 P  9.05661000E-01  1.000000

  6 S  2.55611000E-01  1.000000

  7 P  2.55611000E-01  1.000000

  8 S  8.45000000E-02  1.000000

  9 P  8.45000000E-02  1.000000

 10 D  1.29200000E+00  1.000000

  H (Hydrogen)
  ------------
            Exponent  Coefficients 
       -------------- ---------------------------------------------------------
  1 S  3.38650000E+01  0.025494
  1 S  5.09479000E+00  0.190373
  1 S  1.15879000E+00  0.852161

  2 S  3.25840000E-01  1.000000

  3 S  1.02741000E-01  1.000000

  4 S  3.60000000E-02  1.000000

  5 P  7.50000000E-01  1.000000



 Summary of "ao basis" -> "ao basis" (spherical)
 ------------------------------------------------------------------------------
       Tag                 Description            Shells   Functions and Types
 ---------------- ------------------------------  ------  ---------------------
 O                         6-311++G**               10       22   5s4p1d
 H                         6-311++G**                5        7   4s1p



                            NWChem Direct MCSCF Module
                            --------------------------


                                        H2O


     -----------------------------------
       Basis functions:             36
       Inactive shells:              0
       Active shells:                8
       Active electrons:            10
       Symmetry:                    a       
       Multiplicity:                 1
       Orbital rotations:          224
     -----------------------------------

     -----------------------------------
       E2 extrapolation:             F
       Conjugacy:                    T
       Micro CI relax:               T
       Canonical orbitals:           T
       Maximum iterations:          40
       Converge threshold:    1.00E-04
       Conjugacy resets:            20
       Initial levelshift:        0.10
     -----------------------------------

 Loading old vectors from job with title :

H2O


   input molecular orbitals = ./h2o.mos
  output molecular orbtials = ./h2o.mos

       No. of determinants:          3136


  Starting Orbital Energies
   -20.565543    -1.341727    -0.735042    -0.586340    -0.529277    -0.028700
    -0.025810    -0.017013     0.071881     0.087479     0.237095     0.278229
     0.317054     0.487347     0.499003     0.624362     1.008231     1.062820
     1.474517     1.525284     1.644964     1.725377     1.836192     2.187389
     2.307689     2.757442     2.866417     3.397588     3.508544     3.612882
     4.057408     4.189476     5.318396     5.733371     6.085097    51.538141

  Orbital Symmetry Irreps
a    a    a    a    a    a    a    a    a    a    a    a    a    a    a   
a    a    a    a    a    a    a    a    a    a    a    a    a    a    a   
a    a    a    a    a    a   

 Integral file          = ./H2O.aoints.0
 Record size in doubles =  65536        No. of integs per rec  =  43688
 Max. records in memory =     10        Max. records in file   = 232563
 No. of bits per label  =      8        No. of bits per value  =     64


 #quartets = 2.216D+04 #integrals = 1.003D+05 #direct =  0.0% #cached =100.0%




          %%%%% MacroIteration   1 %%%%%


          Number of sigma calls:       15
                       o<<<<< (aa):             0.00
                       o<<<<< (bb):             0.00
                       o<<<<< (ab):             0.03
                       o<<<<< (total)           0.04
                       o<<<<< (aa) ff           0.00
                       o<<<<< (aa) gop          0.00
                       o<<<<< (aa) dot          0.00
                       o<<<<< (ab) str          0.00
                       o<<<<< (ab) gath         0.00
                       o<<<<< (ab) dotab        0.00
                       o<<<<< (ab) scat         0.00
                       o<<<<< (ab) sync         0.00
                       o<<<<< Density           0.01
                       o<<<<< Density one       0.00
                       o<<<<< Density two       0.00
                       o<<<<< Density ab        0.01
                       o<<<<< Spin adapt        0.29
                       o<<<<< Symm adapt        0.00

                       o<<<<< (ab) max sync:      0.00

           >>>| Valence CI:            -84.874173174786
           >>>| MCSCF energy:          -76.140212532234
           >>>| Gradient norm:          0.105325076D-01

                              ----- Line search ------

        step       energy         lsg     num-lsg   num-lsh   lsrat    time
      ------- ---------------- --------- --------- --------- ------- --------
       0.0000     -76.14021253 -1.04D-05  0.00D+00  0.00D+00 0.0D+00      0.6

          Number of sigma calls:       13
                       o<<<<< (aa):             0.00
                       o<<<<< (bb):             0.00
                       o<<<<< (ab):             0.04
                       o<<<<< (total)           0.05
                       o<<<<< (aa) ff           0.00
                       o<<<<< (aa) gop          0.00
                       o<<<<< (aa) dot          0.00
                       o<<<<< (ab) str          0.00
                       o<<<<< (ab) gath         0.00
                       o<<<<< (ab) dotab        0.00
                       o<<<<< (ab) scat         0.00
                       o<<<<< (ab) sync         0.00
                       o<<<<< Density           0.01
                       o<<<<< Density one       0.00
                       o<<<<< Density two       0.00
                       o<<<<< Density ab        0.00
                       o<<<<< Spin adapt        0.25
                       o<<<<< Symm adapt        0.00

                       o<<<<< (ab) max sync:      0.00
       1.0000     -76.14021793 -3.41D-07 -3.41D-07  1.01D-05 3.3D-02      0.9
     --- Orbitals canonicalized ---



          %%%%% MacroIteration   2 %%%%%


          Number of sigma calls:       11
                       o<<<<< (aa):             0.00
                       o<<<<< (bb):             0.00
                       o<<<<< (ab):             0.03
                       o<<<<< (total)           0.04
                       o<<<<< (aa) ff           0.00
                       o<<<<< (aa) gop          0.00
                       o<<<<< (aa) dot          0.00
                       o<<<<< (ab) str          0.00
                       o<<<<< (ab) gath         0.00
                       o<<<<< (ab) dotab        0.00
                       o<<<<< (ab) scat         0.00
                       o<<<<< (ab) sync         0.00
                       o<<<<< Density           0.00
                       o<<<<< Density one       0.00
                       o<<<<< Density two       0.00
                       o<<<<< Density ab        0.00
                       o<<<<< Spin adapt        0.17
                       o<<<<< Symm adapt        0.00

                       o<<<<< (ab) max sync:      0.00

           >>>| Valence CI:            -84.874178569971
           >>>| MCSCF energy:          -76.140217927419
           >>>| Gradient norm:          0.669709562D-03
     --- Warning:    1 Hessian diagonals < 0.05 ---
     --- Conjugacy reset ---

                              ----- Line search ------

        step       energy         lsg     num-lsg   num-lsh   lsrat    time
      ------- ---------------- --------- --------- --------- ------- --------
       0.0000     -76.14021793 -1.01D-07  0.00D+00  0.00D+00 0.0D+00      1.2

          Number of sigma calls:        9
                       o<<<<< (aa):             0.00
                       o<<<<< (bb):             0.00
                       o<<<<< (ab):             0.03
                       o<<<<< (total)           0.04
                       o<<<<< (aa) ff           0.00
                       o<<<<< (aa) gop          0.00
                       o<<<<< (aa) dot          0.00
                       o<<<<< (ab) str          0.00
                       o<<<<< (ab) gath         0.00
                       o<<<<< (ab) dotab        0.00
                       o<<<<< (ab) scat         0.00
                       o<<<<< (ab) sync         0.00
                       o<<<<< Density           0.01
                       o<<<<< Density one       0.00
                       o<<<<< Density two       0.00
                       o<<<<< Density ab        0.01
                       o<<<<< Spin adapt        0.14
                       o<<<<< Symm adapt        0.00

                       o<<<<< (ab) max sync:      0.00
       1.0000     -76.14021799 -3.19D-08 -3.19D-08  6.96D-08 3.1D-01      1.4

          Number of sigma calls:        9
                       o<<<<< (aa):             0.00
                       o<<<<< (bb):             0.00
                       o<<<<< (ab):             0.03
                       o<<<<< (total)           0.04
                       o<<<<< (aa) ff           0.00
                       o<<<<< (aa) gop          0.00
                       o<<<<< (aa) dot          0.00
                       o<<<<< (ab) str          0.00
                       o<<<<< (ab) gath         0.00
                       o<<<<< (ab) dotab        0.00
                       o<<<<< (ab) scat         0.00
                       o<<<<< (ab) sync         0.00
                       o<<<<< Density           0.00
                       o<<<<< Density one       0.00
                       o<<<<< Density two       0.00
                       o<<<<< Density ab        0.00
                       o<<<<< Spin adapt        0.16
                       o<<<<< Symm adapt        0.00

                       o<<<<< (ab) max sync:      0.00
       1.4580     -76.14021800  3.44D-11  3.35D-11  6.97D-08 3.4D-04      1.7



          %%%%% MacroIteration   3 %%%%%


          Number of sigma calls:        1
                       o<<<<< (aa):             0.00
                       o<<<<< (bb):             0.00
                       o<<<<< (ab):             0.00
                       o<<<<< (total)           0.00
                       o<<<<< (aa) ff           0.00
                       o<<<<< (aa) gop          0.00
                       o<<<<< (aa) dot          0.00
                       o<<<<< (ab) str          0.00
                       o<<<<< (ab) gath         0.00
                       o<<<<< (ab) dotab        0.00
                       o<<<<< (ab) scat         0.00
                       o<<<<< (ab) sync         0.00
                       o<<<<< Density           0.01
                       o<<<<< Density one       0.00
                       o<<<<< Density two       0.00
                       o<<<<< Density ab        0.01
                       o<<<<< Spin adapt        0.00
                       o<<<<< Symm adapt        0.00

                       o<<<<< (ab) max sync:      0.00

           >>>| Valence CI:            -84.874178643934
           >>>| MCSCF energy:          -76.140218001382
           >>>| Gradient norm:          0.108259552D-03
     --- Warning:    1 Hessian diagonals < 0.05 ---

                              ----- Line search ------

        step       energy         lsg     num-lsg   num-lsh   lsrat    time
      ------- ---------------- --------- --------- --------- ------- --------
       0.0000     -76.14021800 -2.78D-09  0.00D+00  0.00D+00 0.0D+00      1.7

          Number of sigma calls:        8
                       o<<<<< (aa):             0.00
                       o<<<<< (bb):             0.00
                       o<<<<< (ab):             0.02
                       o<<<<< (total)           0.02
                       o<<<<< (aa) ff           0.00
                       o<<<<< (aa) gop          0.00
                       o<<<<< (aa) dot          0.00
                       o<<<<< (ab) str          0.00
                       o<<<<< (ab) gath         0.00
                       o<<<<< (ab) dotab        0.00
                       o<<<<< (ab) scat         0.00
                       o<<<<< (ab) sync         0.00
                       o<<<<< Density           0.01
                       o<<<<< Density one       0.00
                       o<<<<< Density two       0.00
                       o<<<<< Density ab        0.01
                       o<<<<< Spin adapt        0.13
                       o<<<<< Symm adapt        0.00

                       o<<<<< (ab) max sync:      0.00
       1.0000     -76.14021800 -8.42D-10 -8.42D-10  1.93D-09 3.0D-01      1.9

          Number of sigma calls:        7
                       o<<<<< (aa):             0.00
                       o<<<<< (bb):             0.00
                       o<<<<< (ab):             0.03
                       o<<<<< (total)           0.03
                       o<<<<< (aa) ff           0.00
                       o<<<<< (aa) gop          0.00
                       o<<<<< (aa) dot          0.00
                       o<<<<< (ab) str          0.00
                       o<<<<< (ab) gath         0.00
                       o<<<<< (ab) dotab        0.00
                       o<<<<< (ab) scat         0.00
                       o<<<<< (ab) sync         0.00
                       o<<<<< Density           0.00
                       o<<<<< Density one       0.00
                       o<<<<< Density two       0.00
                       o<<<<< Density ab        0.00
                       o<<<<< Spin adapt        0.12
                       o<<<<< Symm adapt        0.00

                       o<<<<< (ab) max sync:      0.00
       1.4353     -76.14021800  1.08D-14 -2.94D-13  1.93D-09 3.9D-06      2.1



          %%%%% MacroIteration   4 %%%%%


          Number of sigma calls:        1
                       o<<<<< (aa):             0.00
                       o<<<<< (bb):             0.00
                       o<<<<< (ab):             0.00
                       o<<<<< (total)           0.00
                       o<<<<< (aa) ff           0.00
                       o<<<<< (aa) gop          0.00
                       o<<<<< (aa) dot          0.00
                       o<<<<< (ab) str          0.00
                       o<<<<< (ab) gath         0.00
                       o<<<<< (ab) dotab        0.00
                       o<<<<< (ab) scat         0.00
                       o<<<<< (ab) sync         0.00
                       o<<<<< Density           0.01
                       o<<<<< Density one       0.00
                       o<<<<< Density two       0.00
                       o<<<<< Density ab        0.00
                       o<<<<< Spin adapt        0.00
                       o<<<<< Symm adapt        0.00

                       o<<<<< (ab) max sync:      0.00

           >>>| Valence CI:            -84.874178645927
           >>>| MCSCF energy:          -76.140218003375
           >>>| Gradient norm:          0.330694735D-04




     ==============================
            MCSCF Converged
     ==============================



          Canonical Eigenvalues

              1      
    1  -20.5659
    2   -1.3408
    3   -0.7338
    4   -0.5859
    5   -0.5291
    6   -0.0289
    7   -0.0258
    8   -0.0170
    9    0.0719
   10    0.0875
   11    0.2370
   12    0.2783
   13    0.3171
   14    0.4871
   15    0.4990
   16    0.6250
   17    1.0088
   18    1.0646
   19    1.4742
   20    1.5260
   21    1.6456
   22    1.7249
   23    1.8338
   24    2.1822
   25    2.3065
   26    2.7583
   27    2.8667
   28    3.3947
   29    3.5075
   30    3.6097
   31    4.0554
   32    4.1885
   33    5.3189
   34    5.7301
   35    6.0801
   36   51.5366


          Converged CI vector

   Index           Coefficient          Config. Occupation
         1         -0.97289388          1  2  3  4  5  1  2  3  4  5
        22         -0.07485040          1  2  3  4  5  1  2  3  4  8
         3          0.04383559          1  2  3  4  5  1  2  3  5  6
         8          0.02367402          1  2  3  4  5  1  2  3  5  7
        27          0.02097311          1  2  3  4  5  1  2  3  6  8
         4          0.02329758          1  2  3  4  5  1  2  4  5  6
         9         -0.03936526          1  2  3  4  5  1  2  4  5  7
        38         -0.02353329          1  2  3  4  5  1  2  4  7  8
      1177         -0.07485040          1  2  3  4  8  1  2  3  4  5
      1198          0.05489373          1  2  3  4  8  1  2  3  4  8
      1179         -0.02634479          1  2  3  4  8  1  2  3  5  6
      1185          0.03215404          1  2  3  4  8  1  2  4  5  7
       113          0.04383559          1  2  3  5  6  1  2  3  4  5
       134         -0.02634479          1  2  3  5  6  1  2  3  4  8
       115          0.04374189          1  2  3  5  6  1  2  3  5  6
       116          0.03082212          1  2  3  5  6  1  2  4  5  6
       121         -0.02476981          1  2  3  5  6  1  2  4  5  7
       117         -0.02262266          1  2  3  5  6  1  3  4  5  6
       393          0.02367402          1  2  3  5  7  1  2  3  4  5
       400          0.02447757          1  2  3  5  7  1  2  3  5  7
       401         -0.02512782          1  2  3  5  7  1  2  4  5  7
      1457          0.02097311          1  2  3  6  8  1  2  3  4  5
       169          0.02329758          1  2  4  5  6  1  2  3  4  5
       171          0.03082212          1  2  4  5  6  1  2  3  5  6
       172          0.03904191          1  2  4  5  6  1  2  4  5  6
       173         -0.02032156          1  2  4  5  6  1  3  4  5  6
       449         -0.03936526          1  2  4  5  7  1  2  3  4  5
       470          0.03215404          1  2  4  5  7  1  2  3  4  8
       451         -0.02476981          1  2  4  5  7  1  2  3  5  6
       456         -0.02512782          1  2  4  5  7  1  2  3  5  7
       457          0.05475226          1  2  4  5  7  1  2  4  5  7
       458          0.02041004          1  2  4  5  7  1  3  4  5  7
      2073         -0.02353329          1  2  4  7  8  1  2  3  4  5
       227         -0.02262266          1  3  4  5  6  1  2  3  5  6
       228         -0.02032156          1  3  4  5  6  1  2  4  5  6
       229          0.02510570          1  3  4  5  6  1  3  4  5  6
       513          0.02041004          1  3  4  5  7  1  2  4  5  7
       514          0.02051400          1  3  4  5  7  1  3  4  5  7

          Number of sigma calls:        1
                       o<<<<< (aa):             0.00
                       o<<<<< (bb):             0.00
                       o<<<<< (ab):             0.00
                       o<<<<< (total)           0.00
                       o<<<<< (aa) ff           0.00
                       o<<<<< (aa) gop          0.00
                       o<<<<< (aa) dot          0.00
                       o<<<<< (ab) str          0.00
                       o<<<<< (ab) gath         0.00
                       o<<<<< (ab) dotab        0.00
                       o<<<<< (ab) scat         0.00
                       o<<<<< (ab) sync         0.00
                       o<<<<< Density           0.01
                       o<<<<< Density one       0.00
                       o<<<<< Density two       0.00
                       o<<<<< Density ab        0.01
                       o<<<<< Spin adapt        0.00
                       o<<<<< Symm adapt        0.00

                       o<<<<< (ab) max sync:      0.00



          Natural orbital occupation numbers

              1      
    1    2.0000
    2    1.9988
    3    1.9801
    4    1.9759
    5    1.9721
    6    0.0288
    7    0.0248
    8    0.0195


          Number of sigma calls:       15
                       o<<<<< (aa):             0.00
                       o<<<<< (bb):             0.00
                       o<<<<< (ab):             0.05
                       o<<<<< (total)           0.05
                       o<<<<< (aa) ff           0.00
                       o<<<<< (aa) gop          0.00
                       o<<<<< (aa) dot          0.00
                       o<<<<< (ab) str          0.00
                       o<<<<< (ab) gath         0.00
                       o<<<<< (ab) dotab        0.00
                       o<<<<< (ab) scat         0.00
                       o<<<<< (ab) sync         0.00
                       o<<<<< Density           0.01
                       o<<<<< Density one       0.00
                       o<<<<< Density two       0.00
                       o<<<<< Density ab        0.01
                       o<<<<< Spin adapt        0.31
                       o<<<<< Symm adapt        0.00

                       o<<<<< (ab) max sync:      0.00


       Final MCSCF results 
       ------------------- 

       Total MCSCF energy =    -76.140218003375
            Gradient norm =      3.3D-05

    CPU time for solution =      2.5s
   Wall time for solution =      4.7s



                        Analysis of MCSCF natural orbitals
                        ----------------------------------

 Vector    1  Occ=1.999990D+00  E=-2.056591D+01  Symmetry=a
              MO Center= -9.1D-02, -6.9D-02,  1.5D-11, r^2= 1.7D-02
   Bfn.  Coefficient  Atom+Function         Bfn.  Coefficient  Atom+Function  
  ----- ------------  ---------------      ----- ------------  ---------------
     1      0.559614  1 O  s                  2      0.487401  1 O  s          

 Vector    2  Occ=1.998792D+00  E=-1.340766D+00  Symmetry=a
              MO Center= -3.0D-01, -2.1D-01, -7.2D-08, r^2= 4.3D-01
   Bfn.  Coefficient  Atom+Function         Bfn.  Coefficient  Atom+Function  
  ----- ------------  ---------------      ----- ------------  ---------------
     6      0.560183  1 O  s                 10      0.485595  1 O  s          

 Vector    3  Occ=1.980075D+00  E=-7.338496D-01  Symmetry=a
              MO Center= -7.3D-02, -5.9D-02,  7.1D-08, r^2= 7.1D-01
   Bfn.  Coefficient  Atom+Function         Bfn.  Coefficient  Atom+Function  
  ----- ------------  ---------------      ----- ------------  ---------------
     9      0.436178  1 O  pz                13      0.407744  1 O  pz         
     5      0.288891  1 O  pz         

 Vector    4  Occ=1.975869D+00  E=-5.859389D-01  Symmetry=a
              MO Center=  3.4D-01, -1.8D-01,  7.7D-10, r^2= 6.1D-01
   Bfn.  Coefficient  Atom+Function         Bfn.  Coefficient  Atom+Function  
  ----- ------------  ---------------      ----- ------------  ---------------
     7      0.348723  1 O  px                31      0.272972  3 H  s          
    11      0.236087  1 O  px                 3      0.230901  1 O  px         
    30      0.189707  3 H  s          

 Vector    5  Occ=1.972082D+00  E=-5.291263D-01  Symmetry=a
              MO Center= -5.1D-02,  3.9D-01,  1.2D-09, r^2= 6.5D-01
   Bfn.  Coefficient  Atom+Function         Bfn.  Coefficient  Atom+Function  
  ----- ------------  ---------------      ----- ------------  ---------------
     8      0.343895  1 O  py                24      0.278952  2 H  s          
    12      0.227329  1 O  py                 4      0.225948  1 O  py         
    23      0.181652  2 H  s          

 Vector    6  Occ=2.884536D-02  E=-2.891414D-02  Symmetry=a
              MO Center= -2.3D-02,  5.8D-01,  7.3D-09, r^2= 6.8D-01
   Bfn.  Coefficient  Atom+Function         Bfn.  Coefficient  Atom+Function  
  ----- ------------  ---------------      ----- ------------  ---------------
    24     -0.521506  2 H  s                  8      0.498754  1 O  py         
     6      0.434509  1 O  s                  4      0.395917  1 O  py         
    23     -0.275986  2 H  s          

 Vector    7  Occ=2.481089D-02  E=-2.582735D-02  Symmetry=a
              MO Center=  4.8D-01, -2.4D-01,  7.0D-09, r^2= 6.9D-01
   Bfn.  Coefficient  Atom+Function         Bfn.  Coefficient  Atom+Function  
  ----- ------------  ---------------      ----- ------------  ---------------
    31      0.552715  3 H  s                  7     -0.501407  1 O  px         
     3     -0.412518  1 O  px                 6     -0.358872  1 O  s          
    30      0.287843  3 H  s                  8      0.198117  1 O  py         

 Vector    8  Occ=1.953644D-02  E=-1.701236D-02  Symmetry=a
              MO Center= -5.5D-02, -4.6D-02,  8.9D-08, r^2= 1.4D+00
   Bfn.  Coefficient  Atom+Function         Bfn.  Coefficient  Atom+Function  
  ----- ------------  ---------------      ----- ------------  ---------------
    13      0.655290  1 O  pz                 5     -0.508188  1 O  pz         
     9     -0.460739  1 O  pz                17      0.277548  1 O  pz         

 Vector    9  Occ=0.000000D+00  E= 7.193774D-02  Symmetry=a
              MO Center=  5.2D-01,  4.2D-01, -5.1D-08, r^2= 1.1D+01
   Bfn.  Coefficient  Atom+Function         Bfn.  Coefficient  Atom+Function  
  ----- ------------  ---------------      ----- ------------  ---------------
    26      1.004085  2 H  s                 33      0.969642  3 H  s          
    14     -0.739263  1 O  s                 25     -0.405432  2 H  s          
    32     -0.347661  3 H  s                 10      0.248077  1 O  s          

 Vector   10  Occ=0.000000D+00  E= 8.746981D-02  Symmetry=a
              MO Center=  5.3D-01,  3.6D-01, -1.8D-10, r^2= 1.4D+01
   Bfn.  Coefficient  Atom+Function         Bfn.  Coefficient  Atom+Function  
  ----- ------------  ---------------      ----- ------------  ---------------
    33     -2.579767  3 H  s                 26      2.558326  2 H  s          
    25     -0.479760  2 H  s                 32      0.430044  3 H  s          
    16     -0.308232  1 O  py                15      0.232196  1 O  px         

 Vector   11  Occ=0.000000D+00  E= 2.370409D-01  Symmetry=a
              MO Center= -2.9D-01, -1.7D-01,  4.3D-08, r^2= 5.5D+00
   Bfn.  Coefficient  Atom+Function         Bfn.  Coefficient  Atom+Function  
  ----- ------------  ---------------      ----- ------------  ---------------
    14      3.197545  1 O  s                 32     -2.731979  3 H  s          
    25     -2.311827  2 H  s                 15      1.931522  1 O  px         
    16      1.187200  1 O  py                11     -0.341119  1 O  px         
    33      0.285953  3 H  s                 10      0.253292  1 O  s          
    12     -0.241188  1 O  py                26      0.233702  2 H  s          

 Vector   12  Occ=0.000000D+00  E= 2.782537D-01  Symmetry=a
              MO Center= -4.2D-01, -3.1D-01, -4.7D-12, r^2= 5.8D+00
   Bfn.  Coefficient  Atom+Function         Bfn.  Coefficient  Atom+Function  
  ----- ------------  ---------------      ----- ------------  ---------------
    32      3.234973  3 H  s                 25     -2.998134  2 H  s          
    16      2.784346  1 O  py                15     -1.940397  1 O  px         
    33      0.729011  3 H  s                 26     -0.672308  2 H  s          
    12     -0.319738  1 O  py                14     -0.298923  1 O  s          
    31     -0.255199  3 H  s                 24      0.235276  2 H  s          

 Vector   13  Occ=0.000000D+00  E= 3.171091D-01  Symmetry=a
              MO Center=  1.0D-01,  5.8D-02, -2.5D-07, r^2= 5.4D+00
   Bfn.  Coefficient  Atom+Function         Bfn.  Coefficient  Atom+Function  
  ----- ------------  ---------------      ----- ------------  ---------------
    14      7.736302  1 O  s                 32     -3.900805  3 H  s          
    25     -3.540091  2 H  s                 15      1.535392  1 O  px         
    10     -1.147142  1 O  s                 16      0.924832  1 O  py         
    33     -0.370990  3 H  s                 31      0.231519  3 H  s          
    24      0.207149  2 H  s                 26     -0.200590  2 H  s          

 Vector   14  Occ=0.000000D+00  E= 4.870678D-01  Symmetry=a
              MO Center=  4.6D-02,  1.1D+00, -1.7D-10, r^2= 5.7D+00
   Bfn.  Coefficient  Atom+Function         Bfn.  Coefficient  Atom+Function  
  ----- ------------  ---------------      ----- ------------  ---------------
    25      3.688673  2 H  s                 32     -2.170344  3 H  s          
    26     -1.767823  2 H  s                 24     -1.313482  2 H  s          
    33      1.291189  3 H  s                 31      0.644310  3 H  s          
    16     -0.442173  1 O  py                14     -0.279179  1 O  s          
    15      0.206516  1 O  px         

 Vector   15  Occ=0.000000D+00  E= 4.990310D-01  Symmetry=a
              MO Center=  1.0D+00, -2.9D-01, -1.1D-09, r^2= 5.0D+00
   Bfn.  Coefficient  Atom+Function         Bfn.  Coefficient  Atom+Function  
  ----- ------------  ---------------      ----- ------------  ---------------
    32      3.703860  3 H  s                 14     -1.637758  1 O  s          
    25      1.520385  2 H  s                 31     -1.369757  3 H  s          
    33     -1.163517  3 H  s                 24     -0.690065  2 H  s          
    15     -0.426995  1 O  px                10     -0.287634  1 O  s          
     7      0.155783  1 O  px                26     -0.151559  2 H  s          

 Vector   16  Occ=0.000000D+00  E= 6.250222D-01  Symmetry=a
              MO Center= -8.6D-02, -6.6D-02,  2.2D-07, r^2= 5.4D+00
   Bfn.  Coefficient  Atom+Function         Bfn.  Coefficient  Atom+Function  
  ----- ------------  ---------------      ----- ------------  ---------------
    17     -1.447216  1 O  pz                13      1.410314  1 O  pz         
     9     -0.431580  1 O  pz         

 Vector   17  Occ=0.000000D+00  E= 1.008833D+00  Symmetry=a
              MO Center= -1.1D-01,  1.1D-01,  3.2D-08, r^2= 2.5D+00
   Bfn.  Coefficient  Atom+Function         Bfn.  Coefficient  Atom+Function  
  ----- ------------  ---------------      ----- ------------  ---------------
    14      3.031556  1 O  s                 32     -2.437650  3 H  s          
    11     -2.139673  1 O  px                31      2.007964  3 H  s          
    10     -1.924814  1 O  s                 15      1.672853  1 O  px         
    25     -1.426287  2 H  s                 24      1.025980  2 H  s          
    12     -0.485571  1 O  py                 7      0.432080  1 O  px         

 Vector   18  Occ=0.000000D+00  E= 1.064595D+00  Symmetry=a
              MO Center= -1.7D-01, -3.0D-01,  2.0D-09, r^2= 2.7D+00
   Bfn.  Coefficient  Atom+Function         Bfn.  Coefficient  Atom+Function  
  ----- ------------  ---------------      ----- ------------  ---------------
    12      2.407437  1 O  py                16     -1.818751  1 O  py         
    25      1.698449  2 H  s                 24     -1.650106  2 H  s          
    11     -0.940288  1 O  px                31      0.901948  3 H  s          
    32     -0.722211  3 H  s                 15      0.711947  1 O  px         
    14     -0.698394  1 O  s                 33     -0.638650  3 H  s          


 Wrote Lagrangian and 1- and 2-particle density matrices to ./H2O.mcpdm


     Multipole analysis of the density
     ---------------------------------

     L   x y z        total        nuclear
     -   - - -        -----        -------
     0   0 0 0     -0.000000     10.000000

     1   1 0 0      0.650202     -0.000000
     1   0 1 0      0.473615      0.000000
     1   0 0 1     -0.000000      0.000000

     2   2 0 0     -4.350355      2.679864
     2   1 1 0     -0.877103     -1.346069
     2   1 0 1      0.000000      0.000000
     2   0 2 0     -3.554646      4.102291
     2   0 1 1      0.000000      0.000000
     2   0 0 2     -5.880219      0.000000


  Mulliken analysis of the total density
  --------------------------------------

    Atom       Charge   Shell Charges
 -----------   ------   -------------------------------------------------------
    1 O    8     8.51   1.08  0.91  0.94  1.00  2.05  0.80  1.53 -0.02  0.19  0.01
    2 H    1     0.74   0.23  0.41  0.03  0.01  0.06
    3 H    1     0.75   0.26  0.40  0.02  0.01  0.07

    Mulliken analysis of the active space density
    ---------------------------------------------

    Atom       Charge   Shell Charges
 -----------   ------   -------------------------------------------------------
    1 O    8     8.51   1.08  0.91  0.94  1.00  2.05  0.80  1.53 -0.02  0.19  0.01
    2 H    1     0.74   0.23  0.41  0.03  0.01  0.06
    3 H    1     0.75   0.26  0.40  0.02  0.01  0.07

 Parallel integral file used       3 records with       0 large values


 Task  times  cpu:        2.6s     wall:        4.7s


                                NWChem Input Module
                                -------------------


                                 NWChem SCF Module
                                 -----------------


                                        H2O



  ao basis        = "ao basis"
  functions       =    36
  atoms           =     3
  closed shells   =     5
  open shells     =     0
  charge          =   0.00
  wavefunction    = RHF 
  input vectors   = ./h2o.mos
  output vectors  = ./h2o-trash.mos
  use symmetry    = F
  symmetry adapt  = F


 Summary of "ao basis" -> "ao basis" (spherical)
 ------------------------------------------------------------------------------
       Tag                 Description            Shells   Functions and Types
 ---------------- ------------------------------  ------  ---------------------
 O                         6-311++G**               10       22   5s4p1d
 H                         6-311++G**                5        7   4s1p



 Forming initial guess at       4.7s


 Loading old vectors from job with title :

H2O


 Starting SCF solution at       4.7s



 ----------------------------------------------
         Quadratically convergent ROHF

 Convergence threshold     :          1.000E-04
 Maximum no. of iterations :           30
 Final Fock-matrix accuracy:          1.000E-07
 ----------------------------------------------


 Integral file          = ./H2O.aoints.0
 Record size in doubles =  65536        No. of integs per rec  =  43688
 Max. records in memory =     10        Max. records in file   = 232570
 No. of bits per label  =      8        No. of bits per value  =     64


 #quartets = 2.216D+04 #integrals = 1.002D+05 #direct =  0.0% #cached =100.0%



       Final RHF  results 
       ------------------ 

         Total SCF energy =    -76.041072487084
      One-electron energy =   -122.157154777330
      Two-electron energy =     37.382121647693
 Nuclear repulsion energy =      8.733960642552

        Time for solution =      0.0s


             Final eigenvalues
             -----------------

              1      
    1  -20.5659
    2   -1.3408
    3   -0.7338
    4   -0.5859
    5   -0.5291
    6   -0.0289
    7   -0.0258
    8   -0.0170
    9    0.0719
   10    0.0875
   11    0.2370
   12    0.2783
   13    0.3171
   14    0.4871
   15    0.4990

                       ROHF Final Molecular Orbital Analysis
                       -------------------------------------

 Vector    2  Occ=2.000000D+00  E=-1.340766D+00
              MO Center= -3.0D-01, -2.1D-01, -7.2D-08, r^2= 4.3D-01
   Bfn.  Coefficient  Atom+Function         Bfn.  Coefficient  Atom+Function  
  ----- ------------  ---------------      ----- ------------  ---------------
     6      0.560183  1 O  s                 10      0.485595  1 O  s          

 Vector    3  Occ=2.000000D+00  E=-7.338496D-01
              MO Center= -7.3D-02, -5.9D-02,  7.1D-08, r^2= 7.1D-01
   Bfn.  Coefficient  Atom+Function         Bfn.  Coefficient  Atom+Function  
  ----- ------------  ---------------      ----- ------------  ---------------
     9      0.436178  1 O  pz                13      0.407744  1 O  pz         
     5      0.288891  1 O  pz         

 Vector    4  Occ=2.000000D+00  E=-5.859389D-01
              MO Center=  3.4D-01, -1.8D-01,  7.7D-10, r^2= 6.1D-01
   Bfn.  Coefficient  Atom+Function         Bfn.  Coefficient  Atom+Function  
  ----- ------------  ---------------      ----- ------------  ---------------
     7      0.348723  1 O  px                31      0.272972  3 H  s          
    11      0.236087  1 O  px                 3      0.230901  1 O  px         
    30      0.189707  3 H  s          

 Vector    5  Occ=2.000000D+00  E=-5.291263D-01
              MO Center= -5.1D-02,  3.9D-01,  1.2D-09, r^2= 6.5D-01
   Bfn.  Coefficient  Atom+Function         Bfn.  Coefficient  Atom+Function  
  ----- ------------  ---------------      ----- ------------  ---------------
     8      0.343895  1 O  py                24      0.278952  2 H  s          
    12      0.227329  1 O  py                 4      0.225948  1 O  py         
    23      0.181652  2 H  s          

 Vector    6  Occ=0.000000D+00  E=-2.891414D-02
              MO Center= -2.3D-02,  5.8D-01,  7.3D-09, r^2= 6.8D-01
   Bfn.  Coefficient  Atom+Function         Bfn.  Coefficient  Atom+Function  
  ----- ------------  ---------------      ----- ------------  ---------------
    24     -0.521506  2 H  s                  8      0.498754  1 O  py         
     6      0.434509  1 O  s                  4      0.395917  1 O  py         
    23     -0.275986  2 H  s          

 Vector    7  Occ=0.000000D+00  E=-2.582735D-02
              MO Center=  4.8D-01, -2.4D-01,  7.0D-09, r^2= 6.9D-01
   Bfn.  Coefficient  Atom+Function         Bfn.  Coefficient  Atom+Function  
  ----- ------------  ---------------      ----- ------------  ---------------
    31      0.552715  3 H  s                  7     -0.501407  1 O  px         
     3     -0.412518  1 O  px                 6     -0.358872  1 O  s          
    30      0.287843  3 H  s                  8      0.198117  1 O  py         

 Vector    8  Occ=0.000000D+00  E=-1.701236D-02
              MO Center= -5.5D-02, -4.6D-02,  8.9D-08, r^2= 1.4D+00
   Bfn.  Coefficient  Atom+Function         Bfn.  Coefficient  Atom+Function  
  ----- ------------  ---------------      ----- ------------  ---------------
    13      0.655290  1 O  pz                 5     -0.508188  1 O  pz         
     9     -0.460739  1 O  pz                17      0.277548  1 O  pz         

 Vector    9  Occ=0.000000D+00  E= 7.193774D-02
              MO Center=  5.2D-01,  4.2D-01, -5.1D-08, r^2= 1.1D+01
   Bfn.  Coefficient  Atom+Function         Bfn.  Coefficient  Atom+Function  
  ----- ------------  ---------------      ----- ------------  ---------------
    26      1.004085  2 H  s                 33      0.969642  3 H  s          
    14     -0.739263  1 O  s                 25     -0.405432  2 H  s          
    32     -0.347661  3 H  s                 10      0.248077  1 O  s          

 Vector   10  Occ=0.000000D+00  E= 8.746981D-02
              MO Center=  5.3D-01,  3.6D-01, -1.8D-10, r^2= 1.4D+01
   Bfn.  Coefficient  Atom+Function         Bfn.  Coefficient  Atom+Function  
  ----- ------------  ---------------      ----- ------------  ---------------
    33     -2.579767  3 H  s                 26      2.558326  2 H  s          
    25     -0.479760  2 H  s                 32      0.430044  3 H  s          
    16     -0.308232  1 O  py                15      0.232196  1 O  px         

 Vector   11  Occ=0.000000D+00  E= 2.370409D-01
              MO Center= -2.9D-01, -1.7D-01,  4.3D-08, r^2= 5.5D+00
   Bfn.  Coefficient  Atom+Function         Bfn.  Coefficient  Atom+Function  
  ----- ------------  ---------------      ----- ------------  ---------------
    14      3.197545  1 O  s                 32     -2.731979  3 H  s          
    25     -2.311827  2 H  s                 15      1.931522  1 O  px         
    16      1.187200  1 O  py                11     -0.341119  1 O  px         
    33      0.285953  3 H  s                 10      0.253292  1 O  s          
    12     -0.241188  1 O  py                26      0.233702  2 H  s          

 Vector   12  Occ=0.000000D+00  E= 2.782537D-01
              MO Center= -4.2D-01, -3.1D-01, -4.7D-12, r^2= 5.8D+00
   Bfn.  Coefficient  Atom+Function         Bfn.  Coefficient  Atom+Function  
  ----- ------------  ---------------      ----- ------------  ---------------
    32      3.234973  3 H  s                 25     -2.998134  2 H  s          
    16      2.784346  1 O  py                15     -1.940397  1 O  px         
    33      0.729011  3 H  s                 26     -0.672308  2 H  s          
    12     -0.319738  1 O  py                14     -0.298923  1 O  s          
    31     -0.255199  3 H  s                 24      0.235276  2 H  s          

 Vector   13  Occ=0.000000D+00  E= 3.171091D-01
              MO Center=  1.0D-01,  5.8D-02, -2.5D-07, r^2= 5.4D+00
   Bfn.  Coefficient  Atom+Function         Bfn.  Coefficient  Atom+Function  
  ----- ------------  ---------------      ----- ------------  ---------------
    14      7.736302  1 O  s                 32     -3.900805  3 H  s          
    25     -3.540091  2 H  s                 15      1.535392  1 O  px         
    10     -1.147142  1 O  s                 16      0.924832  1 O  py         
    33     -0.370990  3 H  s                 31      0.231519  3 H  s          
    24      0.207149  2 H  s                 26     -0.200590  2 H  s          

 Vector   14  Occ=0.000000D+00  E= 4.870678D-01
              MO Center=  4.6D-02,  1.1D+00, -1.7D-10, r^2= 5.7D+00
   Bfn.  Coefficient  Atom+Function         Bfn.  Coefficient  Atom+Function  
  ----- ------------  ---------------      ----- ------------  ---------------
    25      3.688673  2 H  s                 32     -2.170344  3 H  s          
    26     -1.767823  2 H  s                 24     -1.313482  2 H  s          
    33      1.291189  3 H  s                 31      0.644310  3 H  s          
    16     -0.442173  1 O  py                14     -0.279179  1 O  s          
    15      0.206516  1 O  px         

 Vector   15  Occ=0.000000D+00  E= 4.990310D-01
              MO Center=  1.0D+00, -2.9D-01, -1.1D-09, r^2= 5.0D+00
   Bfn.  Coefficient  Atom+Function         Bfn.  Coefficient  Atom+Function  
  ----- ------------  ---------------      ----- ------------  ---------------
    32      3.703860  3 H  s                 14     -1.637758  1 O  s          
    25      1.520385  2 H  s                 31     -1.369757  3 H  s          
    33     -1.163517  3 H  s                 24     -0.690065  2 H  s          
    15     -0.426995  1 O  px                10     -0.287634  1 O  s          
     7      0.155783  1 O  px                26     -0.151559  2 H  s          

 Vector   16  Occ=0.000000D+00  E= 6.250222D-01
              MO Center= -8.6D-02, -6.6D-02,  2.2D-07, r^2= 5.4D+00
   Bfn.  Coefficient  Atom+Function         Bfn.  Coefficient  Atom+Function  
  ----- ------------  ---------------      ----- ------------  ---------------
    17     -1.447216  1 O  pz                13      1.410314  1 O  pz         
     9     -0.431580  1 O  pz         


 center of mass
 --------------
 x =  -0.07599894 y =  -0.05790161 z =   0.00000000

 moments of inertia (a.u.)
 ------------------
           4.211108733350           1.255906053963           0.000000000000
           1.255906053963           2.833002082974           0.000000000000
           0.000000000000           0.000000000000           7.044110816324

  Mulliken analysis of the total density
  --------------------------------------

    Atom       Charge   Shell Charges
 -----------   ------   -------------------------------------------------------
    1 O    8     8.51   1.08  0.91  0.93  1.00  2.06  0.80  1.54 -0.02  0.19  0.01
    2 H    1     0.74   0.23  0.41  0.03  0.01  0.06
    3 H    1     0.75   0.26  0.40  0.02  0.01  0.07

       Multipole analysis of the density wrt the origin
       ------------------------------------------------

     L   x y z        total         open         nuclear
     -   - - -        -----         ----         -------
     0   0 0 0     -0.000000      0.000000     10.000000

     1   1 0 0      0.659984      0.000000     -0.000000
     1   0 1 0      0.482306      0.000000      0.000000
     1   0 0 1     -0.000000      0.000000      0.000000

     2   2 0 0     -4.324075      0.000000      2.679864
     2   1 1 0     -0.885886      0.000000     -1.346069
     2   1 0 1      0.000000      0.000000      0.000000
     2   0 2 0     -3.517407      0.000000      4.102291
     2   0 1 1      0.000000      0.000000      0.000000
     2   0 0 2     -5.852840      0.000000      0.000000


 Parallel integral file used       3 records with       0 large values

 ------------------------------------
     Number of active orbitals      8
     Number of active alpha electrons      5
     Number of active beta electrons       5
 ------------------------------------
                   NWChem Extensible Many-Electron Theory Module
                   ---------------------------------------------

              ======================================================
                   This portion of the program was automatically
                  generated by a Tensor Contraction Engine (TCE).
                  The development of this portion of the program
                 and TCE was supported by US Department of Energy,
                Office of Science, Office of Basic Energy Science.
                      TCE is a product of Battelle and PNNL.
              Please cite: S.Hirata, J.Phys.Chem.A 107, 9887 (2003).
              ======================================================

                                        H2O


            General Information
            -------------------
      Number of processors :     1
         Wavefunction type : Restricted Hartree-Fock
          No. of electrons :    10
           Alpha electrons :     5
            Beta electrons :     5
           No. of orbitals :    72
            Alpha orbitals :    36
             Beta orbitals :    36
        Alpha frozen cores :     0
         Beta frozen cores :     0
     Alpha frozen virtuals :    28
      Beta frozen virtuals :    28
         Spin multiplicity : singlet 
    Number of AO functions :    36
       Number of AO shells :    20
        Use of symmetry is : off
      Symmetry adaption is : off
         Schwarz screening : 0.10D-09

          Correlation Information
          -----------------------
          Calculation type : Coupled-cluster singles & doubles                           
   Perturbative correction : none                                                        
            Max iterations :      300
        Residual threshold : 0.10D-06
     T(0) DIIS level shift : 0.00D+00
     L(0) DIIS level shift : 0.00D+00
     T(1) DIIS level shift : 0.00D+00
     L(1) DIIS level shift : 0.00D+00
     T(R) DIIS level shift : 0.00D+00
     T(I) DIIS level shift : 0.00D+00
   CC-T/L Amplitude update :  5-th order DIIS
                I/O scheme : Global Array Library
        L-threshold :  0.10D-06
        EOM-threshold :  0.10D-06
 no EOMCCSD initial starts read in
 TCE RESTART OPTIONS
 READ_INT:   F
 WRITE_INT:  F
 READ_TA:    F
 WRITE_TA:   F
 READ_XA:    F
 WRITE_XA:   F
 READ_IN3:   F
 WRITE_IN3:  F
 SLICE:      F
 D4D5:       F
 quantumc:   T
 qrotation:  F
 pwtce:      F
 qducc:      F
 nacto:                         0
 nrotv:                         0
 nrot:                          0

            Memory Information
            ------------------
          Available GA space size is    1610611440 doubles
          Available MA space size is    1610610740 doubles

 Maximum block size supplied by input
 Maximum block size         1 doubles

 tile_dim =      1

 Block   Spin    Irrep     Size     Offset   Alpha
 -------------------------------------------------
   1    alpha     a      1 doubles       0       1
   2    alpha     a      1 doubles       1       2
   3    alpha     a      1 doubles       2       3
   4    alpha     a      1 doubles       3       4
   5    alpha     a      1 doubles       4       5
   6    beta      a      1 doubles       5       1
   7    beta      a      1 doubles       6       2
   8    beta      a      1 doubles       7       3
   9    beta      a      1 doubles       8       4
  10    beta      a      1 doubles       9       5
  11    alpha     a      1 doubles      10      11
  12    alpha     a      1 doubles      11      12
  13    alpha     a      1 doubles      12      13
  14    beta      a      1 doubles      13      11
  15    beta      a      1 doubles      14      12
  16    beta      a      1 doubles      15      13

 Global array virtual files algorithm will be used

 Parallel file system coherency ......... OK

 Integral file          = ./H2O.aoints.0
 Record size in doubles =  65536        No. of integs per rec  =  43688
 Max. records in memory =     10        Max. records in file   = 232570
 No. of bits per label  =      8        No. of bits per value  =     64


 #quartets = 2.216D+04 #integrals = 1.003D+05 #direct =  0.0% #cached =100.0%


 Fock matrix recomputed
 1-e file size   =               64
 1-e file name   = ./H2O.f1
 Cpu & wall time / sec            0.0            0.0
 4-electron integrals stored in orbital form

 v2    file size   =              666
 4-index algorithm nr.  13 is used
 imaxsize =       30
 imaxsize ichop =        0
 begin_one_electron_integrals
    1    1       -32.8698270976
    2    1        -1.7197828778
    3    1         0.0000000428
    4    1         0.1550900722
    5    1         0.1390970922
    6    1         0.2315402776
    7    1        -0.1813159755
    8    1        -0.0000000514
    1    2        -1.7197828778
    2    2        -7.8376257258
    3    2        -0.0000000751
    4    2        -0.2551197745
    5    2        -0.2267671197
    6    2        -0.0957608286
    7    2         0.0658539414
    8    2        -0.0000000255
    1    3         0.0000000428
    2    3        -0.0000000751
    3    3        -6.9266719112
    4    3        -0.0000000303
    5    3        -0.0000000282
    6    3        -0.0000000437
    7    3         0.0000000533
    8    3         2.2618902290
    1    4         0.1550900722
    2    4        -0.2551197745
    3    4        -0.0000000303
    4    4        -6.7971882958
    5    4        -0.1200958169
    6    4        -0.3135372942
    7    4         2.0366885238
    8    4        -0.0000000880
    1    5         0.1390970922
    2    5        -0.2267671197
    3    5        -0.0000000282
    4    5        -0.1200958169
    5    5        -6.6472643584
    6    5        -2.0487756614
    7    5        -0.2974263022
    8    5        -0.0000000634
    1    6         0.2315402776
    2    6        -0.0957608286
    3    6        -0.0000000437
    4    6        -0.3135372942
    5    6        -2.0487756614
    6    6        -6.0880927535
    7    6        -0.0654014440
    8    6        -0.0000000128
    1    7        -0.1813159755
    2    7         0.0658539414
    3    7         0.0000000533
    4    7         2.0366885238
    5    7        -0.2974263022
    6    7        -0.0654014440
    7    7        -6.1382199047
    8    7         0.0000000120
    1    8        -0.0000000514
    2    8        -0.0000000255
    3    8         2.2618902290
    4    8        -0.0000000880
    5    8        -0.0000000634
    6    8        -0.0000000128
    7    8         0.0000000120
    8    8        -5.4166671734
 end_one_electron_integrals
 begin_two_electron_integrals
    1    1    1    1        4.8382807061
    2    1    1    1       -0.1007924118
    2    1    2    1        0.0183833656
    3    1    1    1       -0.0000000434
    3    1    2    1        0.0000000004
    3    1    3    1        0.0254609594
    3    1    2    2       -0.0000000052
    4    1    1    1       -0.0975393663
    4    1    2    1        0.0000446641
    4    1    3    1        0.0000000009
    4    1    4    1        0.0204745199
    4    1    2    2       -0.0127640843
    4    1    3    2       -0.0000000008
    4    1    3    3       -0.0029642762
    5    1    1    1       -0.0901675324
    5    1    2    1        0.0001357709
    5    1    3    1        0.0000000009
    5    1    4    1        0.0031565939
    5    1    5    1        0.0193090279
    5    1    2    2       -0.0117081299
    5    1    3    2       -0.0000000007
    5    1    4    2       -0.0003329596
    5    1    3    3       -0.0027658467
    5    1    4    4       -0.0019853665
    6    1    1    1       -0.1832710089
    6    1    2    1        0.0024195529
    6    1    3    1        0.0000000024
    6    1    4    1        0.0088522559
    6    1    5    1        0.0310474263
    6    1    6    1        0.0513342070
    6    1    2    2       -0.0220564572
    6    1    3    2       -0.0000000011
    6    1    4    2        0.0009135039
    6    1    5    2        0.0231685873
    6    1    3    3       -0.0046013309
    6    1    4    3        0.0000000002
    6    1    5    3        0.0000000024
    6    1    4    4       -0.0028206863
    6    1    5    4        0.0052771715
    6    1    5    5        0.0126285862
    7    1    1    1        0.1459937492
    7    1    2    1       -0.0017391088
    7    1    3    1       -0.0000000022
    7    1    4    1       -0.0318668322
    7    1    5    1        0.0005911592
    7    1    6    1       -0.0052090787
    7    1    7    1        0.0519249410
    7    1    2    2        0.0178953886
    7    1    3    2        0.0000000007
    7    1    4    2       -0.0252476691
    7    1    5    2        0.0065027752
    7    1    6    2        0.0053594562
    7    1    3    3        0.0033854234
    7    1    4    3       -0.0000000027
    7    1    5    3        0.0000000005
    7    1    6    3        0.0000000005
    7    1    4    4       -0.0156037190
    7    1    5    4       -0.0032169178
    7    1    6    4       -0.0056571522
    7    1    5    5        0.0062985209
    7    1    6    5        0.0048903222
    7    1    6    6        0.0090135492
    8    1    1    1        0.0000000416
    8    1    3    1       -0.0363136072
    8    1    4    1        0.0000000003
    8    1    6    1       -0.0000000011
    8    1    7    1        0.0000000008
    8    1    8    1        0.0526460937
    8    1    2    2        0.0000000062
    8    1    3    2       -0.0350638345
    8    1    4    2        0.0000000023
    8    1    5    2        0.0000000019
    8    1    6    2        0.0000000020
    8    1    7    2       -0.0000000016
    8    1    3    3       -0.0000000061
    8    1    4    3       -0.0075412026
    8    1    5    3       -0.0070871788
    8    1    6    3       -0.0102120423
    8    1    7    3        0.0080783567
    8    1    4    4        0.0000000019
    8    1    5    4        0.0000000006
    8    1    6    4        0.0000000009
    8    1    7    4       -0.0000000013
    8    1    5    5        0.0000000016
    8    1    6    5        0.0000000013
    8    1    7    5       -0.0000000004
    8    1    6    6        0.0000000024
    8    1    7    6       -0.0000000007
    8    1    7    7        0.0000000021
    2    2    1    1        1.0574862765
    2    2    2    1        0.0196190925
    2    2    2    2        0.8477026183
    3    2    1    1        0.0000000047
    3    2    2    1       -0.0000000008
    3    2    3    1        0.0201053669
    3    2    2    2       -0.0000000147
    3    2    3    2        0.1299903086
    4    2    1    1       -0.0077065383
    4    2    2    1       -0.0024725474
    4    2    3    1       -0.0000000006
    4    2    4    1        0.0132374285
    4    2    2    2       -0.0490096245
    4    2    3    2       -0.0000000084
    4    2    4    2        0.0875030798
    4    2    3    3        0.0089595953
    5    2    1    1       -0.0056758260
    5    2    2    1       -0.0022010281
    5    2    3    1       -0.0000000006
    5    2    4    1       -0.0003945257
    5    2    5    1        0.0127231443
    5    2    2    2       -0.0440601006
    5    2    3    2       -0.0000000076
    5    2    4    2       -0.0154944234
    5    2    5    2        0.0848872461
    5    2    3    3        0.0083758042
    5    2    4    3       -0.0000000022
    5    2    4    4       -0.0083787703
    6    2    1    1        0.0167317072
    6    2    2    1       -0.0027816068
    6    2    3    1       -0.0000000008
    6    2    4    1       -0.0000956784
    6    2    5    1        0.0139572908
    6    2    6    1        0.0222234274
    6    2    2    2       -0.0232458533
    6    2    3    2       -0.0000000060
    6    2    4    2       -0.0078324447
    6    2    5    2        0.0547813702
    6    2    6    2        0.0477279193
    6    2    3    3        0.0154792840
    6    2    4    3       -0.0000000014
    6    2    5    3        0.0000000039
    6    2    4    4        0.0054006897
    6    2    5    4        0.0086432603
    6    2    5    5        0.0337376468
    7    2    1    1       -0.0106825665
    7    2    2    1        0.0023757872
    7    2    3    1        0.0000000005
    7    2    4    1       -0.0147579651
    7    2    5    1        0.0043685644
    7    2    6    1        0.0051577428
    7    2    7    1        0.0254892231
    7    2    2    2        0.0179445550
    7    2    3    2        0.0000000041
    7    2    4    2       -0.0557788467
    7    2    5    2        0.0238443433
    7    2    6    2        0.0175975734
    7    2    7    2        0.0542380637
    7    2    3    3       -0.0115511826
    7    2    4    3       -0.0000000042
    7    2    5    3        0.0000000025
    7    2    6    3        0.0000000021
    7    2    4    4       -0.0310714424
    7    2    5    4       -0.0048635659
    7    2    6    4       -0.0088600191
    7    2    5    5        0.0030944958
    7    2    6    5       -0.0035731377
    7    2    6    6        0.0008444931
    8    2    1    1        0.0000000057
    8    2    2    1        0.0000000012
    8    2    3    1       -0.0191220988
    8    2    4    1        0.0000000012
    8    2    5    1        0.0000000009
    8    2    6    1        0.0000000012
    8    2    7    1       -0.0000000009
    8    2    8    1        0.0266151871
    8    2    2    2        0.0000000100
    8    2    3    2       -0.0529336794
    8    2    4    2        0.0000000034
    8    2    5    2        0.0000000028
    8    2    6    2        0.0000000036
    8    2    7    2       -0.0000000029
    8    2    8    2        0.0451639988
    8    2    3    3       -0.0000000078
    8    2    4    3       -0.0074815082
    8    2    5    3       -0.0072829138
    8    2    6    3       -0.0135888485
    8    2    7    3        0.0105606521
    8    2    4    4        0.0000000028
    8    2    5    4        0.0000000006
    8    2    6    4        0.0000000013
    8    2    7    4       -0.0000000016
    8    2    5    5        0.0000000025
    8    2    6    5        0.0000000017
    8    2    7    5       -0.0000000008
    8    2    6    6        0.0000000021
    8    2    7    6       -0.0000000012
    8    2    7    7        0.0000000015
    3    3    1    1        1.0149851137
    3    3    2    1        0.0158698986
    3    3    3    1        0.0000000031
    3    3    2    2        0.7157262690
    3    3    3    2        0.0000000253
    3    3    3    3        0.7271982177
    4    3    1    1        0.0000000007
    4    3    2    1       -0.0000000006
    4    3    3    1        0.0047473829
    4    3    4    1        0.0000000015
    4    3    2    2       -0.0000000095
    4    3    3    2        0.0220173917
    4    3    4    2        0.0000000053
    4    3    3    3        0.0000000059
    4    3    4    3        0.0354359913
    5    3    1    1        0.0000000012
    5    3    2    1       -0.0000000005
    5    3    3    1        0.0044389506
    5    3    5    1        0.0000000015
    5    3    2    2       -0.0000000085
    5    3    3    2        0.0208641215
    5    3    4    2       -0.0000000022
    5    3    5    2        0.0000000051
    5    3    3    3        0.0000000057
    5    3    4    3        0.0059039622
    5    3    5    3        0.0337839910
    5    3    4    4       -0.0000000005
    6    3    1    1        0.0000000111
    6    3    2    1       -0.0000000007
    6    3    3    1        0.0073239000
    6    3    5    1        0.0000000014
    6    3    6    1        0.0000000024
    6    3    2    2       -0.0000000041
    6    3    3    2        0.0200418423
    6    3    4    2       -0.0000000016
    6    3    5    2        0.0000000042
    6    3    6    2        0.0000000031
    6    3    3    3        0.0000000087
    6    3    4    3        0.0060912927
    6    3    5    3        0.0199817687
    6    3    6    3        0.0251137442
    6    3    4    4        0.0000000027
    6    3    5    4        0.0000000011
    6    3    5    5        0.0000000064
    7    3    1    1       -0.0000000132
    7    3    2    1        0.0000000005
    7    3    3    1       -0.0058077118
    7    3    4    1       -0.0000000015
    7    3    5    1        0.0000000005
    7    3    6    1        0.0000000006
    7    3    7    1        0.0000000028
    7    3    2    2        0.0000000012
    7    3    3    2       -0.0156802330
    7    3    4    2       -0.0000000045
    7    3    5    2        0.0000000028
    7    3    6    2        0.0000000021
    7    3    7    2        0.0000000041
    7    3    3    3       -0.0000000087
    7    3    4    3       -0.0188506713
    7    3    5    3       -0.0001925268
    7    3    6    3       -0.0037027857
    7    3    7    3        0.0232880099
    7    3    4    4       -0.0000000071
    7    3    5    4       -0.0000000007
    7    3    6    4       -0.0000000016
    7    3    5    5       -0.0000000025
    7    3    6    5       -0.0000000030
    7    3    6    6       -0.0000000036
    8    3    1    1       -0.5389643369
    8    3    2    1       -0.0140010371
    8    3    3    1       -0.0000000021
    8    3    4    1        0.0036363059
    8    3    5    1        0.0033000527
    8    3    6    1        0.0064379091
    8    3    7    1       -0.0051015312
    8    3    8    1        0.0000000036
    8    3    2    2       -0.2209323950
    8    3    3    2       -0.0000000103
    8    3    4    2        0.0008323193
    8    3    5    2       -0.0001778413
    8    3    6    2       -0.0101491807
    8    3    7    2        0.0072692546
    8    3    8    2        0.0000000061
    8    3    3    3       -0.2150195035
    8    3    4    3       -0.0000000011
    8    3    5    3       -0.0000000014
    8    3    6    3       -0.0000000059
    8    3    7    3        0.0000000058
    8    3    8    3        0.1669668345
    8    3    4    4       -0.1589289679
    8    3    5    4       -0.0052283929
    8    3    6    4       -0.0192936192
    8    3    7    4        0.1243514341
    8    3    5    5       -0.1532102596
    8    3    6    5       -0.1233966741
    8    3    7    5       -0.0178299790
    8    3    6    6       -0.1831631805
    8    3    7    6       -0.0042585359
    8    3    7    7       -0.1889350937
    4    4    1    1        0.9017506087
    4    4    2    1        0.0115944642
    4    4    3    1       -0.0000000012
    4    4    4    1        0.0059610738
    4    4    2    2        0.6309616478
    4    4    3    2        0.0000000005
    4    4    4    2        0.0795955735
    4    4    3    3        0.6201377455
    4    4    4    3        0.0000000085
    4    4    4    4        0.7621296146
    5    4    1    1        0.0202774000
    5    4    2    1       -0.0006028836
    5    4    3    1       -0.0000000001
    5    4    4    1        0.0029985698
    5    4    5    1        0.0032145952
    5    4    2    2       -0.0106127708
    5    4    3    2       -0.0000000021
    5    4    4    2        0.0051923157
    5    4    5    2        0.0100506924
    5    4    3    3        0.0094037084
    5    4    4    3        0.0000000006
    5    4    5    3        0.0000000011
    5    4    4    4        0.0114559964
    5    4    5    4        0.0285681674
    6    4    1    1        0.0754037547
    6    4    2    1       -0.0003333835
    6    4    3    1       -0.0000000004
    6    4    4    1        0.0046644106
    6    4    5    1        0.0027376968
    6    4    6    1        0.0048766968
    6    4    2    2        0.0139265918
    6    4    3    2       -0.0000000015
    6    4    4    2        0.0072691903
    6    4    5    2        0.0091707789
    6    4    6    2        0.0067268302
    6    4    3    3        0.0282105403
    6    4    4    3        0.0000000008
    6    4    5    3        0.0000000011
    6    4    6    3        0.0000000012
    6    4    4    4        0.0252755998
    6    4    5    4        0.0178962354
    6    4    6    4        0.0233914643
    6    4    5    5        0.0337489192
    7    4    1    1       -0.4802516047
    7    4    2    1       -0.0103403929
    7    4    3    1        0.0000000013
    7    4    4    1       -0.0042966518
    7    4    5    1        0.0034664658
    7    4    6    1        0.0050423978
    7    4    7    1        0.0038579628
    7    4    2    2       -0.2073862495
    7    4    3    2       -0.0000000034
    7    4    4    2        0.0094894739
    7    4    5    2       -0.0049541115
    7    4    6    2       -0.0088549678
    7    4    7    2        0.0189447304
    7    4    3    3       -0.1810999380
    7    4    4    3        0.0000000003
    7    4    5    3       -0.0000000010
    7    4    6    3       -0.0000000030
    7    4    7    3        0.0000000049
    7    4    4    4       -0.1146426230
    7    4    5    4       -0.0088798782
    7    4    6    4       -0.0305427635
    7    4    7    4        0.2024417615
    7    4    5    5       -0.1533673324
    7    4    6    5       -0.1064883842
    7    4    6    6       -0.1782200379
    8    4    1    1        0.0000000193
    8    4    2    1        0.0000000011
    8    4    3    1       -0.0034153871
    8    4    4    1       -0.0000000008
    8    4    6    1       -0.0000000002
    8    4    7    1        0.0000000012
    8    4    8    1        0.0042825789
    8    4    2    2        0.0000000098
    8    4    3    2       -0.0036341770
    8    4    4    2        0.0000000003
    8    4    6    2        0.0000000008
    8    4    7    2        0.0000000001
    8    4    8    2        0.0045030512
    8    4    3    3        0.0000000065
    8    4    4    3       -0.0069221304
    8    4    5    3       -0.0015404081
    8    4    6    3       -0.0045995093
    8    4    7    3        0.0166985825
    8    4    8    3       -0.0000000041
    8    4    4    4        0.0000000082
    8    4    5    4        0.0000000003
    8    4    6    4        0.0000000005
    8    4    7    4       -0.0000000037
    8    4    8    4        0.0154929050
    8    4    5    5        0.0000000060
    8    4    6    5        0.0000000048
    8    4    7    5        0.0000000003
    8    4    6    6        0.0000000068
    8    4    7    7        0.0000000082
    5    5    1    1        0.8776375135
    5    5    2    1        0.0112967469
    5    5    3    1       -0.0000000011
    5    5    4    1       -0.0019180090
    5    5    5    1        0.0053797164
    5    5    2    2        0.6194482056
    5    5    3    2        0.0000000005
    5    5    4    2       -0.0038390225
    5    5    5    2        0.0748087199
    5    5    3    3        0.6076175171
    5    5    4    3       -0.0000000002
    5    5    5    3        0.0000000078
    5    5    4    4        0.5638460376
    5    5    5    4        0.0195082436
    5    5    5    5        0.7360160643
    6    5    1    1        0.4753893635
    6    5    2    1        0.0098110589
    6    5    3    1       -0.0000000013
    6    5    4    1       -0.0026321133
    6    5    5    1        0.0051389896
    6    5    6    1        0.0037226654
    6    5    2    2        0.2078916092
    6    5    3    2        0.0000000030
    6    5    4    2        0.0056433099
    6    5    5    2       -0.0065886474
    6    5    6    2        0.0208949491
    6    5    3    3        0.1842278631
    6    5    4    3        0.0000000010
    6    5    5    3        0.0000000001
    6    5    6    3        0.0000000041
    6    5    4    4        0.1654762172
    6    5    5    4        0.0086213305
    6    5    6    4        0.0194179283
    6    5    5    5        0.1084789085
    6    5    6    5        0.2071136899
    7    5    1    1        0.0676636259
    7    5    2    1        0.0033686114
    7    5    4    1       -0.0034434882
    7    5    5    1       -0.0034189288
    7    5    6    1       -0.0059866623
    7    5    7    1        0.0045566806
    7    5    2    2        0.0476148171
    7    5    3    2        0.0000000024
    7    5    4    2       -0.0089448491
    7    5    5    2       -0.0082625068
    7    5    6    2       -0.0045482561
    7    5    7    2        0.0018840372
    7    5    3    3        0.0264089566
    7    5    4    3       -0.0000000010
    7    5    5    3       -0.0000000008
    7    5    6    3       -0.0000000006
    7    5    4    4        0.0093364607
    7    5    5    4       -0.0135392027
    7    5    6    4       -0.0139383937
    7    5    7    4       -0.0212856737
    7    5    5    5        0.0127657343
    7    5    6    5        0.0218803516
    7    5    7    5        0.0207776487
    7    5    6    6        0.0105735912
    8    5    1    1        0.0000000135
    8    5    2    1        0.0000000009
    8    5    3    1       -0.0032529488
    8    5    5    1       -0.0000000007
    8    5    6    1       -0.0000000011
    8    5    7    1       -0.0000000002
    8    5    8    1        0.0040932415
    8    5    2    2        0.0000000072
    8    5    3    2       -0.0036111930
    8    5    5    2        0.0000000004
    8    5    7    2       -0.0000000008
    8    5    8    2        0.0045132209
    8    5    3    3        0.0000000044
    8    5    4    3       -0.0015377629
    8    5    5    3       -0.0063238753
    8    5    6    3       -0.0166389098
    8    5    7    3       -0.0003650069
    8    5    8    3       -0.0000000024
    8    5    4    4        0.0000000044
    8    5    5    4        0.0000000004
    8    5    6    4        0.0000000011
    8    5    7    4       -0.0000000035
    8    5    8    4        0.0013401223
    8    5    5    5        0.0000000063
    8    5    6    5        0.0000000019
    8    5    7    5        0.0000000005
    8    5    8    5        0.0152865144
    8    5    6    6        0.0000000062
    8    5    7    6        0.0000000002
    8    5    7    7        0.0000000048
    6    6    1    1        1.0435118872
    6    6    2    1        0.0138362409
    6    6    3    1       -0.0000000018
    6    6    4    1       -0.0031004398
    6    6    5    1        0.0072852430
    6    6    6    1        0.0139209540
    6    6    2    2        0.6168855059
    6    6    3    2        0.0000000012
    6    6    4    2       -0.0027417261
    6    6    5    2        0.0707782230
    6    6    6    2        0.0372790045
    6    6    3    3        0.6139855262
    6    6    4    3        0.0000000004
    6    6    5    3        0.0000000084
    6    6    6    3        0.0000000081
    6    6    4    4        0.5666418114
    6    6    5    4        0.0238209032
    6    6    6    4        0.0421150749
    6    6    5    5        0.7265467001
    6    6    6    5        0.1201264000
    6    6    6    6        0.7713450235
    7    6    1    1        0.0140907039
    7    6    2    1        0.0031882221
    7    6    4    1       -0.0065224700
    7    6    5    1       -0.0035705460
    7    6    6    1       -0.0057818572
    7    6    7    1        0.0097996033
    7    6    2    2        0.0316112165
    7    6    3    2        0.0000000023
    7    6    4    2       -0.0222091173
    7    6    5    2       -0.0019019225
    7    6    6    2       -0.0058902945
    7    6    7    2        0.0112857737
    7    6    3    3        0.0039610947
    7    6    4    3       -0.0000000029
    7    6    5    3       -0.0000000007
    7    6    6    3       -0.0000000010
    7    6    7    3        0.0000000016
    7    6    4    4       -0.0295090926
    7    6    5    4       -0.0216320973
    7    6    6    4       -0.0174115874
    7    6    7    4       -0.0111763398
    7    6    5    5        0.0154794632
    7    6    6    5       -0.0073181719
    7    6    7    5        0.0193523634
    7    6    6    6        0.0135912723
    7    6    7    6        0.0327680901
    8    6    1    1        0.0000000043
    8    6    2    1        0.0000000010
    8    6    3    1       -0.0073689516
    8    6    4    1        0.0000000002
    8    6    5    1       -0.0000000010
    8    6    6    1       -0.0000000016
    8    6    7    1       -0.0000000004
    8    6    8    1        0.0113252573
    8    6    2    2        0.0000000082
    8    6    3    2       -0.0272740810
    8    6    4    2        0.0000000020
    8    6    5    2       -0.0000000010
    8    6    6    2       -0.0000000012
    8    6    7    2       -0.0000000018
    8    6    8    2        0.0107805747
    8    6    3    3       -0.0000000064
    8    6    4    3       -0.0094469504
    8    6    5    3       -0.0269262739
    8    6    6    3       -0.0191004255
    8    6    7    3        0.0028617704
    8    6    8    3        0.0000000010
    8    6    4    4        0.0000000015
    8    6    5    4        0.0000000007
    8    6    6    4        0.0000000004
    8    6    7    4       -0.0000000007
    8    6    8    4        0.0021748183
    8    6    5    5       -0.0000000009
    8    6    6    5        0.0000000008
    8    6    8    5        0.0079659015
    8    6    6    6       -0.0000000010
    8    6    8    6        0.0298991109
    8    6    7    7        0.0000000014
    7    7    1    1        1.0751097034
    7    7    2    1        0.0156394483
    7    7    3    1       -0.0000000017
    7    7    4    1        0.0046075479
    7    7    5    1       -0.0060199420
    7    7    6    1       -0.0098263953
    7    7    7    1       -0.0134892840
    7    7    2    2        0.6405054337
    7    7    3    2        0.0000000030
    7    7    4    2        0.0671784114
    7    7    5    2       -0.0128440946
    7    7    6    2        0.0033053531
    7    7    7    2       -0.0288230376
    7    7    3    3        0.6243733619
    7    7    4    3        0.0000000086
    7    7    5    3       -0.0000000006
    7    7    6    3        0.0000000033
    7    7    7    3       -0.0000000083
    7    7    4    4        0.7400955516
    7    7    5    4        0.0023892891
    7    7    6    4        0.0205014247
    7    7    7    4       -0.1285679302
    7    7    5    5        0.5593846892
    7    7    6    5        0.1872177310
    7    7    7    5        0.0186266217
    7    7    6    6        0.5815150929
    7    7    7    6       -0.0206608584
    7    7    7    7        0.7790913742
    8    7    1    1       -0.0000000035
    8    7    2    1       -0.0000000008
    8    7    3    1        0.0058557683
    8    7    4    1        0.0000000011
    8    7    5    1       -0.0000000004
    8    7    6    1       -0.0000000004
    8    7    7    1       -0.0000000020
    8    7    8    1       -0.0089578248
    8    7    2    2       -0.0000000067
    8    7    3    2        0.0213579938
    8    7    4    2        0.0000000013
    8    7    5    2       -0.0000000021
    8    7    6    2       -0.0000000019
    8    7    7    2       -0.0000000022
    8    7    8    2       -0.0083602447
    8    7    3    3        0.0000000053
    8    7    4    3        0.0268122779
    8    7    5    3        0.0014232981
    8    7    6    3        0.0029123249
    8    7    7    3       -0.0174244037
    8    7    8    3       -0.0000000008
    8    7    4    4        0.0000000004
    8    7    5    4       -0.0000000005
    8    7    7    4        0.0000000007
    8    7    8    4       -0.0079745164
    8    7    5    5       -0.0000000015
    8    7    6    5       -0.0000000006
    8    7    8    5        0.0002074994
    8    7    6    6       -0.0000000017
    8    7    7    6       -0.0000000006
    8    7    8    6       -0.0056427815
    8    7    7    7        0.0000000011
    8    7    8    7        0.0281084585
    8    8    1    1        1.0249411841
    8    8    2    1        0.0157499143
    8    8    3    1        0.0000000018
    8    8    4    1       -0.0051938532
    8    8    5    1       -0.0047169579
    8    8    6    1       -0.0083955395
    8    8    7    1        0.0065892490
    8    8    8    1       -0.0000000044
    8    8    2    2        0.6228301492
    8    8    3    2        0.0000000183
    8    8    4    2        0.0046188162
    8    8    5    2        0.0047551004
    8    8    6    2        0.0106868206
    8    8    7    2       -0.0074704553
    8    8    8    2       -0.0000000050
    8    8    3    3        0.6318171476
    8    8    4    3        0.0000000025
    8    8    5    3        0.0000000030
    8    8    6    3        0.0000000057
    8    8    7    3       -0.0000000059
    8    8    8    3       -0.1911618273
    8    8    4    4        0.5496612583
    8    8    5    4        0.0073219784
    8    8    6    4        0.0241537925
    8    8    7    4       -0.1568567446
    8    8    8    4        0.0000000066
    8    8    5    5        0.5399691904
    8    8    6    5        0.1582864144
    8    8    7    5        0.0229388205
    8    8    8    5        0.0000000046
    8    8    6    6        0.5628151297
    8    8    7    6        0.0041704414
    8    8    8    6       -0.0000000036
    8    8    7    7        0.5725434341
    8    8    8    7        0.0000000027
    8    8    8    8        0.5884093130
 end_two_electron_integrals
 enrep_tce =    8.7339606425519118     
  EHF(A)             =       -76.04107249
  EHF(total)         =       -76.04107249
  Shift (HFtot-HFA)  =         0.00000000
 Cpu & wall time / sec            0.2            0.2
 T1-number-of-tasks                   15

 t1 file size   =               15
 t1 file name   = ./H2O.t1
 t1 file handle =       -998
 T2-number-of-boxes                  315

 t2 file size   =              315
 t2 file name   = ./H2O.t2
 t2 file handle =       -996
CCSD iterations
 ---------------------------------------------------------
 Iter          Residuum       Correlation     Cpu    Wall 
 ---------------------------------------------------------
NEW TASK SCHEDULING
CCSD_T1_NTS --- OK
CCSD_T2_NTS --- OK
    1   0.7335938926103  -0.2369875177520     1.9     2.6
    2   1.1574932310114   0.1126623301965     2.0     2.6
    3   1.8579448923381  -0.4357160278246     1.9     2.6
    4   3.0645567990120   0.4315201777038     2.0     2.6
    5   4.8897991142355  -0.9830375233550     1.9     2.6
 MICROCYCLE DIIS UPDATE:                    5                    5
    6   0.0130993862689  -0.0975115531741     1.9     2.6
    7   0.0102696583402  -0.0996013093002     1.9     2.6
    8   0.0134640435513  -0.0971397630110     1.7     2.6
    9   0.0236659807661  -0.0999871943849     2.0     2.6
   10   0.0418724160196  -0.0938317104032     2.0     2.6
 MICROCYCLE DIIS UPDATE:                   10                    5
   11   0.0002396956801  -0.0985836292117     1.9     2.6
   12   0.0003406454867  -0.0986534382559     1.8     2.6
   13   0.0005612352217  -0.0985435795843     1.8     2.6
   14   0.0009726328974  -0.0987179329061     1.8     2.6
   15   0.0017220120764  -0.0984387112694     1.8     2.6
 MICROCYCLE DIIS UPDATE:                   15                    5
   16   0.0000040023832  -0.0986108955185     2.0     2.7
   17   0.0000030081425  -0.0986105940996     2.0     2.7
   18   0.0000046440212  -0.0986112362063     2.0     2.7
   19   0.0000082763745  -0.0986101235651     2.0     2.7
   20   0.0000150990388  -0.0986119614223     1.8     2.6
 MICROCYCLE DIIS UPDATE:                   20                    5
   21   0.0000001432720  -0.0986108076164     1.9     2.7
   22   0.0000001452506  -0.0986108446049     1.9     2.7
   23   0.0000002332366  -0.0986107904449     1.8     2.7
   24   0.0000003988301  -0.0986108738876     2.0     2.7
   25   0.0000007008160  -0.0986107418048     1.9     2.6
 MICROCYCLE DIIS UPDATE:                   25                    5
   26   0.0000000044340  -0.0986108231710     1.9     2.6
 -----------------------------------------------------------------
 Iterations converged
 CCSD correlation energy / hartree =        -0.098610823170984
 CCSD total energy / hartree       =       -76.139683310255222

 Singles contributions

 Doubles contributions
     6a   (alpha)     7a   (alpha) ---     4a   (alpha)     5a   (alpha)       -0.0232601609
     6a   (alpha)     8a   (alpha) ---     3a   (alpha)     5a   (alpha)       -0.0305371594
     6a   (alpha)     6a   (beta ) ---     5a   (alpha)     5a   (beta )       -0.0934821678
     6a   (alpha)     7a   (beta ) ---     5a   (alpha)     4a   (beta )        0.0338849564
     6a   (alpha)     8a   (beta ) ---     5a   (alpha)     3a   (beta )        0.0417146463
     7a   (alpha)     8a   (alpha) ---     3a   (alpha)     4a   (alpha)        0.0301523134
     7a   (alpha)     6a   (beta ) ---     4a   (alpha)     5a   (beta )        0.0338849564
     7a   (alpha)     7a   (beta ) ---     4a   (alpha)     4a   (beta )       -0.0823605674
     7a   (alpha)     8a   (beta ) ---     4a   (alpha)     3a   (beta )       -0.0407568304
     8a   (alpha)     6a   (beta ) ---     3a   (alpha)     5a   (beta )        0.0417146463
     8a   (alpha)     7a   (beta ) ---     3a   (alpha)     4a   (beta )       -0.0407568304
     8a   (alpha)     8a   (beta ) ---     3a   (alpha)     3a   (beta )       -0.0612398971
 Ground state specification:
 exp(T)|Ref>~(1+T)|Ref>
 ------- a(p)+/a(q) strings ----------

 singles norm

 doubles norm

 Reference string
   1.0000000000000000      :(1a)+ (2a)+ (3a)+ (4a)+ (5a)+ (1b)+ (2b)+ (3b)+ (4b)+ (5b)+ |0>

 Singles strings

 Doubles strings
 -------------------------------------

 Parallel integral file used       3 records with       0 large values


 Task  times  cpu:       50.4s     wall:       69.6s


                                NWChem Input Module
                                -------------------


 Summary of allocated global arrays
-----------------------------------
  No active global arrays


MA_summarize_allocated_blocks: starting scan ...
MA_summarize_allocated_blocks: scan completed: 0 heap blocks, 0 stack blocks
MA usage statistics:

	allocation statistics:
					      heap	     stack
					      ----	     -----
	current number of blocks	         0	         0
	maximum number of blocks	        18	        42
	current total bytes		         0	         0
	maximum total bytes		   5323032	  24073272
	maximum total K-bytes		      5324	     24074
	maximum total M-bytes		         6	        25


                                     CITATION
                                     --------
                Please cite the following reference when publishing
                           results obtained with NWChem:

          E. Apra, E. J. Bylaska, W. A. de Jong, N. Govind, K. Kowalski,
       T. P. Straatsma, M. Valiev, H. J. J. van Dam, Y. Alexeev, J. Anchell,
       V. Anisimov, F. W. Aquino, R. Atta-Fynn, J. Autschbach, N. P. Bauman,
     J. C. Becca, D. E. Bernholdt, K. Bhaskaran-Nair, S. Bogatko, P. Borowski,
         J. Boschen, J. Brabec, A. Bruner, E. Cauet, Y. Chen, G. N. Chuev,
      C. J. Cramer, J. Daily, M. J. O. Deegan, T. H. Dunning Jr., M. Dupuis,
   K. G. Dyall, G. I. Fann, S. A. Fischer, A. Fonari, H. Fruchtl, L. Gagliardi,
      J. Garza, N. Gawande, S. Ghosh, K. Glaesemann, A. W. Gotz, J. Hammond,
       V. Helms, E. D. Hermes, K. Hirao, S. Hirata, M. Jacquelin, L. Jensen,
   B. G. Johnson, H. Jonsson, R. A. Kendall, M. Klemm, R. Kobayashi, V. Konkov,
      S. Krishnamoorthy, M. Krishnan, Z. Lin, R. D. Lins, R. J. Littlefield,
      A. J. Logsdail, K. Lopata, W. Ma, A. V. Marenich, J. Martin del Campo,
   D. Mejia-Rodriguez, J. E. Moore, J. M. Mullin, T. Nakajima, D. R. Nascimento,
    J. A. Nichols, P. J. Nichols, J. Nieplocha, A. Otero-de-la-Roza, B. Palmer,
    A. Panyala, T. Pirojsirikul, B. Peng, R. Peverati, J. Pittner, L. Pollack,
   R. M. Richard, P. Sadayappan, G. C. Schatz, W. A. Shelton, D. W. Silverstein,
   D. M. A. Smith, T. A. Soares, D. Song, M. Swart, H. L. Taylor, G. S. Thomas,
            V. Tipparaju, D. G. Truhlar, K. Tsemekhman, T. Van Voorhis,
      A. Vazquez-Mayagoitia, P. Verma, O. Villa, A. Vishnu, K. D. Vogiatzis,
        D. Wang, J. H. Weare, M. J. Williamson, T. L. Windus, K. Wolinski,
        A. T. Wong, Q. Wu, C. Yang, Q. Yu, M. Zacharias, Z. Zhang, Y. Zhao,
                                and R. J. Harrison
                        "NWChem: Past, present, and future
                         J. Chem. Phys. 152, 184102 (2020)
                               doi:10.1063/5.0004997

                                      AUTHORS
                                      -------
  E. Apra, E. J. Bylaska, N. Govind, K. Kowalski, M. Valiev, D. Mejia-Rodriguez,
       A. Kunitsa, N. P. Bauman, A. Panyala, W. A. de Jong, T. P. Straatsma,
        H. J. J. van Dam, D. Wang, T. L. Windus, J. Hammond, J. Autschbach,
    K. Bhaskaran-Nair, J. Brabec, K. Lopata, S. A. Fischer, S. Krishnamoorthy,
     M. Jacquelin, W. Ma, M. Klemm, O. Villa, Y. Chen, V. Anisimov, F. Aquino,
    S. Hirata, M. T. Hackler, Eric Hermes, L. Jensen, J. E. Moore, J. C. Becca,
      V. Konjkov, T. Risthaus, M. Malagoli, A. Marenich, A. Otero-de-la-Roza,
        J. Mullin, P. Nichols, R. Peverati, J. Pittner, Y. Zhao, P.-D. Fan,
        A. Fonari, M. J. Williamson, R. J. Harrison, J. R. Rehr, M. Dupuis,
     D. Silverstein, D. M. A. Smith, J. Nieplocha, V. Tipparaju, M. Krishnan,
     B. E. Van Kuiken, A. Vazquez-Mayagoitia, M. Swart, Q. Wu, T. Van Voorhis,
     A. A. Auer, M. Nooijen, L. D. Crosby, E. Brown, G. Cisneros, G. I. Fann,
   H. Fruchtl, J. Garza, K. Hirao, R. A. Kendall, J. A. Nichols, K. Tsemekhman,
    K. Wolinski, J. Anchell, D. E. Bernholdt, P. Borowski, T. Clark, D. Clerc,
   H. Dachsel, M. J. O. Deegan, K. Dyall, D. Elwood, E. Glendening, M. Gutowski,
   A. C. Hess, J. Jaffe, B. G. Johnson, J. Ju, R. Kobayashi, R. Kutteh, Z. Lin,
   R. Littlefield, X. Long, B. Meng, T. Nakajima, S. Niu, L. Pollack, M. Rosing,
   K. Glaesemann, G. Sandrone, M. Stave, H. Taylor, G. Thomas, J. H. van Lenthe,
                               A. T. Wong, Z. Zhang.

 Total times  cpu:       53.0s     wall:       74.2s
