 argument  1 = input.nw
  NWChem w/ OpenMP: maximum threads =    1



============================== echo of input deck ==============================
 echo
 start H2O
 title "H2O"

 memory total 24 gb

 geometry units bohr
 symmetry c1
        O  0.00000000  0.00000000  0.00000000
        H  0.00000000  2.05544675  0.00000000
        H  1.72558000 -0.64860000  0.00000000
 end

 basis spherical
   * library 6-311++G**
 end

 mcscf
   active  8
   actelec 10
   multiplicity 1
   maxiter 40
   vectors input h2o.mos
   vectors output h2o.mos
 end

 task mcscf

 scf
   vectors input h2o.mos
   vectors output h2o-trash.mos
   noscf
 end

 tce
   2eorb
   2emet 13
   ccsd
   maxiter 300
 end

 set tce:print_integrals T
 set tce:qorb 8
 set tce:qela 5
 set tce:qelb 5

# set tce:qducc T
# set tce:nactv 3
# set tce:nonhf T
# set tce:ducc_model 6

 set tce:printtol 0.02

 task tce
================================================================================


                                         
                                         


             Northwest Computational Chemistry Package (NWChem) 7.0.1
             --------------------------------------------------------


                    Environmental Molecular Sciences Laboratory
                       Pacific Northwest National Laboratory
                                Richland, WA 99352

                              Copyright (c) 1994-2020
                       Pacific Northwest National Laboratory
                            Battelle Memorial Institute

             NWChem is an open-source computational chemistry package
                        distributed under the terms of the
                      Educational Community License (ECL) 2.0
             A copy of the license is included with this distribution
                              in the LICENSE.TXT file

                                  ACKNOWLEDGMENT
                                  --------------

            This software and its documentation were developed at the
            EMSL at Pacific Northwest National Laboratory, a multiprogram
            national laboratory, operated for the U.S. Department of Energy
            by Battelle under Contract Number DE-AC05-76RL01830. Support
            for this work was provided by the Department of Energy Office
            of Biological and Environmental Research, Office of Basic
            Energy Sciences, and the Office of Advanced Scientific Computing.


           Job information
           ---------------

    hostname        = WE46210
    program         = /home/baum612/code/nwchem/bin/LINUX64/nwchem
    date            = Wed Sep  4 15:13:58 2024

    compiled        = Wed_Sep_04_02:00:17_2024
    source          = /home/baum612/code/nwchem
    nwchem branch   = 7.0.0
    nwchem revision = nwchem_on_git-4191-g39d87d64de
    ga revision     = 5.8.1
    use scalapack   = F
    input           = input.nw
    prefix          = H2O.
    data base       = ./H2O.db
    status          = startup
    nproc           =        1
    time left       =     -1s



           Memory information
           ------------------

    heap     =  805306366 doubles =   6144.0 Mbytes
    stack    =  805306363 doubles =   6144.0 Mbytes
    global   = 1610612736 doubles =  12288.0 Mbytes (distinct from heap & stack)
    total    = 3221225465 doubles =  24576.0 Mbytes
    verify   = yes
    hardfail = no 


           Directory information
           ---------------------

  0 permanent = .
  0 scratch   = .




                                NWChem Input Module
                                -------------------


                                        H2O
                                        ---
 Turning off AUTOSYM since
 SYMMETRY directive was detected!


          ------
          auto-z
          ------
  no constraints, skipping    0.0000000000000000     
  no constraints, skipping    0.0000000000000000     


                             Geometry "geometry" -> ""
                             -------------------------

 Output coordinates in a.u. (scale by  1.000000000 to convert to a.u.)

  No.       Tag          Charge          X              Y              Z
 ---- ---------------- ---------- -------------- -------------- --------------
    1 O                    8.0000    -0.17255800    -0.14068468     0.00000000
    2 H                    1.0000    -0.17255800     1.91476208     0.00000000
    3 H                    1.0000     1.55302200    -0.78928468     0.00000000

      Atomic Mass 
      ----------- 

      O                 15.994910
      H                  1.007825


 Effective nuclear repulsion energy (a.u.)       8.5435343190

            Nuclear Dipole moment (a.u.) 
            ----------------------------
        X                 Y               Z
 ---------------- ---------------- ----------------
    -0.0000000000     0.0000000000     0.0000000000



                                Z-matrix (autoz)
                                -------- 

 Units are Angstrom for bonds and degrees for angles

      Type          Name      I     J     K     L     M      Value
      ----------- --------  ----- ----- ----- ----- ----- ----------
    1 Stretch                  1     2                       1.08770
    2 Stretch                  1     3                       0.97551
    3 Bend                     2     1     3               110.59992


            XYZ format geometry
            -------------------
     3
 geometry
 O                    -0.09131377    -0.07444713     0.00000000
 H                    -0.09131377     1.01324853     0.00000000
 H                     0.82182391    -0.41767149     0.00000000

 ==============================================================================
                                internuclear distances
 ------------------------------------------------------------------------------
       center one      |      center two      | atomic units |       a.u.
 ------------------------------------------------------------------------------
    3 H                |   1 O                |     1.84345  |     1.84345
 ------------------------------------------------------------------------------
                         number of included internuclear distances:          1
 ==============================================================================





 Summary of "ao basis" -> "" (spherical)
 ------------------------------------------------------------------------------
       Tag                 Description            Shells   Functions and Types
 ---------------- ------------------------------  ------  ---------------------
 *                         6-311++G**                 on all atoms 


                      Basis "ao basis" -> "ao basis" (spherical)
                      -----
  O (Oxygen)
  ----------
            Exponent  Coefficients 
       -------------- ---------------------------------------------------------
  1 S  8.58850000E+03  0.001895
  1 S  1.29723000E+03  0.014386
  1 S  2.99296000E+02  0.070732
  1 S  8.73771000E+01  0.240001
  1 S  2.56789000E+01  0.594797
  1 S  3.74004000E+00  0.280802

  2 S  4.21175000E+01  0.113889
  2 S  9.62837000E+00  0.920811
  2 S  2.85332000E+00 -0.003274

  3 P  4.21175000E+01  0.036511
  3 P  9.62837000E+00  0.237153
  3 P  2.85332000E+00  0.819702

  4 S  9.05661000E-01  1.000000

  5 P  9.05661000E-01  1.000000

  6 S  2.55611000E-01  1.000000

  7 P  2.55611000E-01  1.000000

  8 S  8.45000000E-02  1.000000

  9 P  8.45000000E-02  1.000000

 10 D  1.29200000E+00  1.000000

  H (Hydrogen)
  ------------
            Exponent  Coefficients 
       -------------- ---------------------------------------------------------
  1 S  3.38650000E+01  0.025494
  1 S  5.09479000E+00  0.190373
  1 S  1.15879000E+00  0.852161

  2 S  3.25840000E-01  1.000000

  3 S  1.02741000E-01  1.000000

  4 S  3.60000000E-02  1.000000

  5 P  7.50000000E-01  1.000000



 Summary of "ao basis" -> "ao basis" (spherical)
 ------------------------------------------------------------------------------
       Tag                 Description            Shells   Functions and Types
 ---------------- ------------------------------  ------  ---------------------
 O                         6-311++G**               10       22   5s4p1d
 H                         6-311++G**                5        7   4s1p



                            NWChem Direct MCSCF Module
                            --------------------------


                                        H2O


     -----------------------------------
       Basis functions:             36
       Inactive shells:              0
       Active shells:                8
       Active electrons:            10
       Symmetry:                    a       
       Multiplicity:                 1
       Orbital rotations:          224
     -----------------------------------

     -----------------------------------
       E2 extrapolation:             F
       Conjugacy:                    T
       Micro CI relax:               T
       Canonical orbitals:           T
       Maximum iterations:          40
       Converge threshold:    1.00E-04
       Conjugacy resets:            20
       Initial levelshift:        0.10
     -----------------------------------

 Loading old vectors from job with title :

H2O


   input molecular orbitals = ./h2o.mos
  output molecular orbtials = ./h2o.mos

       No. of determinants:          3136


  Starting Orbital Energies
   -20.569086    -1.332824    -0.723523    -0.582209    -0.527904    -0.030951
    -0.025943    -0.016994     0.072443     0.087381     0.236678     0.278516
     0.317571     0.484798     0.499454     0.630916     1.013112     1.081798
     1.472344     1.532814     1.649841     1.720379     1.811990     2.136987
     2.299087     2.764218     2.866234     3.367190     3.500616     3.582670
     4.034874     4.182530     5.323631     5.698862     6.042521    51.525492

  Orbital Symmetry Irreps
a    a    a    a    a    a    a    a    a    a    a    a    a    a    a   
a    a    a    a    a    a    a    a    a    a    a    a    a    a    a   
a    a    a    a    a    a   

 Integral file          = ./H2O.aoints.0
 Record size in doubles =  65536        No. of integs per rec  =  43688
 Max. records in memory =     10        Max. records in file   = 232563
 No. of bits per label  =      8        No. of bits per value  =     64


 #quartets = 2.216D+04 #integrals = 1.003D+05 #direct =  0.0% #cached =100.0%




          %%%%% MacroIteration   1 %%%%%


          Number of sigma calls:       15
                       o<<<<< (aa):             0.00
                       o<<<<< (bb):             0.00
                       o<<<<< (ab):             0.04
                       o<<<<< (total)           0.05
                       o<<<<< (aa) ff           0.00
                       o<<<<< (aa) gop          0.00
                       o<<<<< (aa) dot          0.00
                       o<<<<< (ab) str          0.00
                       o<<<<< (ab) gath         0.00
                       o<<<<< (ab) dotab        0.00
                       o<<<<< (ab) scat         0.00
                       o<<<<< (ab) sync         0.00
                       o<<<<< Density           0.00
                       o<<<<< Density one       0.00
                       o<<<<< Density two       0.00
                       o<<<<< Density ab        0.00
                       o<<<<< Spin adapt        0.17
                       o<<<<< Symm adapt        0.00

                       o<<<<< (ab) max sync:      0.00

           >>>| Valence CI:            -84.677007897547
           >>>| MCSCF energy:          -76.133473578584
           >>>| Gradient norm:          0.974075597D-02

                              ----- Line search ------

        step       energy         lsg     num-lsg   num-lsh   lsrat    time
      ------- ---------------- --------- --------- --------- ------- --------
       0.0000     -76.13347358 -9.39D-06  0.00D+00  0.00D+00 0.0D+00      0.5

          Number of sigma calls:       13
                       o<<<<< (aa):             0.00
                       o<<<<< (bb):             0.00
                       o<<<<< (ab):             0.04
                       o<<<<< (total)           0.04
                       o<<<<< (aa) ff           0.00
                       o<<<<< (aa) gop          0.00
                       o<<<<< (aa) dot          0.00
                       o<<<<< (ab) str          0.00
                       o<<<<< (ab) gath         0.00
                       o<<<<< (ab) dotab        0.00
                       o<<<<< (ab) scat         0.00
                       o<<<<< (ab) sync         0.00
                       o<<<<< Density           0.01
                       o<<<<< Density one       0.00
                       o<<<<< Density two       0.00
                       o<<<<< Density ab        0.01
                       o<<<<< Spin adapt        0.21
                       o<<<<< Symm adapt        0.00

                       o<<<<< (ab) max sync:      0.00
       1.0000     -76.13347842 -2.90D-07 -2.90D-07  9.10D-06 3.1D-02      0.8
     --- Orbitals canonicalized ---



          %%%%% MacroIteration   2 %%%%%


          Number of sigma calls:       11
                       o<<<<< (aa):             0.00
                       o<<<<< (bb):             0.00
                       o<<<<< (ab):             0.04
                       o<<<<< (total)           0.05
                       o<<<<< (aa) ff           0.00
                       o<<<<< (aa) gop          0.00
                       o<<<<< (aa) dot          0.00
                       o<<<<< (ab) str          0.00
                       o<<<<< (ab) gath         0.00
                       o<<<<< (ab) dotab        0.00
                       o<<<<< (ab) scat         0.00
                       o<<<<< (ab) sync         0.00
                       o<<<<< Density           0.00
                       o<<<<< Density one       0.00
                       o<<<<< Density two       0.00
                       o<<<<< Density ab        0.00
                       o<<<<< Spin adapt        0.18
                       o<<<<< Symm adapt        0.00

                       o<<<<< (ab) max sync:      0.00

           >>>| Valence CI:            -84.677012739205
           >>>| MCSCF energy:          -76.133478420242
           >>>| Gradient norm:          0.656714785D-03
     --- Warning:    1 Hessian diagonals < 0.05 ---
     --- Conjugacy reset ---

                              ----- Line search ------

        step       energy         lsg     num-lsg   num-lsh   lsrat    time
      ------- ---------------- --------- --------- --------- ------- --------
       0.0000     -76.13347842 -8.34D-08  0.00D+00  0.00D+00 0.0D+00      1.1

          Number of sigma calls:       10
                       o<<<<< (aa):             0.00
                       o<<<<< (bb):             0.00
                       o<<<<< (ab):             0.03
                       o<<<<< (total)           0.04
                       o<<<<< (aa) ff           0.00
                       o<<<<< (aa) gop          0.00
                       o<<<<< (aa) dot          0.00
                       o<<<<< (ab) str          0.00
                       o<<<<< (ab) gath         0.00
                       o<<<<< (ab) dotab        0.00
                       o<<<<< (ab) scat         0.00
                       o<<<<< (ab) sync         0.00
                       o<<<<< Density           0.01
                       o<<<<< Density one       0.00
                       o<<<<< Density two       0.00
                       o<<<<< Density ab        0.01
                       o<<<<< Spin adapt        0.15
                       o<<<<< Symm adapt        0.00

                       o<<<<< (ab) max sync:      0.00
       1.0000     -76.13347848 -2.71D-08 -2.71D-08  5.64D-08 3.2D-01      1.3

          Number of sigma calls:        9
                       o<<<<< (aa):             0.00
                       o<<<<< (bb):             0.00
                       o<<<<< (ab):             0.03
                       o<<<<< (total)           0.04
                       o<<<<< (aa) ff           0.00
                       o<<<<< (aa) gop          0.00
                       o<<<<< (aa) dot          0.00
                       o<<<<< (ab) str          0.00
                       o<<<<< (ab) gath         0.00
                       o<<<<< (ab) dotab        0.00
                       o<<<<< (ab) scat         0.00
                       o<<<<< (ab) sync         0.00
                       o<<<<< Density           0.02
                       o<<<<< Density one       0.01
                       o<<<<< Density two       0.01
                       o<<<<< Density ab        0.00
                       o<<<<< Spin adapt        0.16
                       o<<<<< Symm adapt        0.00

                       o<<<<< (ab) max sync:      0.00
       1.4799     -76.13347848  2.99D-11  2.91D-11  5.64D-08 3.6D-04      1.6



          %%%%% MacroIteration   3 %%%%%


          Number of sigma calls:        1
                       o<<<<< (aa):             0.00
                       o<<<<< (bb):             0.00
                       o<<<<< (ab):             0.01
                       o<<<<< (total)           0.01
                       o<<<<< (aa) ff           0.00
                       o<<<<< (aa) gop          0.00
                       o<<<<< (aa) dot          0.00
                       o<<<<< (ab) str          0.00
                       o<<<<< (ab) gath         0.00
                       o<<<<< (ab) dotab        0.00
                       o<<<<< (ab) scat         0.00
                       o<<<<< (ab) sync         0.00
                       o<<<<< Density           0.01
                       o<<<<< Density one       0.00
                       o<<<<< Density two       0.00
                       o<<<<< Density ab        0.01
                       o<<<<< Spin adapt        0.00
                       o<<<<< Symm adapt        0.00

                       o<<<<< (ab) max sync:      0.00

           >>>| Valence CI:            -84.677012800954
           >>>| MCSCF energy:          -76.133478481992
           >>>| Gradient norm:          0.927627267D-04




     ==============================
            MCSCF Converged
     ==============================



          Canonical Eigenvalues

              1      
    1  -20.5694
    2   -1.3320
    3   -0.7224
    4   -0.5818
    5   -0.5278
    6   -0.0312
    7   -0.0260
    8   -0.0170
    9    0.0725
   10    0.0874
   11    0.2366
   12    0.2785
   13    0.3176
   14    0.4846
   15    0.4995
   16    0.6315
   17    1.0135
   18    1.0838
   19    1.4722
   20    1.5336
   21    1.6502
   22    1.7199
   23    1.8096
   24    2.1322
   25    2.2985
   26    2.7647
   27    2.8659
   28    3.3641
   29    3.5001
   30    3.5798
   31    4.0323
   32    4.1821
   33    5.3241
   34    5.6953
   35    6.0390
   36   51.5245


          Converged CI vector

   Index           Coefficient          Config. Occupation
         1          0.97132055          1  2  3  4  5  1  2  3  4  5
        22         -0.07590915          1  2  3  4  5  1  2  3  4  8
         3         -0.04433911          1  2  3  4  5  1  2  3  5  6
         8         -0.02675558          1  2  3  4  5  1  2  3  5  7
        27          0.02055757          1  2  3  4  5  1  2  3  6  8
         4         -0.02717475          1  2  3  4  5  1  2  4  5  6
         9          0.03847778          1  2  3  4  5  1  2  4  5  7
        38         -0.02250582          1  2  3  4  5  1  2  4  7  8
      1177         -0.07590915          1  2  3  4  8  1  2  3  4  5
      1198         -0.05502868          1  2  3  4  8  1  2  3  4  8
      1179         -0.02618996          1  2  3  4  8  1  2  3  5  6
      1180         -0.02187750          1  2  3  4  8  1  2  4  5  6
      1185          0.03062158          1  2  3  4  8  1  2  4  5  7
       113         -0.04433911          1  2  3  5  6  1  2  3  4  5
       134         -0.02618996          1  2  3  5  6  1  2  3  4  8
       115         -0.04927787          1  2  3  5  6  1  2  3  5  6
       116         -0.03755022          1  2  3  5  6  1  2  4  5  6
       121          0.02074955          1  2  3  5  6  1  2  4  5  7
       117          0.02117446          1  2  3  5  6  1  3  4  5  6
       393         -0.02675558          1  2  3  5  7  1  2  3  4  5
       400         -0.02455441          1  2  3  5  7  1  2  3  5  7
       401          0.02684656          1  2  3  5  7  1  2  4  5  7
      1457          0.02055757          1  2  3  6  8  1  2  3  4  5
       169         -0.02717475          1  2  4  5  6  1  2  3  4  5
       190         -0.02187750          1  2  4  5  6  1  2  3  4  8
       171         -0.03755022          1  2  4  5  6  1  2  3  5  6
       172         -0.04477623          1  2  4  5  6  1  2  4  5  6
       173          0.02190692          1  2  4  5  6  1  3  4  5  6
       449          0.03847778          1  2  4  5  7  1  2  3  4  5
       470          0.03062158          1  2  4  5  7  1  2  3  4  8
       451          0.02074955          1  2  4  5  7  1  2  3  5  6
       456          0.02684656          1  2  4  5  7  1  2  3  5  7
       457         -0.05269161          1  2  4  5  7  1  2  4  5  7
       458         -0.02252898          1  2  4  5  7  1  3  4  5  7
      2073         -0.02250582          1  2  4  7  8  1  2  3  4  5
       227          0.02117446          1  3  4  5  6  1  2  3  5  6
       228          0.02190692          1  3  4  5  6  1  2  4  5  6
       229         -0.02422937          1  3  4  5  6  1  3  4  5  6
       513         -0.02252898          1  3  4  5  7  1  2  4  5  7
       514         -0.02211344          1  3  4  5  7  1  3  4  5  7

          Number of sigma calls:        1
                       o<<<<< (aa):             0.00
                       o<<<<< (bb):             0.00
                       o<<<<< (ab):             0.01
                       o<<<<< (total)           0.01
                       o<<<<< (aa) ff           0.00
                       o<<<<< (aa) gop          0.00
                       o<<<<< (aa) dot          0.00
                       o<<<<< (ab) str          0.00
                       o<<<<< (ab) gath         0.00
                       o<<<<< (ab) dotab        0.00
                       o<<<<< (ab) scat         0.00
                       o<<<<< (ab) sync         0.00
                       o<<<<< Density           0.02
                       o<<<<< Density one       0.01
                       o<<<<< Density two       0.00
                       o<<<<< Density ab        0.01
                       o<<<<< Spin adapt        0.00
                       o<<<<< Symm adapt        0.00

                       o<<<<< (ab) max sync:      0.00



          Natural orbital occupation numbers

              1      
    1    2.0000
    2    1.9987
    3    1.9796
    4    1.9755
    5    1.9682
    6    0.0328
    7    0.0252
    8    0.0199


          Number of sigma calls:       15
                       o<<<<< (aa):             0.00
                       o<<<<< (bb):             0.00
                       o<<<<< (ab):             0.06
                       o<<<<< (total)           0.07
                       o<<<<< (aa) ff           0.00
                       o<<<<< (aa) gop          0.00
                       o<<<<< (aa) dot          0.00
                       o<<<<< (ab) str          0.00
                       o<<<<< (ab) gath         0.00
                       o<<<<< (ab) dotab        0.00
                       o<<<<< (ab) scat         0.00
                       o<<<<< (ab) sync         0.00
                       o<<<<< Density           0.01
                       o<<<<< Density one       0.00
                       o<<<<< Density two       0.00
                       o<<<<< Density ab        0.01
                       o<<<<< Spin adapt        0.32
                       o<<<<< Symm adapt        0.00

                       o<<<<< (ab) max sync:      0.00


       Final MCSCF results 
       ------------------- 

       Total MCSCF energy =    -76.133478481992
            Gradient norm =      9.3D-05

    CPU time for solution =      2.2s
   Wall time for solution =      3.8s



                        Analysis of MCSCF natural orbitals
                        ----------------------------------

 Vector    1  Occ=1.999990D+00  E=-2.056943D+01  Symmetry=a
              MO Center= -9.1D-02, -7.4D-02,  3.4D-13, r^2= 1.6D-02
   Bfn.  Coefficient  Atom+Function         Bfn.  Coefficient  Atom+Function  
  ----- ------------  ---------------      ----- ------------  ---------------
     1      0.559305  1 O  s                  2      0.486631  1 O  s          

 Vector    2  Occ=1.998702D+00  E=-1.332016D+00  Symmetry=a
              MO Center= -2.9D-01, -2.1D-01, -6.5D-10, r^2= 4.3D-01
   Bfn.  Coefficient  Atom+Function         Bfn.  Coefficient  Atom+Function  
  ----- ------------  ---------------      ----- ------------  ---------------
     6      0.564309  1 O  s                 10      0.487621  1 O  s          
     2     -0.153199  1 O  s          

 Vector    3  Occ=1.979631D+00  E=-7.224223D-01  Symmetry=a
              MO Center= -7.3D-02, -6.5D-02,  6.5D-10, r^2= 7.1D-01
   Bfn.  Coefficient  Atom+Function         Bfn.  Coefficient  Atom+Function  
  ----- ------------  ---------------      ----- ------------  ---------------
     9      0.436445  1 O  pz                13      0.408202  1 O  pz         
     5      0.289290  1 O  pz         

 Vector    4  Occ=1.975504D+00  E=-5.817797D-01  Symmetry=a
              MO Center=  3.3D-01, -1.9D-01,  2.1D-12, r^2= 6.1D-01
   Bfn.  Coefficient  Atom+Function         Bfn.  Coefficient  Atom+Function  
  ----- ------------  ---------------      ----- ------------  ---------------
     7      0.349049  1 O  px                31      0.273512  3 H  s          
    11      0.236420  1 O  px                 3      0.231278  1 O  px         
    30      0.190084  3 H  s          

 Vector    5  Occ=1.968213D+00  E=-5.277822D-01  Symmetry=a
              MO Center= -5.0D-02,  4.1D-01,  9.9D-12, r^2= 6.8D-01
   Bfn.  Coefficient  Atom+Function         Bfn.  Coefficient  Atom+Function  
  ----- ------------  ---------------      ----- ------------  ---------------
     8      0.342067  1 O  py                24      0.280032  2 H  s          
    12      0.233146  1 O  py                 4      0.223395  1 O  py         
    23      0.174839  2 H  s          

 Vector    6  Occ=3.282512D-02  E=-3.118735D-02  Symmetry=a
              MO Center= -3.7D-02,  6.0D-01,  4.9D-11, r^2= 7.0D-01
   Bfn.  Coefficient  Atom+Function         Bfn.  Coefficient  Atom+Function  
  ----- ------------  ---------------      ----- ------------  ---------------
    24     -0.516265  2 H  s                  8      0.502051  1 O  py         
     6      0.394436  1 O  s                  4      0.387901  1 O  py         
    23     -0.269960  2 H  s          

 Vector    7  Occ=2.519802D-02  E=-2.595384D-02  Symmetry=a
              MO Center=  4.9D-01, -2.5D-01,  6.1D-11, r^2= 6.8D-01
   Bfn.  Coefficient  Atom+Function         Bfn.  Coefficient  Atom+Function  
  ----- ------------  ---------------      ----- ------------  ---------------
    31     -0.553086  3 H  s                  7      0.506423  1 O  px         
     3      0.415622  1 O  px                 6      0.375233  1 O  s          
    30     -0.288123  3 H  s                  8     -0.171394  1 O  py         

 Vector    8  Occ=1.993734D-02  E=-1.699076D-02  Symmetry=a
              MO Center= -5.6D-02, -5.2D-02,  8.1D-10, r^2= 1.4D+00
   Bfn.  Coefficient  Atom+Function         Bfn.  Coefficient  Atom+Function  
  ----- ------------  ---------------      ----- ------------  ---------------
    13      0.653604  1 O  pz                 5     -0.503407  1 O  pz         
     9     -0.462788  1 O  pz                17      0.284507  1 O  pz         

 Vector    9  Occ=0.000000D+00  E= 7.249655D-02  Symmetry=a
              MO Center=  5.1D-01,  4.6D-01, -3.6D-10, r^2= 1.1D+01
   Bfn.  Coefficient  Atom+Function         Bfn.  Coefficient  Atom+Function  
  ----- ------------  ---------------      ----- ------------  ---------------
    26      1.022149  2 H  s                 33      0.962485  3 H  s          
    14     -0.710517  1 O  s                 25     -0.449912  2 H  s          
    32     -0.356940  3 H  s                 10      0.247716  1 O  s          

 Vector   10  Occ=0.000000D+00  E= 8.737035D-02  Symmetry=a
              MO Center=  5.4D-01,  3.5D-01, -5.0D-12, r^2= 1.4D+01
   Bfn.  Coefficient  Atom+Function         Bfn.  Coefficient  Atom+Function  
  ----- ------------  ---------------      ----- ------------  ---------------
    33     -2.534634  3 H  s                 26      2.497276  2 H  s          
    25     -0.503888  2 H  s                 32      0.425740  3 H  s          
    16     -0.293262  1 O  py                15      0.232311  1 O  px         

 Vector   11  Occ=0.000000D+00  E= 2.366496D-01  Symmetry=a
              MO Center= -3.3D-01, -1.6D-01,  2.7D-10, r^2= 5.5D+00
   Bfn.  Coefficient  Atom+Function         Bfn.  Coefficient  Atom+Function  
  ----- ------------  ---------------      ----- ------------  ---------------
    14      2.967393  1 O  s                 32     -2.742548  3 H  s          
    25     -2.051179  2 H  s                 15      1.941326  1 O  px         
    16      1.087088  1 O  py                11     -0.339335  1 O  px         
    33      0.304102  3 H  s                 10      0.253814  1 O  s          
    12     -0.242292  1 O  py                26      0.221691  2 H  s          

 Vector   12  Occ=0.000000D+00  E= 2.785490D-01  Symmetry=a
              MO Center= -4.1D-01, -3.2D-01, -2.2D-13, r^2= 5.8D+00
   Bfn.  Coefficient  Atom+Function         Bfn.  Coefficient  Atom+Function  
  ----- ------------  ---------------      ----- ------------  ---------------
    32      3.197305  3 H  s                 25     -2.799651  2 H  s          
    16      2.727104  1 O  py                15     -1.908381  1 O  px         
    33      0.714090  3 H  s                 26     -0.619016  2 H  s          
    14     -0.503023  1 O  s                 12     -0.328988  1 O  py         
    31     -0.254171  3 H  s                 24      0.221177  2 H  s          

 Vector   13  Occ=0.000000D+00  E= 3.176197D-01  Symmetry=a
              MO Center=  1.2D-01,  6.6D-02, -1.9D-09, r^2= 5.4D+00
   Bfn.  Coefficient  Atom+Function         Bfn.  Coefficient  Atom+Function  
  ----- ------------  ---------------      ----- ------------  ---------------
    14      7.469247  1 O  s                 32     -3.905173  3 H  s          
    25     -3.302668  2 H  s                 15      1.550143  1 O  px         
    10     -1.149085  1 O  s                 16      0.842040  1 O  py         
    33     -0.401179  3 H  s                 31      0.232223  3 H  s          
    24      0.193776  2 H  s          

 Vector   14  Occ=0.000000D+00  E= 4.845740D-01  Symmetry=a
              MO Center= -5.3D-02,  1.3D+00, -5.4D-12, r^2= 5.3D+00
   Bfn.  Coefficient  Atom+Function         Bfn.  Coefficient  Atom+Function  
  ----- ------------  ---------------      ----- ------------  ---------------
    25      3.645511  2 H  s                 32     -1.818935  3 H  s          
    26     -1.767784  2 H  s                 24     -1.362414  2 H  s          
    33      1.143091  3 H  s                 31      0.513705  3 H  s          
    16     -0.391333  1 O  py                14     -0.225331  1 O  s          
    10     -0.194814  1 O  s                 15      0.170296  1 O  px         

 Vector   15  Occ=0.000000D+00  E= 4.995062D-01  Symmetry=a
              MO Center=  1.1D+00, -4.5D-01, -7.5D-12, r^2= 4.7D+00
   Bfn.  Coefficient  Atom+Function         Bfn.  Coefficient  Atom+Function  
  ----- ------------  ---------------      ----- ------------  ---------------
    32      3.900359  3 H  s                 14     -1.533844  1 O  s          
    31     -1.431483  3 H  s                 33     -1.273856  3 H  s          
    25      1.100988  2 H  s                 24     -0.557723  2 H  s          
    15     -0.454959  1 O  px                10     -0.282047  1 O  s          
     7      0.158167  1 O  px         

 Vector   16  Occ=0.000000D+00  E= 6.315475D-01  Symmetry=a
              MO Center= -8.6D-02, -7.1D-02,  1.6D-09, r^2= 5.4D+00
   Bfn.  Coefficient  Atom+Function         Bfn.  Coefficient  Atom+Function  
  ----- ------------  ---------------      ----- ------------  ---------------
    17     -1.445927  1 O  pz                13      1.415601  1 O  pz         
     9     -0.435598  1 O  pz         

 Vector   17  Occ=0.000000D+00  E= 1.013495D+00  Symmetry=a
              MO Center= -1.9D-01,  1.4D-01,  1.9D-10, r^2= 2.5D+00
   Bfn.  Coefficient  Atom+Function         Bfn.  Coefficient  Atom+Function  
  ----- ------------  ---------------      ----- ------------  ---------------
    14      2.767112  1 O  s                 32     -2.485823  3 H  s          
    11     -2.239600  1 O  px                31      2.083505  3 H  s          
    10     -1.753405  1 O  s                 15      1.746591  1 O  px         
    25     -1.041301  2 H  s                 24      0.687450  2 H  s          
     7      0.447668  1 O  px                33     -0.279599  3 H  s          

 Vector   18  Occ=0.000000D+00  E= 1.083795D+00  Symmetry=a
              MO Center= -1.0D-01, -3.4D-01,  2.6D-11, r^2= 2.6D+00
   Bfn.  Coefficient  Atom+Function         Bfn.  Coefficient  Atom+Function  
  ----- ------------  ---------------      ----- ------------  ---------------
    12      2.396032  1 O  py                16     -1.785325  1 O  py         
    25      1.691093  2 H  s                 24     -1.612212  2 H  s          
    14     -0.881321  1 O  s                 31      0.636452  3 H  s          
    11     -0.629052  1 O  px                33     -0.586841  3 H  s          
     8     -0.550506  1 O  py                26      0.538423  2 H  s          


 Wrote Lagrangian and 1- and 2-particle density matrices to ./H2O.mcpdm


     Multipole analysis of the density
     ---------------------------------

     L   x y z        total        nuclear
     -   - - -        -----        -------
     0   0 0 0     -0.000000     10.000000

     1   1 0 0      0.645979     -0.000000
     1   0 1 0      0.485704      0.000000
     1   0 0 1     -0.000000      0.000000

     2   2 0 0     -4.388781      2.679864
     2   1 1 0     -0.885409     -1.361974
     2   1 0 1      0.000000      0.000000
     2   0 2 0     -3.481248      4.447622
     2   0 1 1      0.000000      0.000000
     2   0 0 2     -5.924070      0.000000


  Mulliken analysis of the total density
  --------------------------------------

    Atom       Charge   Shell Charges
 -----------   ------   -------------------------------------------------------
    1 O    8     8.51   1.08  0.91  0.94  1.00  2.04  0.81  1.54 -0.02  0.19  0.01
    2 H    1     0.74   0.22  0.41  0.05  0.01  0.05
    3 H    1     0.75   0.26  0.40  0.02  0.01  0.07

    Mulliken analysis of the active space density
    ---------------------------------------------

    Atom       Charge   Shell Charges
 -----------   ------   -------------------------------------------------------
    1 O    8     8.51   1.08  0.91  0.94  1.00  2.04  0.81  1.54 -0.02  0.19  0.01
    2 H    1     0.74   0.22  0.41  0.05  0.01  0.05
    3 H    1     0.75   0.26  0.40  0.02  0.01  0.07

 Parallel integral file used       3 records with       0 large values


 Task  times  cpu:        2.2s     wall:        3.8s


                                NWChem Input Module
                                -------------------


                                 NWChem SCF Module
                                 -----------------


                                        H2O



  ao basis        = "ao basis"
  functions       =    36
  atoms           =     3
  closed shells   =     5
  open shells     =     0
  charge          =   0.00
  wavefunction    = RHF 
  input vectors   = ./h2o.mos
  output vectors  = ./h2o-trash.mos
  use symmetry    = F
  symmetry adapt  = F


 Summary of "ao basis" -> "ao basis" (spherical)
 ------------------------------------------------------------------------------
       Tag                 Description            Shells   Functions and Types
 ---------------- ------------------------------  ------  ---------------------
 O                         6-311++G**               10       22   5s4p1d
 H                         6-311++G**                5        7   4s1p



 Forming initial guess at       3.8s


 Loading old vectors from job with title :

H2O


 Starting SCF solution at       3.8s



 ----------------------------------------------
         Quadratically convergent ROHF

 Convergence threshold     :          1.000E-04
 Maximum no. of iterations :           30
 Final Fock-matrix accuracy:          1.000E-07
 ----------------------------------------------


 Integral file          = ./H2O.aoints.0
 Record size in doubles =  65536        No. of integs per rec  =  43688
 Max. records in memory =     10        Max. records in file   = 232567
 No. of bits per label  =      8        No. of bits per value  =     64


 #quartets = 2.216D+04 #integrals = 1.002D+05 #direct =  0.0% #cached =100.0%



       Final RHF  results 
       ------------------ 

         Total SCF energy =    -76.031816005644
      One-electron energy =   -121.803827386445
      Two-electron energy =     37.228477061838
 Nuclear repulsion energy =      8.543534318962

        Time for solution =      0.0s


             Final eigenvalues
             -----------------

              1      
    1  -20.5694
    2   -1.3320
    3   -0.7224
    4   -0.5818
    5   -0.5278
    6   -0.0312
    7   -0.0260
    8   -0.0170
    9    0.0725
   10    0.0874
   11    0.2366
   12    0.2785
   13    0.3176
   14    0.4846
   15    0.4995

                       ROHF Final Molecular Orbital Analysis
                       -------------------------------------

 Vector    2  Occ=2.000000D+00  E=-1.332016D+00
              MO Center= -2.9D-01, -2.1D-01, -6.5D-10, r^2= 4.3D-01
   Bfn.  Coefficient  Atom+Function         Bfn.  Coefficient  Atom+Function  
  ----- ------------  ---------------      ----- ------------  ---------------
     6      0.564309  1 O  s                 10      0.487621  1 O  s          
     2     -0.153199  1 O  s          

 Vector    3  Occ=2.000000D+00  E=-7.224223D-01
              MO Center= -7.3D-02, -6.5D-02,  6.5D-10, r^2= 7.1D-01
   Bfn.  Coefficient  Atom+Function         Bfn.  Coefficient  Atom+Function  
  ----- ------------  ---------------      ----- ------------  ---------------
     9      0.436445  1 O  pz                13      0.408202  1 O  pz         
     5      0.289290  1 O  pz         

 Vector    4  Occ=2.000000D+00  E=-5.817797D-01
              MO Center=  3.3D-01, -1.9D-01,  2.1D-12, r^2= 6.1D-01
   Bfn.  Coefficient  Atom+Function         Bfn.  Coefficient  Atom+Function  
  ----- ------------  ---------------      ----- ------------  ---------------
     7      0.349049  1 O  px                31      0.273512  3 H  s          
    11      0.236420  1 O  px                 3      0.231278  1 O  px         
    30      0.190084  3 H  s          

 Vector    5  Occ=2.000000D+00  E=-5.277822D-01
              MO Center= -5.0D-02,  4.1D-01,  9.9D-12, r^2= 6.8D-01
   Bfn.  Coefficient  Atom+Function         Bfn.  Coefficient  Atom+Function  
  ----- ------------  ---------------      ----- ------------  ---------------
     8      0.342067  1 O  py                24      0.280032  2 H  s          
    12      0.233146  1 O  py                 4      0.223395  1 O  py         
    23      0.174839  2 H  s          

 Vector    6  Occ=0.000000D+00  E=-3.118735D-02
              MO Center= -3.7D-02,  6.0D-01,  4.9D-11, r^2= 7.0D-01
   Bfn.  Coefficient  Atom+Function         Bfn.  Coefficient  Atom+Function  
  ----- ------------  ---------------      ----- ------------  ---------------
    24     -0.516265  2 H  s                  8      0.502051  1 O  py         
     6      0.394436  1 O  s                  4      0.387901  1 O  py         
    23     -0.269960  2 H  s          

 Vector    7  Occ=0.000000D+00  E=-2.595384D-02
              MO Center=  4.9D-01, -2.5D-01,  6.1D-11, r^2= 6.8D-01
   Bfn.  Coefficient  Atom+Function         Bfn.  Coefficient  Atom+Function  
  ----- ------------  ---------------      ----- ------------  ---------------
    31     -0.553086  3 H  s                  7      0.506423  1 O  px         
     3      0.415622  1 O  px                 6      0.375233  1 O  s          
    30     -0.288123  3 H  s                  8     -0.171394  1 O  py         

 Vector    8  Occ=0.000000D+00  E=-1.699076D-02
              MO Center= -5.6D-02, -5.2D-02,  8.1D-10, r^2= 1.4D+00
   Bfn.  Coefficient  Atom+Function         Bfn.  Coefficient  Atom+Function  
  ----- ------------  ---------------      ----- ------------  ---------------
    13      0.653604  1 O  pz                 5     -0.503407  1 O  pz         
     9     -0.462788  1 O  pz                17      0.284507  1 O  pz         

 Vector    9  Occ=0.000000D+00  E= 7.249655D-02
              MO Center=  5.1D-01,  4.6D-01, -3.6D-10, r^2= 1.1D+01
   Bfn.  Coefficient  Atom+Function         Bfn.  Coefficient  Atom+Function  
  ----- ------------  ---------------      ----- ------------  ---------------
    26      1.022149  2 H  s                 33      0.962485  3 H  s          
    14     -0.710517  1 O  s                 25     -0.449912  2 H  s          
    32     -0.356940  3 H  s                 10      0.247716  1 O  s          

 Vector   10  Occ=0.000000D+00  E= 8.737035D-02
              MO Center=  5.4D-01,  3.5D-01, -5.0D-12, r^2= 1.4D+01
   Bfn.  Coefficient  Atom+Function         Bfn.  Coefficient  Atom+Function  
  ----- ------------  ---------------      ----- ------------  ---------------
    33     -2.534634  3 H  s                 26      2.497276  2 H  s          
    25     -0.503888  2 H  s                 32      0.425740  3 H  s          
    16     -0.293262  1 O  py                15      0.232311  1 O  px         

 Vector   11  Occ=0.000000D+00  E= 2.366496D-01
              MO Center= -3.3D-01, -1.6D-01,  2.7D-10, r^2= 5.5D+00
   Bfn.  Coefficient  Atom+Function         Bfn.  Coefficient  Atom+Function  
  ----- ------------  ---------------      ----- ------------  ---------------
    14      2.967393  1 O  s                 32     -2.742548  3 H  s          
    25     -2.051179  2 H  s                 15      1.941326  1 O  px         
    16      1.087088  1 O  py                11     -0.339335  1 O  px         
    33      0.304102  3 H  s                 10      0.253814  1 O  s          
    12     -0.242292  1 O  py                26      0.221691  2 H  s          

 Vector   12  Occ=0.000000D+00  E= 2.785490D-01
              MO Center= -4.1D-01, -3.2D-01, -2.2D-13, r^2= 5.8D+00
   Bfn.  Coefficient  Atom+Function         Bfn.  Coefficient  Atom+Function  
  ----- ------------  ---------------      ----- ------------  ---------------
    32      3.197305  3 H  s                 25     -2.799651  2 H  s          
    16      2.727104  1 O  py                15     -1.908381  1 O  px         
    33      0.714090  3 H  s                 26     -0.619016  2 H  s          
    14     -0.503023  1 O  s                 12     -0.328988  1 O  py         
    31     -0.254171  3 H  s                 24      0.221177  2 H  s          

 Vector   13  Occ=0.000000D+00  E= 3.176197D-01
              MO Center=  1.2D-01,  6.6D-02, -1.9D-09, r^2= 5.4D+00
   Bfn.  Coefficient  Atom+Function         Bfn.  Coefficient  Atom+Function  
  ----- ------------  ---------------      ----- ------------  ---------------
    14      7.469247  1 O  s                 32     -3.905173  3 H  s          
    25     -3.302668  2 H  s                 15      1.550143  1 O  px         
    10     -1.149085  1 O  s                 16      0.842040  1 O  py         
    33     -0.401179  3 H  s                 31      0.232223  3 H  s          
    24      0.193776  2 H  s          

 Vector   14  Occ=0.000000D+00  E= 4.845740D-01
              MO Center= -5.3D-02,  1.3D+00, -5.4D-12, r^2= 5.3D+00
   Bfn.  Coefficient  Atom+Function         Bfn.  Coefficient  Atom+Function  
  ----- ------------  ---------------      ----- ------------  ---------------
    25      3.645511  2 H  s                 32     -1.818935  3 H  s          
    26     -1.767784  2 H  s                 24     -1.362414  2 H  s          
    33      1.143091  3 H  s                 31      0.513705  3 H  s          
    16     -0.391333  1 O  py                14     -0.225331  1 O  s          
    10     -0.194814  1 O  s                 15      0.170296  1 O  px         

 Vector   15  Occ=0.000000D+00  E= 4.995062D-01
              MO Center=  1.1D+00, -4.5D-01, -7.5D-12, r^2= 4.7D+00
   Bfn.  Coefficient  Atom+Function         Bfn.  Coefficient  Atom+Function  
  ----- ------------  ---------------      ----- ------------  ---------------
    32      3.900359  3 H  s                 14     -1.533844  1 O  s          
    31     -1.431483  3 H  s                 33     -1.273856  3 H  s          
    25      1.100988  2 H  s                 24     -0.557723  2 H  s          
    15     -0.454959  1 O  px                10     -0.282047  1 O  s          
     7      0.158167  1 O  px         

 Vector   16  Occ=0.000000D+00  E= 6.315475D-01
              MO Center= -8.6D-02, -7.1D-02,  1.6D-09, r^2= 5.4D+00
   Bfn.  Coefficient  Atom+Function         Bfn.  Coefficient  Atom+Function  
  ----- ------------  ---------------      ----- ------------  ---------------
    17     -1.445927  1 O  pz                13      1.415601  1 O  pz         
     9     -0.435598  1 O  pz         


 center of mass
 --------------
 x =  -0.07599894 y =  -0.06196112 z =   0.00000000

 moments of inertia (a.u.)
 ------------------
           4.570276065513           1.264875786712           0.000000000000
           1.264875786712           2.833002082974           0.000000000000
           0.000000000000           0.000000000000           7.403278148487

  Mulliken analysis of the total density
  --------------------------------------

    Atom       Charge   Shell Charges
 -----------   ------   -------------------------------------------------------
    1 O    8     8.52   1.08  0.91  0.93  1.00  2.05  0.81  1.55 -0.02  0.19  0.01
    2 H    1     0.74   0.22  0.41  0.05  0.01  0.05
    3 H    1     0.75   0.26  0.39  0.02  0.01  0.07

       Multipole analysis of the density wrt the origin
       ------------------------------------------------

     L   x y z        total         open         nuclear
     -   - - -        -----         ----         -------
     0   0 0 0     -0.000000      0.000000     10.000000

     1   1 0 0      0.655914      0.000000     -0.000000
     1   0 1 0      0.496353      0.000000      0.000000
     1   0 0 1     -0.000000      0.000000      0.000000

     2   2 0 0     -4.362158      0.000000      2.679864
     2   1 1 0     -0.895090      0.000000     -1.361974
     2   1 0 1      0.000000      0.000000      0.000000
     2   0 2 0     -3.438597      0.000000      4.447622
     2   0 1 1      0.000000      0.000000      0.000000
     2   0 0 2     -5.895778      0.000000      0.000000


 Parallel integral file used       3 records with       0 large values

 ------------------------------------
     Number of active orbitals      8
     Number of active alpha electrons      5
     Number of active beta electrons       5
 ------------------------------------
                   NWChem Extensible Many-Electron Theory Module
                   ---------------------------------------------

              ======================================================
                   This portion of the program was automatically
                  generated by a Tensor Contraction Engine (TCE).
                  The development of this portion of the program
                 and TCE was supported by US Department of Energy,
                Office of Science, Office of Basic Energy Science.
                      TCE is a product of Battelle and PNNL.
              Please cite: S.Hirata, J.Phys.Chem.A 107, 9887 (2003).
              ======================================================

                                        H2O


            General Information
            -------------------
      Number of processors :     1
         Wavefunction type : Restricted Hartree-Fock
          No. of electrons :    10
           Alpha electrons :     5
            Beta electrons :     5
           No. of orbitals :    72
            Alpha orbitals :    36
             Beta orbitals :    36
        Alpha frozen cores :     0
         Beta frozen cores :     0
     Alpha frozen virtuals :    28
      Beta frozen virtuals :    28
         Spin multiplicity : singlet 
    Number of AO functions :    36
       Number of AO shells :    20
        Use of symmetry is : off
      Symmetry adaption is : off
         Schwarz screening : 0.10D-09

          Correlation Information
          -----------------------
          Calculation type : Coupled-cluster singles & doubles                           
   Perturbative correction : none                                                        
            Max iterations :      300
        Residual threshold : 0.10D-06
     T(0) DIIS level shift : 0.00D+00
     L(0) DIIS level shift : 0.00D+00
     T(1) DIIS level shift : 0.00D+00
     L(1) DIIS level shift : 0.00D+00
     T(R) DIIS level shift : 0.00D+00
     T(I) DIIS level shift : 0.00D+00
   CC-T/L Amplitude update :  5-th order DIIS
                I/O scheme : Global Array Library
        L-threshold :  0.10D-06
        EOM-threshold :  0.10D-06
 no EOMCCSD initial starts read in
 TCE RESTART OPTIONS
 READ_INT:   F
 WRITE_INT:  F
 READ_TA:    F
 WRITE_TA:   F
 READ_XA:    F
 WRITE_XA:   F
 READ_IN3:   F
 WRITE_IN3:  F
 SLICE:      F
 D4D5:       F
 quantumc:   T
 qrotation:  F
 pwtce:      F
 qducc:      F
 nacto:                         0
 nrotv:                         0
 nrot:                          0

            Memory Information
            ------------------
          Available GA space size is    1610611440 doubles
          Available MA space size is    1610610740 doubles

 Maximum block size supplied by input
 Maximum block size         1 doubles

 tile_dim =      1

 Block   Spin    Irrep     Size     Offset   Alpha
 -------------------------------------------------
   1    alpha     a      1 doubles       0       1
   2    alpha     a      1 doubles       1       2
   3    alpha     a      1 doubles       2       3
   4    alpha     a      1 doubles       3       4
   5    alpha     a      1 doubles       4       5
   6    beta      a      1 doubles       5       1
   7    beta      a      1 doubles       6       2
   8    beta      a      1 doubles       7       3
   9    beta      a      1 doubles       8       4
  10    beta      a      1 doubles       9       5
  11    alpha     a      1 doubles      10      11
  12    alpha     a      1 doubles      11      12
  13    alpha     a      1 doubles      12      13
  14    beta      a      1 doubles      13      11
  15    beta      a      1 doubles      14      12
  16    beta      a      1 doubles      15      13

 Global array virtual files algorithm will be used

 Parallel file system coherency ......... OK

 Integral file          = ./H2O.aoints.0
 Record size in doubles =  65536        No. of integs per rec  =  43688
 Max. records in memory =     10        Max. records in file   = 232567
 No. of bits per label  =      8        No. of bits per value  =     64


 #quartets = 2.216D+04 #integrals = 1.003D+05 #direct =  0.0% #cached =100.0%


 Fock matrix recomputed
 1-e file size   =               64
 1-e file name   = ./H2O.f1
 Cpu & wall time / sec            0.0            0.0
 4-electron integrals stored in orbital form

 v2    file size   =              666
 4-index algorithm nr.  13 is used
 imaxsize =       30
 imaxsize ichop =        0
 begin_one_electron_integrals
    1    1       -32.8666193126
    2    1        -1.5714830652
    3    1         0.0000000004
    4    1         0.1478679783
    5    1         0.1289386106
    6    1         0.2183530638
    7    1         0.1900114894
    8    1        -0.0000000005
    1    2        -1.5714830652
    2    2        -7.8132694595
    3    2        -0.0000000007
    4    2        -0.2524558905
    5    2        -0.2169138667
    6    2        -0.1086398676
    7    2        -0.0739802914
    8    2        -0.0000000002
    1    3         0.0000000004
    2    3        -0.0000000007
    3    3        -6.9109682621
    4    3        -0.0000000003
    5    3        -0.0000000002
    6    3        -0.0000000003
    7    3        -0.0000000005
    8    3         2.2543249048
    1    4         0.1478679783
    2    4        -0.2524558905
    3    4        -0.0000000003
    4    4        -6.7778355151
    5    4        -0.1180082812
    6    4        -0.1892078539
    7    4        -2.0449994342
    8    4        -0.0000000008
    1    5         0.1289386106
    2    5        -0.2169138667
    3    5        -0.0000000002
    4    5        -0.1180082812
    5    5        -6.5332211438
    6    5        -2.0660928145
    7    5         0.1745744329
    8    5        -0.0000000005
    1    6         0.2183530638
    2    6        -0.1086398676
    3    6        -0.0000000003
    4    6        -0.1892078539
    5    6        -2.0660928145
    6    6        -6.0491021502
    7    6         0.0652191334
    1    7         0.1900114894
    2    7        -0.0739802914
    3    7        -0.0000000005
    4    7        -2.0449994342
    5    7         0.1745744329
    6    7         0.0652191334
    7    7        -6.1102997816
    1    8        -0.0000000005
    2    8        -0.0000000002
    3    8         2.2543249048
    4    8        -0.0000000008
    5    8        -0.0000000005
    8    8        -5.3836983320
 end_one_electron_integrals
 begin_two_electron_integrals
    1    1    1    1        4.8366696491
    2    1    1    1       -0.1247425626
    2    1    2    1        0.0200142186
    3    1    1    1       -0.0000000004
    3    1    3    1        0.0257248555
    4    1    1    1       -0.0941303464
    4    1    2    1        0.0004929393
    4    1    4    1        0.0204680642
    4    1    2    2       -0.0127082574
    4    1    3    3       -0.0027837758
    5    1    1    1       -0.0859178489
    5    1    2    1        0.0005560856
    5    1    4    1        0.0029860026
    5    1    5    1        0.0188639228
    5    1    2    2       -0.0115042821
    5    1    4    2       -0.0003231373
    5    1    3    3       -0.0025637412
    5    1    4    4       -0.0018694385
    6    1    1    1       -0.1712266901
    6    1    2    1        0.0034676847
    6    1    4    1        0.0066828573
    6    1    5    1        0.0299226397
    6    1    6    1        0.0483447298
    6    1    2    2       -0.0204502573
    6    1    4    2       -0.0004214365
    6    1    5    2        0.0228221096
    6    1    3    3       -0.0044760144
    6    1    4    4       -0.0036880786
    6    1    5    4        0.0047128423
    6    1    5    5        0.0119008170
    7    1    1    1       -0.1532897916
    7    1    2    1        0.0027215786
    7    1    4    1        0.0322657245
    7    1    5    1        0.0010882169
    7    1    6    1        0.0050426422
    7    1    7    1        0.0522616148
    7    1    2    2       -0.0189631854
    7    1    4    2        0.0255981619
    7    1    5    2       -0.0049446127
    7    1    6    2       -0.0054914438
    7    1    3    3       -0.0035038140
    7    1    4    4        0.0152746384
    7    1    5    4        0.0035365499
    7    1    6    4        0.0056635390
    7    1    5    5       -0.0052644464
    7    1    6    5       -0.0045335951
    7    1    6    6       -0.0086754577
    8    1    1    1        0.0000000004
    8    1    3    1       -0.0363712552
    8    1    8    1        0.0521593585
    8    1    3    2       -0.0350756479
    8    1    4    3       -0.0072883227
    8    1    5    3       -0.0068441020
    8    1    6    3       -0.0096179006
    8    1    7    3       -0.0085017529
    2    2    1    1        1.0601980634
    2    2    2    1        0.0179361405
    2    2    2    2        0.8457854206
    3    2    3    1        0.0208049853
    3    2    2    2       -0.0000000001
    3    2    3    2        0.1308072880
    4    2    1    1       -0.0076666032
    4    2    2    1       -0.0026971373
    4    2    4    1        0.0137634565
    4    2    2    2       -0.0491694567
    4    2    4    2        0.0891653844
    4    2    3    3        0.0086766369
    5    2    1    1       -0.0055062571
    5    2    2    1       -0.0023745217
    5    2    4    1       -0.0004033158
    5    2    5    1        0.0128801978
    5    2    2    2       -0.0437015831
    5    2    4    2       -0.0144457906
    5    2    5    2        0.0838190062
    5    2    3    3        0.0078273266
    5    2    4    4       -0.0076788547
    6    2    1    1        0.0208344622
    6    2    2    1       -0.0026957057
    6    2    4    1       -0.0009911938
    6    2    5    1        0.0141491157
    6    2    6    1        0.0222969591
    6    2    2    2       -0.0212140928
    6    2    4    2       -0.0109444585
    6    2    5    2        0.0576161793
    6    2    6    2        0.0513281471
    6    2    3    3        0.0160672481
    6    2    4    4        0.0045100028
    6    2    5    4        0.0083236925
    6    2    5    5        0.0355458633
    7    2    1    1        0.0129012639
    7    2    2    1       -0.0027119828
    7    2    4    1        0.0150073637
    7    2    5    1       -0.0035058394
    7    2    6    1       -0.0051345061
    7    2    7    1        0.0250019392
    7    2    2    2       -0.0189853484
    7    2    4    2        0.0560463415
    7    2    5    2       -0.0201392884
    7    2    6    2       -0.0177933922
    7    2    7    2        0.0527613425
    7    2    3    3        0.0125526705
    7    2    4    4        0.0309650170
    7    2    5    4        0.0054987949
    7    2    6    4        0.0083201448
    7    2    5    5       -0.0008103670
    7    2    6    5        0.0050726565
    7    2    6    6        0.0003924948
    8    2    3    1       -0.0192338273
    8    2    8    1        0.0264130579
    8    2    3    2       -0.0531152578
    8    2    8    2        0.0449503298
    8    2    4    3       -0.0071845924
    8    2    5    3       -0.0071057977
    8    2    6    3       -0.0130078876
    8    2    7    3       -0.0111207066
    3    3    1    1        1.0155027719
    3    3    2    1        0.0140354986
    3    3    2    2        0.7165404711
    3    3    3    2        0.0000000002
    3    3    3    3        0.7272376327
    4    3    3    1        0.0047098167
    4    3    3    2        0.0214065094
    4    3    4    3        0.0351108351
    5    3    3    1        0.0043859606
    5    3    3    2        0.0203676084
    5    3    4    3        0.0056396463
    5    3    5    3        0.0328537469
    6    3    3    1        0.0069830456
    6    3    3    2        0.0192733400
    6    3    4    3        0.0048712259
    6    3    5    3        0.0201911791
    6    3    6    3        0.0245903267
    7    3    1    1        0.0000000001
    7    3    3    1        0.0062007491
    7    3    3    2        0.0166405252
    7    3    4    3        0.0190343872
    7    3    5    3        0.0011875081
    7    3    6    3        0.0036710117
    7    3    7    3        0.0235929108
    8    3    1    1       -0.5379168914
    8    3    2    1       -0.0120324862
    8    3    4    1        0.0034758900
    8    3    5    1        0.0030548774
    8    3    6    1        0.0060016380
    8    3    7    1        0.0053150275
    8    3    2    2       -0.2211850821
    8    3    4    2        0.0010818144
    8    3    5    2       -0.0003141922
    8    3    6    2       -0.0107264298
    8    3    7    2       -0.0078360706
    8    3    3    3       -0.2152411645
    8    3    8    3        0.1664088483
    8    3    4    4       -0.1588882488
    8    3    5    4       -0.0053050934
    8    3    6    4       -0.0117841268
    8    3    7    4       -0.1250293210
    8    3    5    5       -0.1498818515
    8    3    6    5       -0.1231248698
    8    3    7    5        0.0103178586
    8    3    6    6       -0.1798699215
    8    3    7    6        0.0042713678
    8    3    7    7       -0.1876944842
    4    4    1    1        0.9014491039
    4    4    2    1        0.0100117140
    4    4    4    1        0.0062619131
    4    4    2    2        0.6326047387
    4    4    4    2        0.0795683788
    4    4    3    3        0.6198524350
    4    4    4    4        0.7601846225
    5    4    1    1        0.0203928784
    5    4    2    1       -0.0006966735
    5    4    4    1        0.0029401814
    5    4    5    1        0.0030904860
    5    4    2    2       -0.0094215717
    5    4    4    2        0.0057973382
    5    4    5    2        0.0092033682
    5    4    3    3        0.0094286289
    5    4    4    4        0.0124359300
    5    4    5    4        0.0276621082
    6    4    1    1        0.0461686778
    6    4    2    1       -0.0011045605
    6    4    4    1        0.0044277018
    6    4    5    1        0.0029016886
    6    4    6    1        0.0046769208
    6    4    2    2        0.0016496129
    6    4    4    2        0.0074219003
    6    4    5    2        0.0094247523
    6    4    6    2        0.0062732293
    6    4    3    3        0.0171736201
    6    4    4    4        0.0167452275
    6    4    5    4        0.0176148458
    6    4    6    4        0.0206760331
    6    4    5    5        0.0251805276
    7    4    1    1        0.4834375233
    7    4    2    1        0.0087078465
    7    4    4    1        0.0044779492
    7    4    5    1       -0.0030279423
    7    4    6    1       -0.0049329584
    7    4    7    1        0.0037655774
    7    4    2    2        0.2087011107
    7    4    4    2       -0.0099383304
    7    4    5    2        0.0052744288
    7    4    6    2        0.0094166099
    7    4    7    2        0.0196617718
    7    4    3    3        0.1824823390
    7    4    4    4        0.1154067358
    7    4    5    4        0.0090196902
    7    4    6    4        0.0205278674
    7    4    7    4        0.2049535558
    7    4    5    5        0.1515683635
    7    4    6    5        0.1076958404
    7    4    6    6        0.1775376681
    8    4    1    1        0.0000000002
    8    4    3    1       -0.0033014184
    8    4    8    1        0.0040954836
    8    4    3    2       -0.0033609542
    8    4    8    2        0.0042743487
    8    4    4    3       -0.0068468360
    8    4    5    3       -0.0014606268
    8    4    6    3       -0.0035065881
    8    4    7    3       -0.0167901808
    8    4    8    4        0.0153553240
    5    5    1    1        0.8628507290
    5    5    2    1        0.0095541737
    5    5    4    1       -0.0017940783
    5    5    5    1        0.0054146050
    5    5    2    2        0.6126845334
    5    5    4    2       -0.0039684102
    5    5    5    2        0.0717442391
    5    5    3    3        0.5992965712
    5    5    4    4        0.5564915501
    5    5    5    4        0.0172729849
    5    5    5    5        0.7176947262
    6    5    1    1        0.4743982372
    6    5    2    1        0.0083299155
    6    5    4    1       -0.0025488063
    6    5    5    1        0.0048524795
    6    5    6    1        0.0035068591
    6    5    2    2        0.2130032845
    6    5    4    2        0.0056136140
    6    5    5    2       -0.0067780013
    6    5    6    2        0.0201861172
    6    5    3    3        0.1878215679
    6    5    4    4        0.1685063404
    6    5    5    4        0.0088597055
    6    5    6    4        0.0108028937
    6    5    5    5        0.1057316195
    6    5    6    5        0.2100230213
    7    5    1    1       -0.0388549952
    7    5    2    1       -0.0026320202
    7    5    4    1        0.0032371351
    7    5    5    1        0.0036309224
    7    5    6    1        0.0057556502
    7    5    7    1        0.0044671034
    7    5    2    2       -0.0347106554
    7    5    4    2        0.0088783549
    7    5    5    2        0.0083418255
    7    5    6    2        0.0058092674
    7    5    7    2        0.0024337317
    7    5    3    3       -0.0155876046
    7    5    4    4       -0.0009253856
    7    5    5    4        0.0136150936
    7    5    6    4        0.0157425587
    7    5    7    4       -0.0131785502
    7    5    5    5       -0.0051561398
    7    5    6    5       -0.0117257549
    7    5    7    5        0.0184326437
    7    5    6    6       -0.0039352867
    8    5    1    1        0.0000000001
    8    5    3    1       -0.0031657337
    8    5    8    1        0.0039399885
    8    5    3    2       -0.0033564515
    8    5    8    2        0.0044396766
    8    5    4    3       -0.0014441356
    8    5    5    3       -0.0060546802
    8    5    6    3       -0.0161457873
    8    5    7    3       -0.0005911917
    8    5    8    4        0.0013064908
    8    5    8    5        0.0151019231
    6    6    1    1        1.0229636704
    6    6    2    1        0.0114785110
    6    6    4    1       -0.0034698158
    6    6    5    1        0.0071182382
    6    6    6    1        0.0130014352
    6    6    2    2        0.6143512845
    6    6    4    2       -0.0049487686
    6    6    5    2        0.0683422044
    6    6    6    2        0.0390560394
    6    6    3    3        0.6065175368
    6    6    4    4        0.5570179821
    6    6    5    4        0.0188140872
    6    6    6    4        0.0302675934
    6    6    5    5        0.7129963280
    6    6    6    5        0.1138893878
    6    6    6    6        0.7597376060
    7    6    1    1       -0.0142866097
    7    6    2    1       -0.0032107661
    7    6    4    1        0.0060191178
    7    6    5    1        0.0042204864
    7    6    6    1        0.0063072349
    7    6    7    1        0.0088537438
    7    6    2    2       -0.0315985050
    7    6    4    2        0.0191344171
    7    6    5    2        0.0062515299
    7    6    6    2        0.0072433407
    7    6    7    2        0.0101740592
    7    6    3    3       -0.0041053574
    7    6    4    4        0.0210194225
    7    6    5    4        0.0222024752
    7    6    6    4        0.0186505520
    7    6    7    4       -0.0084424382
    7    6    5    5       -0.0072061955
    7    6    6    5        0.0042883621
    7    6    7    5        0.0193230436
    7    6    6    6       -0.0079367697
    7    6    7    6        0.0296060040
    8    6    3    1       -0.0070021901
    8    6    8    1        0.0105704762
    8    6    3    2       -0.0259327893
    8    6    8    2        0.0102204552
    8    6    4    3       -0.0076001739
    8    6    5    3       -0.0258395128
    8    6    6    3       -0.0186960353
    8    6    7    3       -0.0028233791
    8    6    8    4        0.0015941311
    8    6    8    5        0.0076954079
    8    6    8    6        0.0281372756
    7    7    1    1        1.0704790755
    7    7    2    1        0.0126540398
    7    7    4    1        0.0056828527
    7    7    5    1       -0.0052145670
    7    7    6    1       -0.0095963470
    7    7    7    1        0.0138805070
    7    7    2    2        0.6371747009
    7    7    4    2        0.0693073172
    7    7    5    2       -0.0113704042
    7    7    6    2        0.0035916215
    7    7    7    2        0.0297871401
    7    7    3    3        0.6229835013
    7    7    4    4        0.7404502751
    7    7    5    4        0.0062665100
    7    7    6    4        0.0130706395
    7    7    7    4        0.1275358370
    7    7    5    5        0.5506302241
    7    7    6    5        0.1895385832
    7    7    7    5       -0.0064977730
    7    7    6    6        0.5704984294
    7    7    7    6        0.0149663390
    7    7    7    7        0.7793931986
    8    7    3    1       -0.0062426348
    8    7    8    1        0.0093498841
    8    7    3    2       -0.0225033611
    8    7    8    2        0.0087358513
    8    7    4    3       -0.0269829143
    8    7    5    3       -0.0028812779
    8    7    6    3       -0.0029157032
    8    7    7    3       -0.0175347242
    8    7    8    4        0.0078978974
    8    7    8    5        0.0001866867
    8    7    8    6        0.0056074728
    8    7    8    7        0.0283363327
    8    8    1    1        1.0174495873
    8    8    2    1        0.0131590716
    8    8    4    1       -0.0049088804
    8    8    5    1       -0.0043343257
    8    8    6    1       -0.0078132888
    8    8    7    1       -0.0068066545
    8    8    2    2        0.6203773401
    8    8    3    2        0.0000000002
    8    8    4    2        0.0043817827
    8    8    5    2        0.0045288302
    8    8    6    2        0.0114624593
    8    8    7    2        0.0080811775
    8    8    3    3        0.6289682917
    8    8    8    3       -0.1891958508
    8    8    4    4        0.5471077615
    8    8    5    4        0.0073245839
    8    8    6    4        0.0144782595
    8    8    7    4        0.1565098740
    8    8    5    5        0.5312080917
    8    8    6    5        0.1591030234
    8    8    7    5       -0.0133900203
    8    8    6    6        0.5533653628
    8    8    7    6       -0.0041670498
    8    8    7    7        0.5684561402
    8    8    8    8        0.5830656816
 end_two_electron_integrals
 enrep_tce =    8.5435343189624398     
  EHF(A)             =       -76.03181601
  EHF(total)         =       -76.03181601
  Shift (HFtot-HFA)  =         0.00000000
 Cpu & wall time / sec            0.2            0.2
 T1-number-of-tasks                   15

 t1 file size   =               15
 t1 file name   = ./H2O.t1
 t1 file handle =       -998
 T2-number-of-boxes                  315

 t2 file size   =              315
 t2 file name   = ./H2O.t2
 t2 file handle =       -996
CCSD iterations
 ---------------------------------------------------------
 Iter          Residuum       Correlation     Cpu    Wall 
 ---------------------------------------------------------
NEW TASK SCHEDULING
CCSD_T1_NTS --- OK
CCSD_T2_NTS --- OK
    1   0.7107838095792  -0.2381752299952     2.3     3.1
    2   1.0923438854379   0.1024279881147     2.1     2.7
    3   1.7024907470418  -0.4177221051736     2.0     2.7
    4   2.7316087364966   0.3816193223955     1.9     2.7
    5   4.2394103669722  -0.8904714358068     1.9     2.7
 MICROCYCLE DIIS UPDATE:                    5                    5
    6   0.0116768940464  -0.1005656951138     2.0     2.7
    7   0.0082263428463  -0.1012231651407     2.0     2.7
    8   0.0106237664098  -0.1009790874232     2.0     2.7
    9   0.0180326054456  -0.1006038272366     1.9     2.7
   10   0.0307604942074  -0.1003451939589     1.8     2.7
 MICROCYCLE DIIS UPDATE:                   10                    5
   11   0.0002082647752  -0.1010586414780     1.8     2.7
   12   0.0002772169459  -0.1011195762062     1.9     2.7
   13   0.0004502071104  -0.1010240749569     1.9     2.7
   14   0.0007661627679  -0.1011739550473     1.9     2.7
   15   0.0013247376432  -0.1009373082765     2.0     2.7
 MICROCYCLE DIIS UPDATE:                   15                    5
   16   0.0000049089919  -0.1010823928585     1.8     2.7
   17   0.0000028972793  -0.1010821139158     1.9     2.7
   18   0.0000042440892  -0.1010827221184     2.1     2.7
   19   0.0000073896412  -0.1010816900864     2.0     2.7
   20   0.0000131467182  -0.1010833674526     2.0     2.7
 MICROCYCLE DIIS UPDATE:                   20                    5
   21   0.0000001494221  -0.1010823191876     2.1     2.7
   22   0.0000001402105  -0.1010823566563     1.9     2.7
   23   0.0000002215468  -0.1010823033656     1.9     2.7
   24   0.0000003713401  -0.1010823833555     1.9     2.7
   25   0.0000006373826  -0.1010822598070     1.9     2.7
 MICROCYCLE DIIS UPDATE:                   25                    5
   26   0.0000000053460  -0.1010823352849     2.1     2.7
 -----------------------------------------------------------------
 Iterations converged
 CCSD correlation energy / hartree =        -0.101082335284864
 CCSD total energy / hartree       =       -76.132898340929046

 Singles contributions

 Doubles contributions
     6a   (alpha)     7a   (alpha) ---     4a   (alpha)     5a   (alpha)        0.0233842954
     6a   (alpha)     8a   (alpha) ---     3a   (alpha)     5a   (alpha)       -0.0312275986
     6a   (alpha)     6a   (beta ) ---     5a   (alpha)     5a   (beta )       -0.1031770208
     6a   (alpha)     7a   (beta ) ---     5a   (alpha)     4a   (beta )       -0.0353227818
     6a   (alpha)     8a   (beta ) ---     5a   (alpha)     3a   (beta )        0.0428477392
     7a   (alpha)     8a   (alpha) ---     3a   (alpha)     4a   (alpha)       -0.0304867728
     7a   (alpha)     6a   (beta ) ---     4a   (alpha)     5a   (beta )       -0.0353227818
     7a   (alpha)     7a   (beta ) ---     4a   (alpha)     4a   (beta )       -0.0839513943
     7a   (alpha)     8a   (beta ) ---     4a   (alpha)     3a   (beta )        0.0412480020
     8a   (alpha)     6a   (beta ) ---     3a   (alpha)     5a   (beta )        0.0428477392
     8a   (alpha)     7a   (beta ) ---     3a   (alpha)     4a   (beta )        0.0412480020
     8a   (alpha)     8a   (beta ) ---     3a   (alpha)     3a   (beta )       -0.0615818146
 Ground state specification:
 exp(T)|Ref>~(1+T)|Ref>
 ------- a(p)+/a(q) strings ----------

 singles norm

 doubles norm

 Reference string
  0.99471937514039666      :(1a)+ (2a)+ (3a)+ (4a)+ (5a)+ (1b)+ (2b)+ (3b)+ (4b)+ (5b)+ |0>

 Singles strings

 Doubles strings
 -0.10263218169901096      :(6a)+ (6b)+ (5b)  (5a)  (1a)+ (2a)+ (3a)+ (4a)+ (5a)+ (1b)+ (2b)+ (3b)+ (4b)+ (5b)+ |0>
 -------------------------------------

 Parallel integral file used       3 records with       0 large values


 Task  times  cpu:       51.8s     wall:       72.1s


                                NWChem Input Module
                                -------------------


 Summary of allocated global arrays
-----------------------------------
  No active global arrays


MA_summarize_allocated_blocks: starting scan ...
MA_summarize_allocated_blocks: scan completed: 0 heap blocks, 0 stack blocks
MA usage statistics:

	allocation statistics:
					      heap	     stack
					      ----	     -----
	current number of blocks	         0	         0
	maximum number of blocks	        18	        42
	current total bytes		         0	         0
	maximum total bytes		   5323032	  24073272
	maximum total K-bytes		      5324	     24074
	maximum total M-bytes		         6	        25


                                     CITATION
                                     --------
                Please cite the following reference when publishing
                           results obtained with NWChem:

          E. Apra, E. J. Bylaska, W. A. de Jong, N. Govind, K. Kowalski,
       T. P. Straatsma, M. Valiev, H. J. J. van Dam, Y. Alexeev, J. Anchell,
       V. Anisimov, F. W. Aquino, R. Atta-Fynn, J. Autschbach, N. P. Bauman,
     J. C. Becca, D. E. Bernholdt, K. Bhaskaran-Nair, S. Bogatko, P. Borowski,
         J. Boschen, J. Brabec, A. Bruner, E. Cauet, Y. Chen, G. N. Chuev,
      C. J. Cramer, J. Daily, M. J. O. Deegan, T. H. Dunning Jr., M. Dupuis,
   K. G. Dyall, G. I. Fann, S. A. Fischer, A. Fonari, H. Fruchtl, L. Gagliardi,
      J. Garza, N. Gawande, S. Ghosh, K. Glaesemann, A. W. Gotz, J. Hammond,
       V. Helms, E. D. Hermes, K. Hirao, S. Hirata, M. Jacquelin, L. Jensen,
   B. G. Johnson, H. Jonsson, R. A. Kendall, M. Klemm, R. Kobayashi, V. Konkov,
      S. Krishnamoorthy, M. Krishnan, Z. Lin, R. D. Lins, R. J. Littlefield,
      A. J. Logsdail, K. Lopata, W. Ma, A. V. Marenich, J. Martin del Campo,
   D. Mejia-Rodriguez, J. E. Moore, J. M. Mullin, T. Nakajima, D. R. Nascimento,
    J. A. Nichols, P. J. Nichols, J. Nieplocha, A. Otero-de-la-Roza, B. Palmer,
    A. Panyala, T. Pirojsirikul, B. Peng, R. Peverati, J. Pittner, L. Pollack,
   R. M. Richard, P. Sadayappan, G. C. Schatz, W. A. Shelton, D. W. Silverstein,
   D. M. A. Smith, T. A. Soares, D. Song, M. Swart, H. L. Taylor, G. S. Thomas,
            V. Tipparaju, D. G. Truhlar, K. Tsemekhman, T. Van Voorhis,
      A. Vazquez-Mayagoitia, P. Verma, O. Villa, A. Vishnu, K. D. Vogiatzis,
        D. Wang, J. H. Weare, M. J. Williamson, T. L. Windus, K. Wolinski,
        A. T. Wong, Q. Wu, C. Yang, Q. Yu, M. Zacharias, Z. Zhang, Y. Zhao,
                                and R. J. Harrison
                        "NWChem: Past, present, and future
                         J. Chem. Phys. 152, 184102 (2020)
                               doi:10.1063/5.0004997

                                      AUTHORS
                                      -------
  E. Apra, E. J. Bylaska, N. Govind, K. Kowalski, M. Valiev, D. Mejia-Rodriguez,
       A. Kunitsa, N. P. Bauman, A. Panyala, W. A. de Jong, T. P. Straatsma,
        H. J. J. van Dam, D. Wang, T. L. Windus, J. Hammond, J. Autschbach,
    K. Bhaskaran-Nair, J. Brabec, K. Lopata, S. A. Fischer, S. Krishnamoorthy,
     M. Jacquelin, W. Ma, M. Klemm, O. Villa, Y. Chen, V. Anisimov, F. Aquino,
    S. Hirata, M. T. Hackler, Eric Hermes, L. Jensen, J. E. Moore, J. C. Becca,
      V. Konjkov, T. Risthaus, M. Malagoli, A. Marenich, A. Otero-de-la-Roza,
        J. Mullin, P. Nichols, R. Peverati, J. Pittner, Y. Zhao, P.-D. Fan,
        A. Fonari, M. J. Williamson, R. J. Harrison, J. R. Rehr, M. Dupuis,
     D. Silverstein, D. M. A. Smith, J. Nieplocha, V. Tipparaju, M. Krishnan,
     B. E. Van Kuiken, A. Vazquez-Mayagoitia, M. Swart, Q. Wu, T. Van Voorhis,
     A. A. Auer, M. Nooijen, L. D. Crosby, E. Brown, G. Cisneros, G. I. Fann,
   H. Fruchtl, J. Garza, K. Hirao, R. A. Kendall, J. A. Nichols, K. Tsemekhman,
    K. Wolinski, J. Anchell, D. E. Bernholdt, P. Borowski, T. Clark, D. Clerc,
   H. Dachsel, M. J. O. Deegan, K. Dyall, D. Elwood, E. Glendening, M. Gutowski,
   A. C. Hess, J. Jaffe, B. G. Johnson, J. Ju, R. Kobayashi, R. Kutteh, Z. Lin,
   R. Littlefield, X. Long, B. Meng, T. Nakajima, S. Niu, L. Pollack, M. Rosing,
   K. Glaesemann, G. Sandrone, M. Stave, H. Taylor, G. Thomas, J. H. van Lenthe,
                               A. T. Wong, Z. Zhang.

 Total times  cpu:       54.0s     wall:       75.9s
