 argument  1 = input.nw
  NWChem w/ OpenMP: maximum threads =    1



============================== echo of input deck ==============================
 echo
 start H2O
 title "H2O"

 memory total 24 gb

 geometry units bohr
 symmetry c1
        O  0.00000000  0.00000000  0.00000000
        H  0.00000000  2.359616  0.00000000
        H  1.72558000 -0.64860000  0.00000000
 end

 basis spherical
   * library 6-311++G**
 end

 mcscf
   active  8
   actelec 10
   multiplicity 1
   maxiter 40
   vectors input h2o.mos
   vectors output h2o.mos
 end

 task mcscf

 scf
   vectors input h2o.mos
   vectors output h2o-trash.mos
   noscf
 end

 tce
   2eorb
   2emet 13
   ccsd
   maxiter 300
 end

 set tce:print_integrals T
 set tce:qorb 8
 set tce:qela 5
 set tce:qelb 5

# set tce:qducc T
# set tce:nactv 3
# set tce:nonhf T
# set tce:ducc_model 6

 set tce:printtol 0.02

 task tce
================================================================================


                                         
                                         


             Northwest Computational Chemistry Package (NWChem) 7.0.1
             --------------------------------------------------------


                    Environmental Molecular Sciences Laboratory
                       Pacific Northwest National Laboratory
                                Richland, WA 99352

                              Copyright (c) 1994-2020
                       Pacific Northwest National Laboratory
                            Battelle Memorial Institute

             NWChem is an open-source computational chemistry package
                        distributed under the terms of the
                      Educational Community License (ECL) 2.0
             A copy of the license is included with this distribution
                              in the LICENSE.TXT file

                                  ACKNOWLEDGMENT
                                  --------------

            This software and its documentation were developed at the
            EMSL at Pacific Northwest National Laboratory, a multiprogram
            national laboratory, operated for the U.S. Department of Energy
            by Battelle under Contract Number DE-AC05-76RL01830. Support
            for this work was provided by the Department of Energy Office
            of Biological and Environmental Research, Office of Basic
            Energy Sciences, and the Office of Advanced Scientific Computing.


           Job information
           ---------------

    hostname        = WE46210
    program         = /home/baum612/code/nwchem/bin/LINUX64/nwchem
    date            = Wed Sep  4 15:46:41 2024

    compiled        = Wed_Sep_04_02:00:17_2024
    source          = /home/baum612/code/nwchem
    nwchem branch   = 7.0.0
    nwchem revision = nwchem_on_git-4191-g39d87d64de
    ga revision     = 5.8.1
    use scalapack   = F
    input           = input.nw
    prefix          = H2O.
    data base       = ./H2O.db
    status          = startup
    nproc           =        1
    time left       =     -1s



           Memory information
           ------------------

    heap     =  805306366 doubles =   6144.0 Mbytes
    stack    =  805306363 doubles =   6144.0 Mbytes
    global   = 1610612736 doubles =  12288.0 Mbytes (distinct from heap & stack)
    total    = 3221225465 doubles =  24576.0 Mbytes
    verify   = yes
    hardfail = no 


           Directory information
           ---------------------

  0 permanent = .
  0 scratch   = .




                                NWChem Input Module
                                -------------------


                                        H2O
                                        ---
 Turning off AUTOSYM since
 SYMMETRY directive was detected!


          ------
          auto-z
          ------
  no constraints, skipping    0.0000000000000000     
  no constraints, skipping    0.0000000000000000     


                             Geometry "geometry" -> ""
                             -------------------------

 Output coordinates in a.u. (scale by  1.000000000 to convert to a.u.)

  No.       Tag          Charge          X              Y              Z
 ---- ---------------- ---------- -------------- -------------- --------------
    1 O                    8.0000    -0.17255800    -0.17110160     0.00000000
    2 H                    1.0000    -0.17255800     2.18851440     0.00000000
    3 H                    1.0000     1.55302200    -0.81970160     0.00000000

      Atomic Mass 
      ----------- 

      O                 15.994910
      H                  1.007825


 Effective nuclear repulsion energy (a.u.)       8.0184221260

            Nuclear Dipole moment (a.u.) 
            ----------------------------
        X                 Y               Z
 ---------------- ---------------- ----------------
    -0.0000000000     0.0000000000     0.0000000000



                                Z-matrix (autoz)
                                -------- 

 Units are Angstrom for bonds and degrees for angles

      Type          Name      I     J     K     L     M      Value
      ----------- --------  ----- ----- ----- ----- ----- ----------
    1 Stretch                  1     2                       1.24866
    2 Stretch                  1     3                       0.97551
    3 Bend                     2     1     3               110.59992


            XYZ format geometry
            -------------------
     3
 geometry
 O                    -0.09131377    -0.09054307     0.00000000
 H                    -0.09131377     1.15811203     0.00000000
 H                     0.82182391    -0.43376744     0.00000000

 ==============================================================================
                                internuclear distances
 ------------------------------------------------------------------------------
       center one      |      center two      | atomic units |       a.u.
 ------------------------------------------------------------------------------
    3 H                |   1 O                |     1.84345  |     1.84345
 ------------------------------------------------------------------------------
                         number of included internuclear distances:          1
 ==============================================================================





 Summary of "ao basis" -> "" (spherical)
 ------------------------------------------------------------------------------
       Tag                 Description            Shells   Functions and Types
 ---------------- ------------------------------  ------  ---------------------
 *                         6-311++G**                 on all atoms 


                      Basis "ao basis" -> "ao basis" (spherical)
                      -----
  O (Oxygen)
  ----------
            Exponent  Coefficients 
       -------------- ---------------------------------------------------------
  1 S  8.58850000E+03  0.001895
  1 S  1.29723000E+03  0.014386
  1 S  2.99296000E+02  0.070732
  1 S  8.73771000E+01  0.240001
  1 S  2.56789000E+01  0.594797
  1 S  3.74004000E+00  0.280802

  2 S  4.21175000E+01  0.113889
  2 S  9.62837000E+00  0.920811
  2 S  2.85332000E+00 -0.003274

  3 P  4.21175000E+01  0.036511
  3 P  9.62837000E+00  0.237153
  3 P  2.85332000E+00  0.819702

  4 S  9.05661000E-01  1.000000

  5 P  9.05661000E-01  1.000000

  6 S  2.55611000E-01  1.000000

  7 P  2.55611000E-01  1.000000

  8 S  8.45000000E-02  1.000000

  9 P  8.45000000E-02  1.000000

 10 D  1.29200000E+00  1.000000

  H (Hydrogen)
  ------------
            Exponent  Coefficients 
       -------------- ---------------------------------------------------------
  1 S  3.38650000E+01  0.025494
  1 S  5.09479000E+00  0.190373
  1 S  1.15879000E+00  0.852161

  2 S  3.25840000E-01  1.000000

  3 S  1.02741000E-01  1.000000

  4 S  3.60000000E-02  1.000000

  5 P  7.50000000E-01  1.000000



 Summary of "ao basis" -> "ao basis" (spherical)
 ------------------------------------------------------------------------------
       Tag                 Description            Shells   Functions and Types
 ---------------- ------------------------------  ------  ---------------------
 O                         6-311++G**               10       22   5s4p1d
 H                         6-311++G**                5        7   4s1p



                            NWChem Direct MCSCF Module
                            --------------------------


                                        H2O


     -----------------------------------
       Basis functions:             36
       Inactive shells:              0
       Active shells:                8
       Active electrons:            10
       Symmetry:                    a       
       Multiplicity:                 1
       Orbital rotations:          224
     -----------------------------------

     -----------------------------------
       E2 extrapolation:             F
       Conjugacy:                    T
       Micro CI relax:               T
       Canonical orbitals:           T
       Maximum iterations:          40
       Converge threshold:    1.00E-04
       Conjugacy resets:            20
       Initial levelshift:        0.10
     -----------------------------------

 Loading old vectors from job with title :

H2O


   input molecular orbitals = ./h2o.mos
  output molecular orbtials = ./h2o.mos

       No. of determinants:          3136


  Starting Orbital Energies
   -20.579217    -1.313209    -0.693598    -0.566527    -0.525521    -0.039620
    -0.026193    -0.016753     0.074055     0.087066     0.236494     0.279847
     0.318911     0.481313     0.500536     0.648748     1.023247     1.147793
     1.472706     1.556677     1.637906     1.703279     1.734195     2.027385
     2.286887     2.759943     2.836067     3.278533     3.493936     3.505447
     3.923642     4.178867     5.338158     5.588622     5.976335    51.509227

  Orbital Symmetry Irreps
a    a    a    a    a    a    a    a    a    a    a    a    a    a    a   
a    a    a    a    a    a    a    a    a    a    a    a    a    a    a   
a    a    a    a    a    a   

 Integral file          = ./H2O.aoints.0
 Record size in doubles =  65536        No. of integs per rec  =  43688
 Max. records in memory =     10        Max. records in file   = 232555
 No. of bits per label  =      8        No. of bits per value  =     64


 #quartets = 2.216D+04 #integrals = 1.003D+05 #direct =  0.0% #cached =100.0%




          %%%%% MacroIteration   1 %%%%%


          Number of sigma calls:       16
                       o<<<<< (aa):             0.00
                       o<<<<< (bb):             0.00
                       o<<<<< (ab):             0.06
                       o<<<<< (total)           0.07
                       o<<<<< (aa) ff           0.00
                       o<<<<< (aa) gop          0.00
                       o<<<<< (aa) dot          0.00
                       o<<<<< (ab) str          0.00
                       o<<<<< (ab) gath         0.00
                       o<<<<< (ab) dotab        0.00
                       o<<<<< (ab) scat         0.00
                       o<<<<< (ab) sync         0.00
                       o<<<<< Density           0.01
                       o<<<<< Density one       0.00
                       o<<<<< Density two       0.00
                       o<<<<< Density ab        0.01
                       o<<<<< Spin adapt        0.23
                       o<<<<< Symm adapt        0.00

                       o<<<<< (ab) max sync:      0.00

           >>>| Valence CI:            -84.120043894911
           >>>| MCSCF energy:          -76.101621768898
           >>>| Gradient norm:          0.151262427D-01

                              ----- Line search ------

        step       energy         lsg     num-lsg   num-lsh   lsrat    time
      ------- ---------------- --------- --------- --------- ------- --------
       0.0000     -76.10162177 -2.60D-05  0.00D+00  0.00D+00 0.0D+00      0.5

          Number of sigma calls:       14
                       o<<<<< (aa):             0.00
                       o<<<<< (bb):             0.00
                       o<<<<< (ab):             0.04
                       o<<<<< (total)           0.05
                       o<<<<< (aa) ff           0.00
                       o<<<<< (aa) gop          0.00
                       o<<<<< (aa) dot          0.00
                       o<<<<< (ab) str          0.00
                       o<<<<< (ab) gath         0.00
                       o<<<<< (ab) dotab        0.00
                       o<<<<< (ab) scat         0.00
                       o<<<<< (ab) sync         0.00
                       o<<<<< Density           0.00
                       o<<<<< Density one       0.00
                       o<<<<< Density two       0.00
                       o<<<<< Density ab        0.00
                       o<<<<< Spin adapt        0.18
                       o<<<<< Symm adapt        0.00

                       o<<<<< (ab) max sync:      0.00
       1.0000     -76.10163551 -1.44D-06 -1.43D-06  2.46D-05 5.5D-02      0.8
     --- Orbitals canonicalized ---



          %%%%% MacroIteration   2 %%%%%


          Number of sigma calls:       13
                       o<<<<< (aa):             0.00
                       o<<<<< (bb):             0.00
                       o<<<<< (ab):             0.04
                       o<<<<< (total)           0.05
                       o<<<<< (aa) ff           0.00
                       o<<<<< (aa) gop          0.00
                       o<<<<< (aa) dot          0.00
                       o<<<<< (ab) str          0.00
                       o<<<<< (ab) gath         0.00
                       o<<<<< (ab) dotab        0.00
                       o<<<<< (ab) scat         0.00
                       o<<<<< (ab) sync         0.00
                       o<<<<< Density           0.01
                       o<<<<< Density one       0.00
                       o<<<<< Density two       0.00
                       o<<<<< Density ab        0.01
                       o<<<<< Spin adapt        0.22
                       o<<<<< Symm adapt        0.00

                       o<<<<< (ab) max sync:      0.00

           >>>| Valence CI:            -84.120057633486
           >>>| MCSCF energy:          -76.101635507473
           >>>| Gradient norm:          0.122003546D-02
     --- Warning:    2 Hessian diagonals < 0.05 ---
     --- Conjugacy reset ---

                              ----- Line search ------

        step       energy         lsg     num-lsg   num-lsh   lsrat    time
      ------- ---------------- --------- --------- --------- ------- --------
       0.0000     -76.10163551 -4.69D-07  0.00D+00  0.00D+00 0.0D+00      1.1

          Number of sigma calls:       11
                       o<<<<< (aa):             0.00
                       o<<<<< (bb):             0.00
                       o<<<<< (ab):             0.04
                       o<<<<< (total)           0.04
                       o<<<<< (aa) ff           0.00
                       o<<<<< (aa) gop          0.00
                       o<<<<< (aa) dot          0.00
                       o<<<<< (ab) str          0.00
                       o<<<<< (ab) gath         0.00
                       o<<<<< (ab) dotab        0.00
                       o<<<<< (ab) scat         0.00
                       o<<<<< (ab) sync         0.00
                       o<<<<< Density           0.00
                       o<<<<< Density one       0.00
                       o<<<<< Density two       0.00
                       o<<<<< Density ab        0.00
                       o<<<<< Spin adapt        0.17
                       o<<<<< Symm adapt        0.00

                       o<<<<< (ab) max sync:      0.00
       1.0000     -76.10163582 -1.66D-07 -1.66D-07  3.03D-07 3.5D-01      1.4

          Number of sigma calls:       11
                       o<<<<< (aa):             0.00
                       o<<<<< (bb):             0.00
                       o<<<<< (ab):             0.03
                       o<<<<< (total)           0.03
                       o<<<<< (aa) ff           0.00
                       o<<<<< (aa) gop          0.00
                       o<<<<< (aa) dot          0.00
                       o<<<<< (ab) str          0.00
                       o<<<<< (ab) gath         0.00
                       o<<<<< (ab) dotab        0.00
                       o<<<<< (ab) scat         0.00
                       o<<<<< (ab) sync         0.00
                       o<<<<< Density           0.01
                       o<<<<< Density one       0.00
                       o<<<<< Density two       0.00
                       o<<<<< Density ab        0.00
                       o<<<<< Spin adapt        0.16
                       o<<<<< Symm adapt        0.00

                       o<<<<< (ab) max sync:      0.00
       1.5488     -76.10163587  3.93D-10  3.73D-10  3.03D-07 8.4D-04      1.6



          %%%%% MacroIteration   3 %%%%%


          Number of sigma calls:        1
                       o<<<<< (aa):             0.00
                       o<<<<< (bb):             0.00
                       o<<<<< (ab):             0.00
                       o<<<<< (total)           0.00
                       o<<<<< (aa) ff           0.00
                       o<<<<< (aa) gop          0.00
                       o<<<<< (aa) dot          0.00
                       o<<<<< (ab) str          0.00
                       o<<<<< (ab) gath         0.00
                       o<<<<< (ab) dotab        0.00
                       o<<<<< (ab) scat         0.00
                       o<<<<< (ab) sync         0.00
                       o<<<<< Density           0.01
                       o<<<<< Density one       0.00
                       o<<<<< Density two       0.00
                       o<<<<< Density ab        0.01
                       o<<<<< Spin adapt        0.00
                       o<<<<< Symm adapt        0.00

                       o<<<<< (ab) max sync:      0.00

           >>>| Valence CI:            -84.120057996320
           >>>| MCSCF energy:          -76.101635870307
           >>>| Gradient norm:          0.186458714D-03
     --- Warning:    2 Hessian diagonals < 0.05 ---

                              ----- Line search ------

        step       energy         lsg     num-lsg   num-lsh   lsrat    time
      ------- ---------------- --------- --------- --------- ------- --------
       0.0000     -76.10163587 -9.60D-09  0.00D+00  0.00D+00 0.0D+00      1.7

          Number of sigma calls:        9
                       o<<<<< (aa):             0.00
                       o<<<<< (bb):             0.00
                       o<<<<< (ab):             0.02
                       o<<<<< (total)           0.03
                       o<<<<< (aa) ff           0.00
                       o<<<<< (aa) gop          0.00
                       o<<<<< (aa) dot          0.00
                       o<<<<< (ab) str          0.00
                       o<<<<< (ab) gath         0.00
                       o<<<<< (ab) dotab        0.00
                       o<<<<< (ab) scat         0.00
                       o<<<<< (ab) sync         0.00
                       o<<<<< Density           0.01
                       o<<<<< Density one       0.00
                       o<<<<< Density two       0.00
                       o<<<<< Density ab        0.01
                       o<<<<< Spin adapt        0.15
                       o<<<<< Symm adapt        0.00

                       o<<<<< (ab) max sync:      0.00
       1.0000     -76.10163588 -1.46D-09 -1.46D-09  8.15D-09 1.5D-01      1.9

          Number of sigma calls:        8
                       o<<<<< (aa):             0.00
                       o<<<<< (bb):             0.00
                       o<<<<< (ab):             0.02
                       o<<<<< (total)           0.03
                       o<<<<< (aa) ff           0.00
                       o<<<<< (aa) gop          0.00
                       o<<<<< (aa) dot          0.00
                       o<<<<< (ab) str          0.00
                       o<<<<< (ab) gath         0.00
                       o<<<<< (ab) dotab        0.00
                       o<<<<< (ab) scat         0.00
                       o<<<<< (ab) sync         0.00
                       o<<<<< Density           0.01
                       o<<<<< Density one       0.00
                       o<<<<< Density two       0.00
                       o<<<<< Density ab        0.01
                       o<<<<< Spin adapt        0.14
                       o<<<<< Symm adapt        0.00

                       o<<<<< (ab) max sync:      0.00
       1.1786     -76.10163588  6.53D-14 -9.57D-14  8.15D-09 6.8D-06      2.1



          %%%%% MacroIteration   4 %%%%%


          Number of sigma calls:        1
                       o<<<<< (aa):             0.00
                       o<<<<< (bb):             0.00
                       o<<<<< (ab):             0.00
                       o<<<<< (total)           0.01
                       o<<<<< (aa) ff           0.00
                       o<<<<< (aa) gop          0.00
                       o<<<<< (aa) dot          0.00
                       o<<<<< (ab) str          0.00
                       o<<<<< (ab) gath         0.00
                       o<<<<< (ab) dotab        0.00
                       o<<<<< (ab) scat         0.00
                       o<<<<< (ab) sync         0.00
                       o<<<<< Density           0.01
                       o<<<<< Density one       0.00
                       o<<<<< Density two       0.00
                       o<<<<< Density ab        0.01
                       o<<<<< Spin adapt        0.00
                       o<<<<< Symm adapt        0.00

                       o<<<<< (ab) max sync:      0.00

           >>>| Valence CI:            -84.120058001979
           >>>| MCSCF energy:          -76.101635875966
           >>>| Gradient norm:          0.310202359D-04




     ==============================
            MCSCF Converged
     ==============================



          Canonical Eigenvalues

              1      
    1  -20.5798
    2   -1.3124
    3   -0.6921
    4   -0.5654
    5   -0.5255
    6   -0.0403
    7   -0.0262
    8   -0.0167
    9    0.0742
   10    0.0871
   11    0.2365
   12    0.2799
   13    0.3190
   14    0.4814
   15    0.5005
   16    0.6497
   17    1.0239
   18    1.1519
   19    1.4730
   20    1.5581
   21    1.6352
   22    1.7021
   23    1.7296
   24    2.0239
   25    2.2863
   26    2.7583
   27    2.8340
   28    3.2740
   29    3.4938
   30    3.5016
   31    3.9145
   32    4.1790
   33    5.3389
   34    5.5827
   35    5.9743
   36   51.5088


          Converged CI vector

   Index           Coefficient          Config. Occupation
         1         -0.96486787          1  2  3  4  5  1  2  3  4  5
        22          0.07818249          1  2  3  4  5  1  2  3  4  8
         3          0.05518596          1  2  3  4  5  1  2  3  5  6
         8         -0.02551692          1  2  3  4  5  1  2  3  5  7
        27         -0.02178328          1  2  3  4  5  1  2  3  6  8
         4         -0.02899198          1  2  3  4  5  1  2  4  5  6
         9         -0.04110501          1  2  3  4  5  1  2  4  5  7
        38          0.02270635          1  2  3  4  5  1  2  4  7  8
      1177          0.07818249          1  2  3  4  8  1  2  3  4  5
      1198          0.05525463          1  2  3  4  8  1  2  3  4  8
      1179          0.02940374          1  2  3  4  8  1  2  3  5  6
      1180         -0.02136409          1  2  3  4  8  1  2  4  5  6
      1185         -0.03041735          1  2  3  4  8  1  2  4  5  7
       113          0.05518596          1  2  3  5  6  1  2  3  4  5
       134          0.02940374          1  2  3  5  6  1  2  3  4  8
       115          0.08513201          1  2  3  5  6  1  2  3  5  6
       116         -0.05411783          1  2  3  5  6  1  2  4  5  6
       121         -0.02017981          1  2  3  5  6  1  2  4  5  7
       117          0.02200169          1  2  3  5  6  1  3  4  5  6
       393         -0.02551692          1  2  3  5  7  1  2  3  4  5
       401          0.02493735          1  2  3  5  7  1  2  4  5  7
      1457         -0.02178328          1  2  3  6  8  1  2  3  4  5
       169         -0.02899198          1  2  4  5  6  1  2  3  4  5
       190         -0.02136409          1  2  4  5  6  1  2  3  4  8
       171         -0.05411783          1  2  4  5  6  1  2  3  5  6
       172          0.04884538          1  2  4  5  6  1  2  4  5  6
       173         -0.02029186          1  2  4  5  6  1  3  4  5  6
       449         -0.04110501          1  2  4  5  7  1  2  3  4  5
       470         -0.03041735          1  2  4  5  7  1  2  3  4  8
       451         -0.02017981          1  2  4  5  7  1  2  3  5  6
       456          0.02493735          1  2  4  5  7  1  2  3  5  7
       457          0.05586110          1  2  4  5  7  1  2  4  5  7
       458          0.02514403          1  2  4  5  7  1  3  4  5  7
      2073          0.02270635          1  2  4  7  8  1  2  3  4  5
       227          0.02200169          1  3  4  5  6  1  2  3  5  6
       228         -0.02029186          1  3  4  5  6  1  2  4  5  6
       229          0.02311014          1  3  4  5  6  1  3  4  5  6
       513          0.02514403          1  3  4  5  7  1  2  4  5  7
       514          0.02464600          1  3  4  5  7  1  3  4  5  7

          Number of sigma calls:        1
                       o<<<<< (aa):             0.00
                       o<<<<< (bb):             0.00
                       o<<<<< (ab):             0.01
                       o<<<<< (total)           0.01
                       o<<<<< (aa) ff           0.00
                       o<<<<< (aa) gop          0.00
                       o<<<<< (aa) dot          0.00
                       o<<<<< (ab) str          0.00
                       o<<<<< (ab) gath         0.00
                       o<<<<< (ab) dotab        0.00
                       o<<<<< (ab) scat         0.00
                       o<<<<< (ab) sync         0.00
                       o<<<<< Density           0.01
                       o<<<<< Density one       0.00
                       o<<<<< Density two       0.00
                       o<<<<< Density ab        0.01
                       o<<<<< Spin adapt        0.00
                       o<<<<< Symm adapt        0.00

                       o<<<<< (ab) max sync:      0.00



          Natural orbital occupation numbers

              1      
    1    2.0000
    2    1.9984
    3    1.9785
    4    1.9744
    5    1.9501
    6    0.0514
    7    0.0263
    8    0.0209


          Number of sigma calls:       16
                       o<<<<< (aa):             0.00
                       o<<<<< (bb):             0.00
                       o<<<<< (ab):             0.06
                       o<<<<< (total)           0.07
                       o<<<<< (aa) ff           0.00
                       o<<<<< (aa) gop          0.00
                       o<<<<< (aa) dot          0.00
                       o<<<<< (ab) str          0.00
                       o<<<<< (ab) gath         0.00
                       o<<<<< (ab) dotab        0.00
                       o<<<<< (ab) scat         0.00
                       o<<<<< (ab) sync         0.00
                       o<<<<< Density           0.00
                       o<<<<< Density one       0.00
                       o<<<<< Density two       0.00
                       o<<<<< Density ab        0.00
                       o<<<<< Spin adapt        0.27
                       o<<<<< Symm adapt        0.00

                       o<<<<< (ab) max sync:      0.00


       Final MCSCF results 
       ------------------- 

       Total MCSCF energy =    -76.101635875965
            Gradient norm =      3.1D-05

    CPU time for solution =      2.6s
   Wall time for solution =      4.7s



                        Analysis of MCSCF natural orbitals
                        ----------------------------------

 Vector    1  Occ=1.999991D+00  E=-2.057982D+01  Symmetry=a
              MO Center= -9.1D-02, -9.0D-02,  9.3D-14, r^2= 1.5D-02
   Bfn.  Coefficient  Atom+Function         Bfn.  Coefficient  Atom+Function  
  ----- ------------  ---------------      ----- ------------  ---------------
     1      0.558227  1 O  s                  2      0.484176  1 O  s          

 Vector    2  Occ=1.998373D+00  E=-1.312366D+00  Symmetry=a
              MO Center= -2.9D-01, -2.0D-01, -3.4D-11, r^2= 4.3D-01
   Bfn.  Coefficient  Atom+Function         Bfn.  Coefficient  Atom+Function  
  ----- ------------  ---------------      ----- ------------  ---------------
     6      0.577254  1 O  s                 10      0.495378  1 O  s          
     2     -0.165188  1 O  s          

 Vector    3  Occ=1.978526D+00  E=-6.921195D-01  Symmetry=a
              MO Center= -7.3D-02, -8.6D-02,  3.7D-11, r^2= 7.1D-01
   Bfn.  Coefficient  Atom+Function         Bfn.  Coefficient  Atom+Function  
  ----- ------------  ---------------      ----- ------------  ---------------
     9      0.437699  1 O  pz                13      0.408439  1 O  pz         
     5      0.290862  1 O  pz         

 Vector    4  Occ=1.974412D+00  E=-5.653942D-01  Symmetry=a
              MO Center=  3.3D-01, -2.1D-01, -2.7D-12, r^2= 6.2D-01
   Bfn.  Coefficient  Atom+Function         Bfn.  Coefficient  Atom+Function  
  ----- ------------  ---------------      ----- ------------  ---------------
     7      0.350300  1 O  px                31      0.275531  3 H  s          
    11      0.236213  1 O  px                 3      0.232642  1 O  px         
    30      0.190975  3 H  s          

 Vector    5  Occ=1.950089D+00  E=-5.254826D-01  Symmetry=a
              MO Center= -4.9D-02,  4.5D-01, -5.1D-13, r^2= 8.1D-01
   Bfn.  Coefficient  Atom+Function         Bfn.  Coefficient  Atom+Function  
  ----- ------------  ---------------      ----- ------------  ---------------
     8      0.338781  1 O  py                24      0.283101  2 H  s          
    12      0.252199  1 O  py                 4      0.217897  1 O  py         
    23      0.156751  2 H  s          

 Vector    6  Occ=5.138510D-02  E=-4.025275D-02  Symmetry=a
              MO Center= -5.2D-02,  6.7D-01, -6.6D-13, r^2= 8.0D-01
   Bfn.  Coefficient  Atom+Function         Bfn.  Coefficient  Atom+Function  
  ----- ------------  ---------------      ----- ------------  ---------------
    24     -0.505140  2 H  s                  8      0.489036  1 O  py         
     4      0.349073  1 O  py                 6      0.299987  1 O  s          
    23     -0.250801  2 H  s          

 Vector    7  Occ=2.632305D-02  E=-2.620558D-02  Symmetry=a
              MO Center=  5.0D-01, -2.7D-01,  6.3D-13, r^2= 6.8D-01
   Bfn.  Coefficient  Atom+Function         Bfn.  Coefficient  Atom+Function  
  ----- ------------  ---------------      ----- ------------  ---------------
    31     -0.560636  3 H  s                  7      0.510078  1 O  px         
     3      0.412450  1 O  px                 6      0.380017  1 O  s          
    30     -0.289826  3 H  s          

 Vector    8  Occ=2.090066D-02  E=-1.672958D-02  Symmetry=a
              MO Center= -5.5D-02, -7.6D-02,  5.0D-11, r^2= 1.5D+00
   Bfn.  Coefficient  Atom+Function         Bfn.  Coefficient  Atom+Function  
  ----- ------------  ---------------      ----- ------------  ---------------
    13      0.649169  1 O  pz                 5     -0.490208  1 O  pz         
     9     -0.468586  1 O  pz                17      0.304467  1 O  pz         

 Vector    9  Occ=0.000000D+00  E= 7.415634D-02  Symmetry=a
              MO Center=  5.3D-01,  5.6D-01,  3.0D-12, r^2= 1.1D+01
   Bfn.  Coefficient  Atom+Function         Bfn.  Coefficient  Atom+Function  
  ----- ------------  ---------------      ----- ------------  ---------------
    26      1.052794  2 H  s                 33      0.967202  3 H  s          
    14     -0.648330  1 O  s                 25     -0.553125  2 H  s          
    32     -0.388814  3 H  s                 10      0.244166  1 O  s          

 Vector   10  Occ=0.000000D+00  E= 8.705059D-02  Symmetry=a
              MO Center=  5.4D-01,  3.8D-01, -2.6D-12, r^2= 1.4D+01
   Bfn.  Coefficient  Atom+Function         Bfn.  Coefficient  Atom+Function  
  ----- ------------  ---------------      ----- ------------  ---------------
    33     -2.393322  3 H  s                 26      2.327939  2 H  s          
    25     -0.560948  2 H  s                 32      0.415139  3 H  s          
    16     -0.258651  1 O  py                15      0.225748  1 O  px         
    14      0.183222  1 O  s          

 Vector   11  Occ=0.000000D+00  E= 2.365158D-01  Symmetry=a
              MO Center= -4.4D-01, -1.4D-01,  7.7D-12, r^2= 5.4D+00
   Bfn.  Coefficient  Atom+Function         Bfn.  Coefficient  Atom+Function  
  ----- ------------  ---------------      ----- ------------  ---------------
    32      2.741033  3 H  s                 14     -2.393414  1 O  s          
    15     -1.965471  1 O  px                25      1.416526  2 H  s          
    16     -0.815614  1 O  py                11      0.340748  1 O  px         
    33     -0.336801  3 H  s                 10     -0.264147  1 O  s          
    12      0.243611  1 O  py                26     -0.192901  2 H  s          

 Vector   12  Occ=0.000000D+00  E= 2.799476D-01  Symmetry=a
              MO Center= -3.8D-01, -3.6D-01,  4.0D-13, r^2= 5.9D+00
   Bfn.  Coefficient  Atom+Function         Bfn.  Coefficient  Atom+Function  
  ----- ------------  ---------------      ----- ------------  ---------------
    32      3.132492  3 H  s                 16      2.553872  1 O  py         
    25     -2.237270  2 H  s                 15     -1.831608  1 O  px         
    14     -1.113844  1 O  s                 33      0.680347  3 H  s          
    26     -0.483503  2 H  s                 12     -0.364383  1 O  py         
    31     -0.253846  3 H  s                 11      0.186803  1 O  px         

 Vector   13  Occ=0.000000D+00  E= 3.189852D-01  Symmetry=a
              MO Center=  1.8D-01,  1.1D-01, -9.7D-11, r^2= 5.4D+00
   Bfn.  Coefficient  Atom+Function         Bfn.  Coefficient  Atom+Function  
  ----- ------------  ---------------      ----- ------------  ---------------
    14      6.790105  1 O  s                 32     -3.898722  3 H  s          
    25     -2.697310  2 H  s                 15      1.580647  1 O  px         
    10     -1.161399  1 O  s                 16      0.648311  1 O  py         
    33     -0.459551  3 H  s                 31      0.233040  3 H  s          
    24      0.166653  2 H  s          

 Vector   14  Occ=0.000000D+00  E= 4.813506D-01  Symmetry=a
              MO Center= -9.0D-02,  1.4D+00, -1.1D-12, r^2= 5.1D+00
   Bfn.  Coefficient  Atom+Function         Bfn.  Coefficient  Atom+Function  
  ----- ------------  ---------------      ----- ------------  ---------------
    25      3.307383  2 H  s                 26     -1.726689  2 H  s          
    32     -1.594323  3 H  s                 24     -1.384018  2 H  s          
    33      0.973039  3 H  s                 31      0.437765  3 H  s          
    10     -0.283456  1 O  s                 16     -0.250793  1 O  py         
    15      0.159588  1 O  px                14      0.152113  1 O  s          

 Vector   15  Occ=0.000000D+00  E= 5.005350D-01  Symmetry=a
              MO Center=  1.2D+00, -5.5D-01, -2.0D-13, r^2= 4.5D+00
   Bfn.  Coefficient  Atom+Function         Bfn.  Coefficient  Atom+Function  
  ----- ------------  ---------------      ----- ------------  ---------------
    32      4.040775  3 H  s                 31     -1.474203  3 H  s          
    14     -1.411490  1 O  s                 33     -1.315915  3 H  s          
    25      0.776972  2 H  s                 15     -0.502234  1 O  px         
    24     -0.463284  2 H  s                 10     -0.292083  1 O  s          
     7      0.156914  1 O  px         

 Vector   16  Occ=0.000000D+00  E= 6.496876D-01  Symmetry=a
              MO Center= -8.5D-02, -8.9D-02,  6.7D-11, r^2= 5.3D+00
   Bfn.  Coefficient  Atom+Function         Bfn.  Coefficient  Atom+Function  
  ----- ------------  ---------------      ----- ------------  ---------------
    17     -1.442886  1 O  pz                13      1.432445  1 O  pz         
     9     -0.447318  1 O  pz         

 Vector   17  Occ=0.000000D+00  E= 1.023899D+00  Symmetry=a
              MO Center= -2.9D-01,  1.5D-01,  4.8D-12, r^2= 2.5D+00
   Bfn.  Coefficient  Atom+Function         Bfn.  Coefficient  Atom+Function  
  ----- ------------  ---------------      ----- ------------  ---------------
    32      2.459365  3 H  s                 14     -2.348655  1 O  s          
    11      2.305913  1 O  px                31     -2.106912  3 H  s          
    15     -1.780387  1 O  px                10      1.498649  1 O  s          
    25      0.497456  2 H  s                  7     -0.455985  1 O  px         
    12     -0.363890  1 O  py                33      0.346252  3 H  s          

 Vector   18  Occ=0.000000D+00  E= 1.151937D+00  Symmetry=a
              MO Center= -2.9D-02, -3.9D-01,  3.0D-13, r^2= 2.5D+00
   Bfn.  Coefficient  Atom+Function         Bfn.  Coefficient  Atom+Function  
  ----- ------------  ---------------      ----- ------------  ---------------
    12      2.205622  1 O  py                16     -1.559256  1 O  py         
    25      1.324967  2 H  s                 24     -1.254840  2 H  s          
     8     -0.692043  1 O  py                14     -0.648025  1 O  s          
    33     -0.486098  3 H  s                 26      0.366299  2 H  s          
    31      0.358741  3 H  s                 10      0.248961  1 O  s          


 Wrote Lagrangian and 1- and 2-particle density matrices to ./H2O.mcpdm


     Multipole analysis of the density
     ---------------------------------

     L   x y z        total        nuclear
     -   - - -        -----        -------
     0   0 0 0      0.000000     10.000000

     1   1 0 0      0.633389     -0.000000
     1   0 1 0      0.501617      0.000000
     1   0 0 1     -0.000000      0.000000

     2   2 0 0     -4.499134      2.679864
     2   1 1 0     -0.902733     -1.414461
     2   1 0 1      0.000000      0.000000
     2   0 2 0     -3.248899      5.695712
     2   0 1 1      0.000000      0.000000
     2   0 0 2     -6.048090      0.000000


  Mulliken analysis of the total density
  --------------------------------------

    Atom       Charge   Shell Charges
 -----------   ------   -------------------------------------------------------
    1 O    8     8.51   1.08  0.91  0.92  1.02  2.00  0.84  1.56 -0.02  0.20  0.01
    2 H    1     0.74   0.18  0.42  0.09  0.01  0.04
    3 H    1     0.75   0.26  0.40  0.02  0.01  0.07

    Mulliken analysis of the active space density
    ---------------------------------------------

    Atom       Charge   Shell Charges
 -----------   ------   -------------------------------------------------------
    1 O    8     8.51   1.08  0.91  0.92  1.02  2.00  0.84  1.56 -0.02  0.20  0.01
    2 H    1     0.74   0.18  0.42  0.09  0.01  0.04
    3 H    1     0.75   0.26  0.40  0.02  0.01  0.07

 Parallel integral file used       3 records with       0 large values


 Task  times  cpu:        2.6s     wall:        4.7s


                                NWChem Input Module
                                -------------------


                                 NWChem SCF Module
                                 -----------------


                                        H2O



  ao basis        = "ao basis"
  functions       =    36
  atoms           =     3
  closed shells   =     5
  open shells     =     0
  charge          =   0.00
  wavefunction    = RHF 
  input vectors   = ./h2o.mos
  output vectors  = ./h2o-trash.mos
  use symmetry    = F
  symmetry adapt  = F


 Summary of "ao basis" -> "ao basis" (spherical)
 ------------------------------------------------------------------------------
       Tag                 Description            Shells   Functions and Types
 ---------------- ------------------------------  ------  ---------------------
 O                         6-311++G**               10       22   5s4p1d
 H                         6-311++G**                5        7   4s1p



 Forming initial guess at       4.7s


 Loading old vectors from job with title :

H2O


 Starting SCF solution at       4.7s



 ----------------------------------------------
         Quadratically convergent ROHF

 Convergence threshold     :          1.000E-04
 Maximum no. of iterations :           30
 Final Fock-matrix accuracy:          1.000E-07
 ----------------------------------------------


 Integral file          = ./H2O.aoints.0
 Record size in doubles =  65536        No. of integs per rec  =  43688
 Max. records in memory =     10        Max. records in file   = 232563
 No. of bits per label  =      8        No. of bits per value  =     64


 #quartets = 2.216D+04 #integrals = 1.002D+05 #direct =  0.0% #cached =100.0%



       Final RHF  results 
       ------------------ 

         Total SCF energy =    -75.991114600755
      One-electron energy =   -120.793447104652
      Two-electron energy =     36.783910377884
 Nuclear repulsion energy =      8.018422126013

        Time for solution =      0.0s


             Final eigenvalues
             -----------------

              1      
    1  -20.5798
    2   -1.3124
    3   -0.6921
    4   -0.5654
    5   -0.5255
    6   -0.0403
    7   -0.0262
    8   -0.0167
    9    0.0742
   10    0.0871
   11    0.2365
   12    0.2799
   13    0.3190
   14    0.4814
   15    0.5005

                       ROHF Final Molecular Orbital Analysis
                       -------------------------------------

 Vector    2  Occ=2.000000D+00  E=-1.312366D+00
              MO Center= -2.9D-01, -2.0D-01, -3.4D-11, r^2= 4.3D-01
   Bfn.  Coefficient  Atom+Function         Bfn.  Coefficient  Atom+Function  
  ----- ------------  ---------------      ----- ------------  ---------------
     6      0.577254  1 O  s                 10      0.495378  1 O  s          
     2     -0.165188  1 O  s          

 Vector    3  Occ=2.000000D+00  E=-6.921195D-01
              MO Center= -7.3D-02, -8.6D-02,  3.7D-11, r^2= 7.1D-01
   Bfn.  Coefficient  Atom+Function         Bfn.  Coefficient  Atom+Function  
  ----- ------------  ---------------      ----- ------------  ---------------
     9      0.437699  1 O  pz                13      0.408439  1 O  pz         
     5      0.290862  1 O  pz         

 Vector    4  Occ=2.000000D+00  E=-5.653942D-01
              MO Center=  3.3D-01, -2.1D-01, -2.7D-12, r^2= 6.2D-01
   Bfn.  Coefficient  Atom+Function         Bfn.  Coefficient  Atom+Function  
  ----- ------------  ---------------      ----- ------------  ---------------
     7      0.350300  1 O  px                31      0.275531  3 H  s          
    11      0.236213  1 O  px                 3      0.232642  1 O  px         
    30      0.190975  3 H  s          

 Vector    5  Occ=2.000000D+00  E=-5.254826D-01
              MO Center= -4.9D-02,  4.5D-01, -5.1D-13, r^2= 8.1D-01
   Bfn.  Coefficient  Atom+Function         Bfn.  Coefficient  Atom+Function  
  ----- ------------  ---------------      ----- ------------  ---------------
     8      0.338781  1 O  py                24      0.283101  2 H  s          
    12      0.252199  1 O  py                 4      0.217897  1 O  py         
    23      0.156751  2 H  s          

 Vector    6  Occ=0.000000D+00  E=-4.025275D-02
              MO Center= -5.2D-02,  6.7D-01, -6.6D-13, r^2= 8.0D-01
   Bfn.  Coefficient  Atom+Function         Bfn.  Coefficient  Atom+Function  
  ----- ------------  ---------------      ----- ------------  ---------------
    24     -0.505140  2 H  s                  8      0.489036  1 O  py         
     4      0.349073  1 O  py                 6      0.299987  1 O  s          
    23     -0.250801  2 H  s          

 Vector    7  Occ=0.000000D+00  E=-2.620558D-02
              MO Center=  5.0D-01, -2.7D-01,  6.3D-13, r^2= 6.8D-01
   Bfn.  Coefficient  Atom+Function         Bfn.  Coefficient  Atom+Function  
  ----- ------------  ---------------      ----- ------------  ---------------
    31     -0.560636  3 H  s                  7      0.510078  1 O  px         
     3      0.412450  1 O  px                 6      0.380017  1 O  s          
    30     -0.289826  3 H  s          

 Vector    8  Occ=0.000000D+00  E=-1.672958D-02
              MO Center= -5.5D-02, -7.6D-02,  5.0D-11, r^2= 1.5D+00
   Bfn.  Coefficient  Atom+Function         Bfn.  Coefficient  Atom+Function  
  ----- ------------  ---------------      ----- ------------  ---------------
    13      0.649169  1 O  pz                 5     -0.490208  1 O  pz         
     9     -0.468586  1 O  pz                17      0.304467  1 O  pz         

 Vector    9  Occ=0.000000D+00  E= 7.415634D-02
              MO Center=  5.3D-01,  5.6D-01,  3.0D-12, r^2= 1.1D+01
   Bfn.  Coefficient  Atom+Function         Bfn.  Coefficient  Atom+Function  
  ----- ------------  ---------------      ----- ------------  ---------------
    26      1.052794  2 H  s                 33      0.967202  3 H  s          
    14     -0.648330  1 O  s                 25     -0.553125  2 H  s          
    32     -0.388814  3 H  s                 10      0.244166  1 O  s          

 Vector   10  Occ=0.000000D+00  E= 8.705059D-02
              MO Center=  5.4D-01,  3.8D-01, -2.6D-12, r^2= 1.4D+01
   Bfn.  Coefficient  Atom+Function         Bfn.  Coefficient  Atom+Function  
  ----- ------------  ---------------      ----- ------------  ---------------
    33     -2.393322  3 H  s                 26      2.327939  2 H  s          
    25     -0.560948  2 H  s                 32      0.415139  3 H  s          
    16     -0.258651  1 O  py                15      0.225748  1 O  px         
    14      0.183222  1 O  s          

 Vector   11  Occ=0.000000D+00  E= 2.365158D-01
              MO Center= -4.4D-01, -1.4D-01,  7.7D-12, r^2= 5.4D+00
   Bfn.  Coefficient  Atom+Function         Bfn.  Coefficient  Atom+Function  
  ----- ------------  ---------------      ----- ------------  ---------------
    32      2.741033  3 H  s                 14     -2.393414  1 O  s          
    15     -1.965471  1 O  px                25      1.416526  2 H  s          
    16     -0.815614  1 O  py                11      0.340748  1 O  px         
    33     -0.336801  3 H  s                 10     -0.264147  1 O  s          
    12      0.243611  1 O  py                26     -0.192901  2 H  s          

 Vector   12  Occ=0.000000D+00  E= 2.799476D-01
              MO Center= -3.8D-01, -3.6D-01,  4.0D-13, r^2= 5.9D+00
   Bfn.  Coefficient  Atom+Function         Bfn.  Coefficient  Atom+Function  
  ----- ------------  ---------------      ----- ------------  ---------------
    32      3.132492  3 H  s                 16      2.553872  1 O  py         
    25     -2.237270  2 H  s                 15     -1.831608  1 O  px         
    14     -1.113844  1 O  s                 33      0.680347  3 H  s          
    26     -0.483503  2 H  s                 12     -0.364383  1 O  py         
    31     -0.253846  3 H  s                 11      0.186803  1 O  px         

 Vector   13  Occ=0.000000D+00  E= 3.189852D-01
              MO Center=  1.8D-01,  1.1D-01, -9.7D-11, r^2= 5.4D+00
   Bfn.  Coefficient  Atom+Function         Bfn.  Coefficient  Atom+Function  
  ----- ------------  ---------------      ----- ------------  ---------------
    14      6.790105  1 O  s                 32     -3.898722  3 H  s          
    25     -2.697310  2 H  s                 15      1.580647  1 O  px         
    10     -1.161399  1 O  s                 16      0.648311  1 O  py         
    33     -0.459551  3 H  s                 31      0.233040  3 H  s          
    24      0.166653  2 H  s          

 Vector   14  Occ=0.000000D+00  E= 4.813506D-01
              MO Center= -9.0D-02,  1.4D+00, -1.1D-12, r^2= 5.1D+00
   Bfn.  Coefficient  Atom+Function         Bfn.  Coefficient  Atom+Function  
  ----- ------------  ---------------      ----- ------------  ---------------
    25      3.307383  2 H  s                 26     -1.726689  2 H  s          
    32     -1.594323  3 H  s                 24     -1.384018  2 H  s          
    33      0.973039  3 H  s                 31      0.437765  3 H  s          
    10     -0.283456  1 O  s                 16     -0.250793  1 O  py         
    15      0.159588  1 O  px                14      0.152113  1 O  s          

 Vector   15  Occ=0.000000D+00  E= 5.005350D-01
              MO Center=  1.2D+00, -5.5D-01, -2.0D-13, r^2= 4.5D+00
   Bfn.  Coefficient  Atom+Function         Bfn.  Coefficient  Atom+Function  
  ----- ------------  ---------------      ----- ------------  ---------------
    32      4.040775  3 H  s                 31     -1.474203  3 H  s          
    14     -1.411490  1 O  s                 33     -1.315915  3 H  s          
    25      0.776972  2 H  s                 15     -0.502234  1 O  px         
    24     -0.463284  2 H  s                 10     -0.292083  1 O  s          
     7      0.156914  1 O  px         


 center of mass
 --------------
 x =  -0.07599894 y =  -0.07535751 z =   0.00000000

 moments of inertia (a.u.)
 ------------------
           5.870227841314           1.294475904781           0.000000000000
           1.294475904781           2.833002082974           0.000000000000
           0.000000000000           0.000000000000           8.703229924288

  Mulliken analysis of the total density
  --------------------------------------

    Atom       Charge   Shell Charges
 -----------   ------   -------------------------------------------------------
    1 O    8     8.52   1.08  0.91  0.91  1.01  2.01  0.84  1.57 -0.03  0.19  0.01
    2 H    1     0.73   0.17  0.42  0.09  0.01  0.04
    3 H    1     0.75   0.26  0.39  0.02  0.01  0.07

       Multipole analysis of the density wrt the origin
       ------------------------------------------------

     L   x y z        total         open         nuclear
     -   - - -        -----         ----         -------
     0   0 0 0     -0.000000      0.000000     10.000000

     1   1 0 0      0.643697      0.000000     -0.000000
     1   0 1 0      0.522265      0.000000      0.000000
     1   0 0 1     -0.000000      0.000000      0.000000

     2   2 0 0     -4.472478      0.000000      2.679864
     2   1 1 0     -0.916793      0.000000     -1.414461
     2   1 0 1      0.000000      0.000000      0.000000
     2   0 2 0     -3.178265      0.000000      5.695712
     2   0 1 1      0.000000      0.000000      0.000000
     2   0 0 2     -6.018021      0.000000      0.000000


 Parallel integral file used       3 records with       0 large values

 ------------------------------------
     Number of active orbitals      8
     Number of active alpha electrons      5
     Number of active beta electrons       5
 ------------------------------------
                   NWChem Extensible Many-Electron Theory Module
                   ---------------------------------------------

              ======================================================
                   This portion of the program was automatically
                  generated by a Tensor Contraction Engine (TCE).
                  The development of this portion of the program
                 and TCE was supported by US Department of Energy,
                Office of Science, Office of Basic Energy Science.
                      TCE is a product of Battelle and PNNL.
              Please cite: S.Hirata, J.Phys.Chem.A 107, 9887 (2003).
              ======================================================

                                        H2O


            General Information
            -------------------
      Number of processors :     1
         Wavefunction type : Restricted Hartree-Fock
          No. of electrons :    10
           Alpha electrons :     5
            Beta electrons :     5
           No. of orbitals :    72
            Alpha orbitals :    36
             Beta orbitals :    36
        Alpha frozen cores :     0
         Beta frozen cores :     0
     Alpha frozen virtuals :    28
      Beta frozen virtuals :    28
         Spin multiplicity : singlet 
    Number of AO functions :    36
       Number of AO shells :    20
        Use of symmetry is : off
      Symmetry adaption is : off
         Schwarz screening : 0.10D-09

          Correlation Information
          -----------------------
          Calculation type : Coupled-cluster singles & doubles                           
   Perturbative correction : none                                                        
            Max iterations :      300
        Residual threshold : 0.10D-06
     T(0) DIIS level shift : 0.00D+00
     L(0) DIIS level shift : 0.00D+00
     T(1) DIIS level shift : 0.00D+00
     L(1) DIIS level shift : 0.00D+00
     T(R) DIIS level shift : 0.00D+00
     T(I) DIIS level shift : 0.00D+00
   CC-T/L Amplitude update :  5-th order DIIS
                I/O scheme : Global Array Library
        L-threshold :  0.10D-06
        EOM-threshold :  0.10D-06
 no EOMCCSD initial starts read in
 TCE RESTART OPTIONS
 READ_INT:   F
 WRITE_INT:  F
 READ_TA:    F
 WRITE_TA:   F
 READ_XA:    F
 WRITE_XA:   F
 READ_IN3:   F
 WRITE_IN3:  F
 SLICE:      F
 D4D5:       F
 quantumc:   T
 qrotation:  F
 pwtce:      F
 qducc:      F
 nacto:                         0
 nrotv:                         0
 nrot:                          0

            Memory Information
            ------------------
          Available GA space size is    1610611440 doubles
          Available MA space size is    1610610740 doubles

 Maximum block size supplied by input
 Maximum block size         1 doubles

 tile_dim =      1

 Block   Spin    Irrep     Size     Offset   Alpha
 -------------------------------------------------
   1    alpha     a      1 doubles       0       1
   2    alpha     a      1 doubles       1       2
   3    alpha     a      1 doubles       2       3
   4    alpha     a      1 doubles       3       4
   5    alpha     a      1 doubles       4       5
   6    beta      a      1 doubles       5       1
   7    beta      a      1 doubles       6       2
   8    beta      a      1 doubles       7       3
   9    beta      a      1 doubles       8       4
  10    beta      a      1 doubles       9       5
  11    alpha     a      1 doubles      10      11
  12    alpha     a      1 doubles      11      12
  13    alpha     a      1 doubles      12      13
  14    beta      a      1 doubles      13      11
  15    beta      a      1 doubles      14      12
  16    beta      a      1 doubles      15      13

 Global array virtual files algorithm will be used

 Parallel file system coherency ......... OK

 Integral file          = ./H2O.aoints.0
 Record size in doubles =  65536        No. of integs per rec  =  43688
 Max. records in memory =     10        Max. records in file   = 232563
 No. of bits per label  =      8        No. of bits per value  =     64


 #quartets = 2.216D+04 #integrals = 1.003D+05 #direct =  0.0% #cached =100.0%


 Fock matrix recomputed
 1-e file size   =               64
 1-e file name   = ./H2O.f1
 Cpu & wall time / sec            0.0            0.0
 4-electron integrals stored in orbital form

 v2    file size   =              666
 4-index algorithm nr.  13 is used
 imaxsize =       30
 imaxsize ichop =        0
 begin_one_electron_integrals
    1    1       -32.8523843664
    2    1        -1.1251828738
    4    1         0.1321601327
    5    1         0.0862199993
    6    1         0.1875816877
    7    1         0.1939920149
    1    2        -1.1251828738
    2    2        -7.7586983183
    4    2        -0.2543359396
    5    2        -0.1548441414
    6    2        -0.1662608714
    7    2        -0.0883690714
    3    3        -6.8733223215
    8    3         2.2307367744
    1    4         0.1321601327
    2    4        -0.2543359396
    4    4        -6.7333425961
    5    4        -0.1029917575
    6    4        -0.0860448648
    7    4        -2.0297702522
    1    5         0.0862199993
    2    5        -0.1548441414
    4    5        -0.1029917575
    5    5        -6.1789759500
    6    5        -2.0843938848
    7    5         0.0768686110
    1    6         0.1875816877
    2    6        -0.1662608714
    4    6        -0.0860448648
    5    6        -2.0843938848
    6    6        -5.8613527401
    7    6         0.0579678153
    1    7         0.1939920149
    2    7        -0.0883690714
    4    7        -2.0297702522
    5    7         0.0768686110
    6    7         0.0579678153
    7    7        -6.0409724613
    3    8         2.2307367744
    8    8        -5.2847224771
 end_one_electron_integrals
 begin_two_electron_integrals
    1    1    1    1        4.8283651112
    2    1    1    1       -0.1973148779
    2    1    2    1        0.0266508192
    3    1    3    1        0.0266365518
    4    1    1    1       -0.0882441607
    4    1    2    1        0.0017734863
    4    1    4    1        0.0207592417
    4    1    2    2       -0.0131157481
    4    1    3    3       -0.0024075751
    5    1    1    1       -0.0617601457
    5    1    2    1        0.0010327121
    5    1    4    1        0.0023460031
    5    1    5    1        0.0173500404
    5    1    2    2       -0.0095644463
    5    1    4    2       -0.0001881687
    5    1    3    3       -0.0015721783
    5    1    4    4       -0.0011945421
    6    1    1    1       -0.1430968495
    6    1    2    1        0.0062054958
    6    1    4    1        0.0043286401
    6    1    5    1        0.0260154133
    6    1    6    1        0.0400781350
    6    1    2    2       -0.0164325949
    6    1    4    2       -0.0011404888
    6    1    5    2        0.0218105309
    6    1    3    3       -0.0042254140
    6    1    4    4       -0.0041448300
    6    1    5    4        0.0040110298
    6    1    5    5        0.0083767070
    7    1    1    1       -0.1572798925
    7    1    2    1        0.0055692587
    7    1    4    1        0.0326301954
    7    1    5    1        0.0015874927
    7    1    6    1        0.0041506188
    7    1    7    1        0.0521516393
    7    1    2    2       -0.0201975918
    7    1    4    2        0.0262916478
    7    1    5    2       -0.0031427674
    7    1    6    2       -0.0054017887
    7    1    3    3       -0.0034328612
    7    1    4    4        0.0148989337
    7    1    5    4        0.0027690759
    7    1    6    4        0.0051125044
    7    1    5    5       -0.0038474567
    7    1    6    5       -0.0034390334
    7    1    6    6       -0.0070389142
    8    1    3    1       -0.0366355520
    8    1    8    1        0.0508445787
    8    1    3    2       -0.0352942131
    8    1    4    3       -0.0068836215
    8    1    5    3       -0.0052017679
    8    1    6    3       -0.0083043803
    8    1    7    3       -0.0088087096
    2    2    1    1        1.0700442432
    2    2    2    1        0.0122580010
    2    2    2    2        0.8374536001
    3    2    3    1        0.0230639848
    3    2    3    2        0.1339716350
    4    2    1    1       -0.0069065625
    4    2    2    1       -0.0034850270
    4    2    4    1        0.0153913108
    4    2    2    2       -0.0512741116
    4    2    4    2        0.0921810294
    4    2    3    3        0.0085174846
    5    2    1    1       -0.0096388729
    5    2    2    1       -0.0026631712
    5    2    4    1       -0.0002017393
    5    2    5    1        0.0137302761
    5    2    2    2       -0.0411921806
    5    2    4    2       -0.0103572496
    5    2    5    2        0.0857624521
    5    2    3    3        0.0034291864
    5    2    4    4       -0.0088279136
    6    2    1    1        0.0362205364
    6    2    2    1       -0.0026119119
    6    2    4    1       -0.0016974520
    6    2    5    1        0.0146761391
    6    2    6    1        0.0215725945
    6    2    2    2       -0.0118087091
    6    2    4    2       -0.0121864111
    6    2    5    2        0.0646089174
    6    2    6    2        0.0594814531
    6    2    3    3        0.0201735742
    6    2    4    4        0.0071114252
    6    2    5    4        0.0091230863
    6    2    5    5        0.0368750802
    7    2    1    1        0.0179666996
    7    2    2    1       -0.0036683798
    7    2    4    1        0.0156808454
    7    2    5    1       -0.0025629822
    7    2    6    1       -0.0045762929
    7    2    7    1        0.0246123639
    7    2    2    2       -0.0212964319
    7    2    4    2        0.0572028216
    7    2    5    2       -0.0152363457
    7    2    6    2       -0.0166789860
    7    2    7    2        0.0518340453
    7    2    3    3        0.0139970657
    7    2    4    4        0.0312228321
    7    2    5    4        0.0045772684
    7    2    6    4        0.0078781023
    7    2    5    5        0.0028974959
    7    2    6    5        0.0077281967
    7    2    6    6        0.0032591112
    8    2    3    1       -0.0196404575
    8    2    8    1        0.0258827025
    8    2    3    2       -0.0536403099
    8    2    8    2        0.0443570673
    8    2    4    3       -0.0066626841
    8    2    5    3       -0.0053173510
    8    2    6    3       -0.0119527039
    8    2    7    3       -0.0115015355
    3    3    1    1        1.0185069794
    3    3    2    1        0.0085456906
    3    3    2    2        0.7201212220
    3    3    3    3        0.7289864491
    4    3    3    1        0.0048003491
    4    3    3    2        0.0206600952
    4    3    4    3        0.0347183189
    5    3    3    1        0.0035618692
    5    3    3    2        0.0159861860
    5    3    4    3        0.0044564894
    5    3    5    3        0.0290735411
    6    3    3    1        0.0062472210
    6    3    3    2        0.0181357491
    6    3    4    3        0.0036824324
    6    3    5    3        0.0201573528
    6    3    6    3        0.0233937666
    7    3    3    1        0.0067100073
    7    3    3    2        0.0176803789
    7    3    4    3        0.0191595283
    7    3    5    3        0.0013063519
    7    3    6    3        0.0032809399
    7    3    7    3        0.0238154318
    8    3    1    1       -0.5346073905
    8    3    2    1       -0.0061952296
    8    3    4    1        0.0031954495
    8    3    5    1        0.0019167599
    8    3    6    1        0.0050058462
    8    3    7    1        0.0053320634
    8    3    2    2       -0.2218556976
    8    3    4    2        0.0015544900
    8    3    5    2        0.0007788875
    8    3    6    2       -0.0137786932
    8    3    7    2       -0.0084979779
    8    3    3    3       -0.2159450948
    8    3    8    3        0.1646495495
    8    3    4    4       -0.1587246665
    8    3    5    4       -0.0052596241
    8    3    6    4       -0.0056938957
    8    3    7    4       -0.1245939696
    8    3    5    5       -0.1397740636
    8    3    6    5       -0.1191083311
    8    3    7    5        0.0043572867
    8    3    6    6       -0.1669222125
    8    3    7    6        0.0038995730
    8    3    7    7       -0.1843904699
    4    4    1    1        0.9020666969
    4    4    2    1        0.0052619130
    4    4    4    1        0.0074085014
    4    4    2    2        0.6356415439
    4    4    4    2        0.0797296063
    4    4    3    3        0.6204787059
    4    4    4    4        0.7580944392
    5    4    1    1        0.0197824749
    5    4    2    1       -0.0008220823
    5    4    4    1        0.0022864664
    5    4    5    1        0.0029405122
    5    4    2    2       -0.0050275215
    5    4    4    2        0.0041113318
    5    4    5    2        0.0095252650
    5    4    3    3        0.0089644922
    5    4    4    4        0.0101409271
    5    4    5    4        0.0251782900
    6    4    1    1        0.0217413450
    6    4    2    1       -0.0016406583
    6    4    4    1        0.0039211252
    6    4    5    1        0.0030885688
    6    4    6    1        0.0043378992
    6    4    2    2       -0.0070031017
    6    4    4    2        0.0071805135
    6    4    5    2        0.0108189086
    6    4    6    2        0.0074773624
    6    4    3    3        0.0079481073
    6    4    4    4        0.0084788138
    6    4    5    4        0.0178564765
    6    4    6    4        0.0194167067
    6    4    5    5        0.0174682091
    7    4    1    1        0.4831969580
    7    4    2    1        0.0036998334
    7    4    4    1        0.0044733146
    7    4    5    1       -0.0017365812
    7    4    6    1       -0.0042972280
    7    4    7    1        0.0036314128
    7    4    2    2        0.2104441885
    7    4    4    2       -0.0110071200
    7    4    5    2        0.0043245575
    7    4    6    2        0.0129928371
    7    4    7    2        0.0198264562
    7    4    3    3        0.1833182324
    7    4    4    4        0.1146083363
    7    4    5    4        0.0090480269
    7    4    6    4        0.0125018582
    7    4    7    4        0.2060436462
    7    4    5    5        0.1418193256
    7    4    6    5        0.1051017363
    7    4    6    6        0.1664927567
    8    4    3    1       -0.0031045556
    8    4    8    1        0.0037346568
    8    4    3    2       -0.0027482896
    8    4    8    2        0.0038517449
    8    4    4    3       -0.0066590037
    8    4    5    3       -0.0011433406
    8    4    6    3       -0.0024098235
    8    4    7    3       -0.0166247477
    8    4    8    4        0.0151077556
    5    5    1    1        0.8181848307
    5    5    2    1        0.0051160004
    5    5    4    1       -0.0015480969
    5    5    5    1        0.0048849281
    5    5    2    2        0.5970456941
    5    5    4    2       -0.0020863615
    5    5    5    2        0.0600075656
    5    5    3    3        0.5734084914
    5    5    4    4        0.5343457530
    5    5    5    4        0.0134832198
    5    5    5    5        0.6561979751
    6    5    1    1        0.4618454292
    6    5    2    1        0.0042351634
    6    5    4    1       -0.0019665476
    6    5    5    1        0.0042033522
    6    5    6    1        0.0022340150
    6    5    2    2        0.2237138918
    6    5    4    2        0.0067112665
    6    5    5    2       -0.0105125711
    6    5    6    2        0.0189880789
    6    5    3    3        0.1958498143
    6    5    4    4        0.1772907787
    6    5    5    4        0.0086305508
    6    5    6    4        0.0027610819
    6    5    5    5        0.0954227733
    6    5    6    5        0.2123160906
    7    5    1    1       -0.0162633256
    7    5    2    1       -0.0018759246
    7    5    4    1        0.0025745169
    7    5    5    1        0.0038907345
    7    5    6    1        0.0054971761
    7    5    7    1        0.0034878139
    7    5    2    2       -0.0220649255
    7    5    4    2        0.0074168341
    7    5    5    2        0.0097431131
    7    5    6    2        0.0079993833
    7    5    7    2        0.0020582189
    7    5    3    3       -0.0071622792
    7    5    4    4        0.0043726071
    7    5    5    4        0.0125743839
    7    5    6    4        0.0154998223
    7    5    7    4       -0.0068892360
    7    5    5    5        0.0004185989
    7    5    6    5       -0.0043466068
    7    5    7    5        0.0165530520
    7    5    6    6        0.0016718206
    8    5    3    1       -0.0024093249
    8    5    8    1        0.0028650120
    8    5    3    2       -0.0015608025
    8    5    8    2        0.0034532667
    8    5    4    3       -0.0010294091
    8    5    5    3       -0.0052557824
    8    5    6    3       -0.0140227183
    8    5    7    3       -0.0009680434
    8    5    8    4        0.0011315464
    8    5    8    5        0.0141413455
    6    6    1    1        0.9499272691
    6    6    2    1        0.0049536701
    6    6    4    1       -0.0031052632
    6    6    5    1        0.0071058232
    6    6    6    1        0.0102562617
    6    6    2    2        0.5991217128
    6    6    4    2       -0.0043711780
    6    6    5    2        0.0602976376
    6    6    6    2        0.0426139896
    6    6    3    3        0.5792686545
    6    6    4    4        0.5320008670
    6    6    5    4        0.0129133382
    6    6    6    4        0.0203437156
    6    6    5    5        0.6610776817
    6    6    6    5        0.0920344752
    6    6    6    6        0.7101824158
    7    6    1    1       -0.0133913536
    7    6    2    1       -0.0029386231
    7    6    4    1        0.0051835007
    7    6    5    1        0.0047396527
    7    6    6    1        0.0064470129
    7    6    7    1        0.0073971801
    7    6    2    2       -0.0285751895
    7    6    4    2        0.0166552972
    7    6    5    2        0.0105821854
    7    6    6    2        0.0095964075
    7    6    7    2        0.0091258377
    7    6    3    3       -0.0040557204
    7    6    4    4        0.0141347202
    7    6    5    4        0.0201368365
    7    6    6    4        0.0188646814
    7    6    7    4       -0.0067836868
    7    6    5    5       -0.0022168728
    7    6    6    5        0.0027386585
    7    6    7    5        0.0180503256
    7    6    6    6       -0.0043316030
    7    6    7    6        0.0259362995
    8    6    3    1       -0.0061800253
    8    6    8    1        0.0088429610
    8    6    3    2       -0.0231890685
    8    6    8    2        0.0089735461
    8    6    4    3       -0.0055366043
    8    6    5    3       -0.0215907729
    8    6    6    3       -0.0174665971
    8    6    7    3       -0.0024929083
    8    6    8    4        0.0009195590
    8    6    8    5        0.0069046375
    8    6    8    6        0.0232022545
    7    7    1    1        1.0588073146
    7    7    2    1        0.0044782666
    7    7    4    1        0.0074363843
    7    7    5    1       -0.0032192091
    7    7    6    1       -0.0083922810
    7    7    7    1        0.0140984405
    7    7    2    2        0.6327462596
    7    7    4    2        0.0709614585
    7    7    5    2       -0.0110565948
    7    7    6    2        0.0078407306
    7    7    7    2        0.0307633288
    7    7    3    3        0.6202961162
    7    7    4    4        0.7379823319
    7    7    5    4        0.0068436167
    7    7    6    4        0.0057326018
    7    7    7    4        0.1224360428
    7    7    5    5        0.5266324079
    7    7    6    5        0.1934164229
    7    7    7    5        0.0020360163
    7    7    6    6        0.5401901926
    7    7    7    6        0.0109440749
    7    7    7    7        0.7743841448
    8    7    3    1       -0.0067067129
    8    7    8    1        0.0094326738
    8    7    3    2       -0.0233561616
    8    7    8    2        0.0087817730
    8    7    4    3       -0.0267096604
    8    7    5    3       -0.0031064659
    8    7    6    3       -0.0027153415
    8    7    7    3       -0.0173046550
    8    7    8    4        0.0073702562
    8    7    8    5        0.0001151848
    8    7    8    6        0.0050212305
    8    7    8    7        0.0279427797
    8    8    1    1        0.9957274682
    8    8    2    1        0.0057098933
    8    8    4    1       -0.0043287742
    8    8    5    1       -0.0026872004
    8    8    6    1       -0.0064933529
    8    8    7    1       -0.0066418097
    8    8    2    2        0.6135927456
    8    8    4    2        0.0042542797
    8    8    5    2        0.0017026020
    8    8    6    2        0.0152449437
    8    8    7    2        0.0088552717
    8    8    3    3        0.6213228473
    8    8    8    3       -0.1831898931
    8    8    4    4        0.5405433194
    8    8    5    4        0.0069233267
    8    8    6    4        0.0063833801
    8    8    7    4        0.1522273514
    8    8    5    5        0.5041072591
    8    8    6    5        0.1594795506
    8    8    7    5       -0.0058181070
    8    8    6    6        0.5205412030
    8    8    7    6       -0.0036948314
    8    8    7    7        0.5576613866
    8    8    8    8        0.5679006880
 end_two_electron_integrals
 enrep_tce =    8.0184221260131636     
  EHF(A)             =       -75.99111460
  EHF(total)         =       -75.99111460
  Shift (HFtot-HFA)  =         0.00000000
 Cpu & wall time / sec            0.3            0.3
 T1-number-of-tasks                   15

 t1 file size   =               15
 t1 file name   = ./H2O.t1
 t1 file handle =       -998
 T2-number-of-boxes                  315

 t2 file size   =              315
 t2 file name   = ./H2O.t2
 t2 file handle =       -996
CCSD iterations
 ---------------------------------------------------------
 Iter          Residuum       Correlation     Cpu    Wall 
 ---------------------------------------------------------
NEW TASK SCHEDULING
CCSD_T1_NTS --- OK
CCSD_T2_NTS --- OK
    1   0.6514739670409  -0.2406491809921     2.0     2.9
    2   0.9471325322266   0.0724229227820     2.1     2.9
    3   1.3935445245400  -0.3780619376177     2.2     2.9
    4   2.0907597181526   0.2743874514732     2.2     2.9
    5   3.0773029923850  -0.7026192165395     2.2     2.9
 MICROCYCLE DIIS UPDATE:                    5                    5
    6   0.0135801614337  -0.1114408857947     2.2     2.9
    7   0.0144874968090  -0.1075218149369     2.2     2.9
    8   0.0201615834485  -0.1128139839882     2.2     2.9
    9   0.0300605373737  -0.1053510543729     2.2     2.9
   10   0.0466054925801  -0.1158904906355     2.1     2.9
 MICROCYCLE DIIS UPDATE:                   10                    5
   11   0.0002123717770  -0.1097560179232     2.1     2.9
   12   0.0002082541023  -0.1097987573376     2.1     2.9
   13   0.0002987596388  -0.1097383874930     2.1     2.9
   14   0.0004601047379  -0.1098314419403     2.1     2.9
   15   0.0007275833991  -0.1096885272456     2.2     2.9
 MICROCYCLE DIIS UPDATE:                   15                    5
   16   0.0000083680921  -0.1097757746332     2.2     2.9
   17   0.0000082031202  -0.1097740018808     2.1     2.9
   18   0.0000123258635  -0.1097767998825     2.1     2.9
   19   0.0000193790885  -0.1097726943882     2.1     2.9
   20   0.0000309957461  -0.1097787411823     2.1     2.9
 MICROCYCLE DIIS UPDATE:                   20                    5
   21   0.0000001670041  -0.1097751308565     2.1     2.9
   22   0.0000001415336  -0.1097751562152     2.1     2.9
   23   0.0000002062127  -0.1097751133597     2.1     2.9
   24   0.0000003195121  -0.1097751802708     2.2     2.9
   25   0.0000005073003  -0.1097750786369     2.2     2.9
 MICROCYCLE DIIS UPDATE:                   25                    5
   26   0.0000000071798  -0.1097751405650     2.1     2.9
 -----------------------------------------------------------------
 Iterations converged
 CCSD correlation energy / hartree =        -0.109775140564976
 CCSD total energy / hartree       =       -76.100889741319889

 Singles contributions

 Doubles contributions
     6a   (alpha)     7a   (alpha) ---     4a   (alpha)     5a   (alpha)        0.0231617450
     6a   (alpha)     8a   (alpha) ---     3a   (alpha)     5a   (alpha)       -0.0321303873
     6a   (alpha)     6a   (beta ) ---     5a   (alpha)     5a   (beta )       -0.1397802580
     6a   (alpha)     7a   (beta ) ---     5a   (alpha)     4a   (beta )       -0.0370017237
     6a   (alpha)     8a   (beta ) ---     5a   (alpha)     3a   (beta )        0.0447405591
     7a   (alpha)     8a   (alpha) ---     3a   (alpha)     4a   (alpha)       -0.0309439912
     7a   (alpha)     6a   (beta ) ---     4a   (alpha)     5a   (beta )       -0.0370017237
     7a   (alpha)     7a   (beta ) ---     4a   (alpha)     4a   (beta )       -0.0861282498
     7a   (alpha)     8a   (beta ) ---     4a   (alpha)     3a   (beta )        0.0418975908
     8a   (alpha)     6a   (beta ) ---     3a   (alpha)     5a   (beta )        0.0447405591
     8a   (alpha)     7a   (beta ) ---     3a   (alpha)     4a   (beta )        0.0418975908
     8a   (alpha)     8a   (beta ) ---     3a   (alpha)     3a   (beta )       -0.0624029326
 Ground state specification:
 exp(T)|Ref>~(1+T)|Ref>
 ------- a(p)+/a(q) strings ----------

 singles norm

 doubles norm

 Reference string
  0.99037160566609261      :(1a)+ (2a)+ (3a)+ (4a)+ (5a)+ (1b)+ (2b)+ (3b)+ (4b)+ (5b)+ |0>

 Singles strings

 Doubles strings
 -0.13843439850833911      :(6a)+ (6b)+ (5b)  (5a)  (1a)+ (2a)+ (3a)+ (4a)+ (5a)+ (1b)+ (2b)+ (3b)+ (4b)+ (5b)+ |0>
 -------------------------------------

 Parallel integral file used       3 records with       0 large values


 Task  times  cpu:       56.1s     wall:       76.8s


                                NWChem Input Module
                                -------------------


 Summary of allocated global arrays
-----------------------------------
  No active global arrays


MA_summarize_allocated_blocks: starting scan ...
MA_summarize_allocated_blocks: scan completed: 0 heap blocks, 0 stack blocks
MA usage statistics:

	allocation statistics:
					      heap	     stack
					      ----	     -----
	current number of blocks	         0	         0
	maximum number of blocks	        18	        42
	current total bytes		         0	         0
	maximum total bytes		   5323032	  24073272
	maximum total K-bytes		      5324	     24074
	maximum total M-bytes		         6	        25


                                     CITATION
                                     --------
                Please cite the following reference when publishing
                           results obtained with NWChem:

          E. Apra, E. J. Bylaska, W. A. de Jong, N. Govind, K. Kowalski,
       T. P. Straatsma, M. Valiev, H. J. J. van Dam, Y. Alexeev, J. Anchell,
       V. Anisimov, F. W. Aquino, R. Atta-Fynn, J. Autschbach, N. P. Bauman,
     J. C. Becca, D. E. Bernholdt, K. Bhaskaran-Nair, S. Bogatko, P. Borowski,
         J. Boschen, J. Brabec, A. Bruner, E. Cauet, Y. Chen, G. N. Chuev,
      C. J. Cramer, J. Daily, M. J. O. Deegan, T. H. Dunning Jr., M. Dupuis,
   K. G. Dyall, G. I. Fann, S. A. Fischer, A. Fonari, H. Fruchtl, L. Gagliardi,
      J. Garza, N. Gawande, S. Ghosh, K. Glaesemann, A. W. Gotz, J. Hammond,
       V. Helms, E. D. Hermes, K. Hirao, S. Hirata, M. Jacquelin, L. Jensen,
   B. G. Johnson, H. Jonsson, R. A. Kendall, M. Klemm, R. Kobayashi, V. Konkov,
      S. Krishnamoorthy, M. Krishnan, Z. Lin, R. D. Lins, R. J. Littlefield,
      A. J. Logsdail, K. Lopata, W. Ma, A. V. Marenich, J. Martin del Campo,
   D. Mejia-Rodriguez, J. E. Moore, J. M. Mullin, T. Nakajima, D. R. Nascimento,
    J. A. Nichols, P. J. Nichols, J. Nieplocha, A. Otero-de-la-Roza, B. Palmer,
    A. Panyala, T. Pirojsirikul, B. Peng, R. Peverati, J. Pittner, L. Pollack,
   R. M. Richard, P. Sadayappan, G. C. Schatz, W. A. Shelton, D. W. Silverstein,
   D. M. A. Smith, T. A. Soares, D. Song, M. Swart, H. L. Taylor, G. S. Thomas,
            V. Tipparaju, D. G. Truhlar, K. Tsemekhman, T. Van Voorhis,
      A. Vazquez-Mayagoitia, P. Verma, O. Villa, A. Vishnu, K. D. Vogiatzis,
        D. Wang, J. H. Weare, M. J. Williamson, T. L. Windus, K. Wolinski,
        A. T. Wong, Q. Wu, C. Yang, Q. Yu, M. Zacharias, Z. Zhang, Y. Zhao,
                                and R. J. Harrison
                        "NWChem: Past, present, and future
                         J. Chem. Phys. 152, 184102 (2020)
                               doi:10.1063/5.0004997

                                      AUTHORS
                                      -------
  E. Apra, E. J. Bylaska, N. Govind, K. Kowalski, M. Valiev, D. Mejia-Rodriguez,
       A. Kunitsa, N. P. Bauman, A. Panyala, W. A. de Jong, T. P. Straatsma,
        H. J. J. van Dam, D. Wang, T. L. Windus, J. Hammond, J. Autschbach,
    K. Bhaskaran-Nair, J. Brabec, K. Lopata, S. A. Fischer, S. Krishnamoorthy,
     M. Jacquelin, W. Ma, M. Klemm, O. Villa, Y. Chen, V. Anisimov, F. Aquino,
    S. Hirata, M. T. Hackler, Eric Hermes, L. Jensen, J. E. Moore, J. C. Becca,
      V. Konjkov, T. Risthaus, M. Malagoli, A. Marenich, A. Otero-de-la-Roza,
        J. Mullin, P. Nichols, R. Peverati, J. Pittner, Y. Zhao, P.-D. Fan,
        A. Fonari, M. J. Williamson, R. J. Harrison, J. R. Rehr, M. Dupuis,
     D. Silverstein, D. M. A. Smith, J. Nieplocha, V. Tipparaju, M. Krishnan,
     B. E. Van Kuiken, A. Vazquez-Mayagoitia, M. Swart, Q. Wu, T. Van Voorhis,
     A. A. Auer, M. Nooijen, L. D. Crosby, E. Brown, G. Cisneros, G. I. Fann,
   H. Fruchtl, J. Garza, K. Hirao, R. A. Kendall, J. A. Nichols, K. Tsemekhman,
    K. Wolinski, J. Anchell, D. E. Bernholdt, P. Borowski, T. Clark, D. Clerc,
   H. Dachsel, M. J. O. Deegan, K. Dyall, D. Elwood, E. Glendening, M. Gutowski,
   A. C. Hess, J. Jaffe, B. G. Johnson, J. Ju, R. Kobayashi, R. Kutteh, Z. Lin,
   R. Littlefield, X. Long, B. Meng, T. Nakajima, S. Niu, L. Pollack, M. Rosing,
   K. Glaesemann, G. Sandrone, M. Stave, H. Taylor, G. Thomas, J. H. van Lenthe,
                               A. T. Wong, Z. Zhang.

 Total times  cpu:       58.7s     wall:       81.5s
