 argument  1 = input.nw
  NWChem w/ OpenMP: maximum threads =    1



============================== echo of input deck ==============================
 echo
 start H2O
 title "H2O"

 memory total 24 gb

 geometry units bohr
 symmetry c1
        O  0.00000000  0.00000000  0.00000000
        H  0.00000000  2.543961  0.00000000
        H  1.72558000 -0.64860000  0.00000000
 end

 basis spherical
   * library 6-311++G**
 end

 mcscf
   active  8
   actelec 10
   multiplicity 1
   maxiter 40
   vectors input h2o.mos
   vectors output h2o.mos
 end

 task mcscf

 scf
   vectors input h2o.mos
   vectors output h2o-trash.mos
   noscf
 end

 tce
   2eorb
   2emet 13
   ccsd
   maxiter 300
 end

 set tce:print_integrals T
 set tce:qorb 8
 set tce:qela 5
 set tce:qelb 5

# set tce:qducc T
# set tce:nactv 3
# set tce:nonhf T
# set tce:ducc_model 6

 set tce:printtol 0.02

 task tce
================================================================================


                                         
                                         


             Northwest Computational Chemistry Package (NWChem) 7.0.1
             --------------------------------------------------------


                    Environmental Molecular Sciences Laboratory
                       Pacific Northwest National Laboratory
                                Richland, WA 99352

                              Copyright (c) 1994-2020
                       Pacific Northwest National Laboratory
                            Battelle Memorial Institute

             NWChem is an open-source computational chemistry package
                        distributed under the terms of the
                      Educational Community License (ECL) 2.0
             A copy of the license is included with this distribution
                              in the LICENSE.TXT file

                                  ACKNOWLEDGMENT
                                  --------------

            This software and its documentation were developed at the
            EMSL at Pacific Northwest National Laboratory, a multiprogram
            national laboratory, operated for the U.S. Department of Energy
            by Battelle under Contract Number DE-AC05-76RL01830. Support
            for this work was provided by the Department of Energy Office
            of Biological and Environmental Research, Office of Basic
            Energy Sciences, and the Office of Advanced Scientific Computing.


           Job information
           ---------------

    hostname        = WE46210
    program         = /home/baum612/code/nwchem/bin/LINUX64/nwchem
    date            = Wed Sep  4 16:00:39 2024

    compiled        = Wed_Sep_04_02:00:17_2024
    source          = /home/baum612/code/nwchem
    nwchem branch   = 7.0.0
    nwchem revision = nwchem_on_git-4191-g39d87d64de
    ga revision     = 5.8.1
    use scalapack   = F
    input           = input.nw
    prefix          = H2O.
    data base       = ./H2O.db
    status          = startup
    nproc           =        1
    time left       =     -1s



           Memory information
           ------------------

    heap     =  805306366 doubles =   6144.0 Mbytes
    stack    =  805306363 doubles =   6144.0 Mbytes
    global   = 1610612736 doubles =  12288.0 Mbytes (distinct from heap & stack)
    total    = 3221225465 doubles =  24576.0 Mbytes
    verify   = yes
    hardfail = no 


           Directory information
           ---------------------

  0 permanent = .
  0 scratch   = .




                                NWChem Input Module
                                -------------------


                                        H2O
                                        ---
 Turning off AUTOSYM since
 SYMMETRY directive was detected!


          ------
          auto-z
          ------
  autoz: The atoms group into disjoint clusters
 cluster   1:    1    3
 cluster   2:    2
 Connecting clusters   1   2 via atoms    1    2 r = 1.35
  autoz: regenerating connections with new bonds
  no constraints, skipping    0.0000000000000000     
  no constraints, skipping    0.0000000000000000     


                             Geometry "geometry" -> ""
                             -------------------------

 Output coordinates in a.u. (scale by  1.000000000 to convert to a.u.)

  No.       Tag          Charge          X              Y              Z
 ---- ---------------- ---------- -------------- -------------- --------------
    1 O                    8.0000    -0.17255800    -0.18953610     0.00000000
    2 H                    1.0000    -0.17255800     2.35442490     0.00000000
    3 H                    1.0000     1.55302200    -0.83813610     0.00000000

      Atomic Mass 
      ----------- 

      O                 15.994910
      H                  1.007825


 Effective nuclear repulsion energy (a.u.)       7.7599447104

            Nuclear Dipole moment (a.u.) 
            ----------------------------
        X                 Y               Z
 ---------------- ---------------- ----------------
    -0.0000000000    -0.0000000000     0.0000000000



                                Z-matrix (autoz)
                                -------- 

 Units are Angstrom for bonds and degrees for angles

      Type          Name      I     J     K     L     M      Value
      ----------- --------  ----- ----- ----- ----- ----- ----------
    1 Stretch                  1     2                       1.34621
    2 Stretch                  1     3                       0.97551
    3 Bend                     2     1     3               110.59992


            XYZ format geometry
            -------------------
     3
 geometry
 O                    -0.09131377    -0.10029819     0.00000000
 H                    -0.09131377     1.24590809     0.00000000
 H                     0.82182391    -0.44352256     0.00000000

 ==============================================================================
                                internuclear distances
 ------------------------------------------------------------------------------
       center one      |      center two      | atomic units |       a.u.
 ------------------------------------------------------------------------------
    3 H                |   1 O                |     1.84345  |     1.84345
 ------------------------------------------------------------------------------
                         number of included internuclear distances:          1
 ==============================================================================





 Summary of "ao basis" -> "" (spherical)
 ------------------------------------------------------------------------------
       Tag                 Description            Shells   Functions and Types
 ---------------- ------------------------------  ------  ---------------------
 *                         6-311++G**                 on all atoms 


                      Basis "ao basis" -> "ao basis" (spherical)
                      -----
  O (Oxygen)
  ----------
            Exponent  Coefficients 
       -------------- ---------------------------------------------------------
  1 S  8.58850000E+03  0.001895
  1 S  1.29723000E+03  0.014386
  1 S  2.99296000E+02  0.070732
  1 S  8.73771000E+01  0.240001
  1 S  2.56789000E+01  0.594797
  1 S  3.74004000E+00  0.280802

  2 S  4.21175000E+01  0.113889
  2 S  9.62837000E+00  0.920811
  2 S  2.85332000E+00 -0.003274

  3 P  4.21175000E+01  0.036511
  3 P  9.62837000E+00  0.237153
  3 P  2.85332000E+00  0.819702

  4 S  9.05661000E-01  1.000000

  5 P  9.05661000E-01  1.000000

  6 S  2.55611000E-01  1.000000

  7 P  2.55611000E-01  1.000000

  8 S  8.45000000E-02  1.000000

  9 P  8.45000000E-02  1.000000

 10 D  1.29200000E+00  1.000000

  H (Hydrogen)
  ------------
            Exponent  Coefficients 
       -------------- ---------------------------------------------------------
  1 S  3.38650000E+01  0.025494
  1 S  5.09479000E+00  0.190373
  1 S  1.15879000E+00  0.852161

  2 S  3.25840000E-01  1.000000

  3 S  1.02741000E-01  1.000000

  4 S  3.60000000E-02  1.000000

  5 P  7.50000000E-01  1.000000



 Summary of "ao basis" -> "ao basis" (spherical)
 ------------------------------------------------------------------------------
       Tag                 Description            Shells   Functions and Types
 ---------------- ------------------------------  ------  ---------------------
 O                         6-311++G**               10       22   5s4p1d
 H                         6-311++G**                5        7   4s1p



                            NWChem Direct MCSCF Module
                            --------------------------


                                        H2O


     -----------------------------------
       Basis functions:             36
       Inactive shells:              0
       Active shells:                8
       Active electrons:            10
       Symmetry:                    a       
       Multiplicity:                 1
       Orbital rotations:          224
     -----------------------------------

     -----------------------------------
       E2 extrapolation:             F
       Conjugacy:                    T
       Micro CI relax:               T
       Canonical orbitals:           T
       Maximum iterations:          40
       Converge threshold:    1.00E-04
       Conjugacy resets:            20
       Initial levelshift:        0.10
     -----------------------------------

 Loading old vectors from job with title :

H2O


   input molecular orbitals = ./h2o.mos
  output molecular orbtials = ./h2o.mos

       No. of determinants:          3136


  Starting Orbital Energies
   -20.585212    -1.306460    -0.680984    -0.554255    -0.525750    -0.046566
    -0.026304    -0.016474     0.075060     0.086954     0.236804     0.280900
     0.319612     0.482819     0.500052     0.656731     1.030241     1.188086
     1.477127     1.569403     1.599630     1.690626     1.693266     2.008716
     2.281139     2.736439     2.820263     3.239223     3.471577     3.492671
     3.823215     4.180130     5.343646     5.538667     5.961823    51.506193

  Orbital Symmetry Irreps
a    a    a    a    a    a    a    a    a    a    a    a    a    a    a   
a    a    a    a    a    a    a    a    a    a    a    a    a    a    a   
a    a    a    a    a    a   

 Integral file          = ./H2O.aoints.0
 Record size in doubles =  65536        No. of integs per rec  =  43688
 Max. records in memory =     10        Max. records in file   = 232555
 No. of bits per label  =      8        No. of bits per value  =     64


 #quartets = 2.216D+04 #integrals = 1.003D+05 #direct =  0.0% #cached =100.0%




          %%%%% MacroIteration   1 %%%%%


          Number of sigma calls:       17
                       o<<<<< (aa):             0.00
                       o<<<<< (bb):             0.00
                       o<<<<< (ab):             0.06
                       o<<<<< (total)           0.07
                       o<<<<< (aa) ff           0.00
                       o<<<<< (aa) gop          0.00
                       o<<<<< (aa) dot          0.00
                       o<<<<< (ab) str          0.00
                       o<<<<< (ab) gath         0.00
                       o<<<<< (ab) dotab        0.00
                       o<<<<< (ab) scat         0.00
                       o<<<<< (ab) sync         0.00
                       o<<<<< Density           0.01
                       o<<<<< Density one       0.00
                       o<<<<< Density two       0.00
                       o<<<<< Density ab        0.01
                       o<<<<< Spin adapt        0.31
                       o<<<<< Symm adapt        0.00

                       o<<<<< (ab) max sync:      0.00

           >>>| Valence CI:            -83.840116337237
           >>>| MCSCF energy:          -76.080171626831
           >>>| Gradient norm:          0.127619645D-01

                              ----- Line search ------

        step       energy         lsg     num-lsg   num-lsh   lsrat    time
      ------- ---------------- --------- --------- --------- ------- --------
       0.0000     -76.08017163 -2.04D-05  0.00D+00  0.00D+00 0.0D+00      0.7

          Number of sigma calls:       15
                       o<<<<< (aa):             0.00
                       o<<<<< (bb):             0.00
                       o<<<<< (ab):             0.06
                       o<<<<< (total)           0.07
                       o<<<<< (aa) ff           0.00
                       o<<<<< (aa) gop          0.00
                       o<<<<< (aa) dot          0.00
                       o<<<<< (ab) str          0.00
                       o<<<<< (ab) gath         0.00
                       o<<<<< (ab) dotab        0.00
                       o<<<<< (ab) scat         0.00
                       o<<<<< (ab) sync         0.00
                       o<<<<< Density           0.01
                       o<<<<< Density one       0.00
                       o<<<<< Density two       0.00
                       o<<<<< Density ab        0.01
                       o<<<<< Spin adapt        0.26
                       o<<<<< Symm adapt        0.00

                       o<<<<< (ab) max sync:      0.00
       1.0000     -76.08018259 -1.54D-06 -1.54D-06  1.89D-05 7.5D-02      1.1
     --- Orbitals canonicalized ---



          %%%%% MacroIteration   2 %%%%%


          Number of sigma calls:       14
                       o<<<<< (aa):             0.00
                       o<<<<< (bb):             0.00
                       o<<<<< (ab):             0.05
                       o<<<<< (total)           0.06
                       o<<<<< (aa) ff           0.00
                       o<<<<< (aa) gop          0.00
                       o<<<<< (aa) dot          0.00
                       o<<<<< (ab) str          0.00
                       o<<<<< (ab) gath         0.00
                       o<<<<< (ab) dotab        0.00
                       o<<<<< (ab) scat         0.00
                       o<<<<< (ab) sync         0.00
                       o<<<<< Density           0.01
                       o<<<<< Density one       0.00
                       o<<<<< Density two       0.00
                       o<<<<< Density ab        0.01
                       o<<<<< Spin adapt        0.24
                       o<<<<< Symm adapt        0.00

                       o<<<<< (ab) max sync:      0.00

           >>>| Valence CI:            -83.840127303126
           >>>| MCSCF energy:          -76.080182592720
           >>>| Gradient norm:          0.121104942D-02
     --- Warning:    3 Hessian diagonals < 0.05 ---
     --- Conjugacy reset ---

                              ----- Line search ------

        step       energy         lsg     num-lsg   num-lsh   lsrat    time
      ------- ---------------- --------- --------- --------- ------- --------
       0.0000     -76.08018259 -5.42D-07  0.00D+00  0.00D+00 0.0D+00      1.4

          Number of sigma calls:       12
                       o<<<<< (aa):             0.00
                       o<<<<< (bb):             0.00
                       o<<<<< (ab):             0.04
                       o<<<<< (total)           0.05
                       o<<<<< (aa) ff           0.00
                       o<<<<< (aa) gop          0.00
                       o<<<<< (aa) dot          0.00
                       o<<<<< (ab) str          0.00
                       o<<<<< (ab) gath         0.00
                       o<<<<< (ab) dotab        0.00
                       o<<<<< (ab) scat         0.00
                       o<<<<< (ab) sync         0.00
                       o<<<<< Density           0.01
                       o<<<<< Density one       0.00
                       o<<<<< Density two       0.00
                       o<<<<< Density ab        0.01
                       o<<<<< Spin adapt        0.23
                       o<<<<< Symm adapt        0.00

                       o<<<<< (ab) max sync:      0.00
       1.0000     -76.08018297 -2.07D-07 -2.07D-07  3.35D-07 3.8D-01      1.8

          Number of sigma calls:       12
                       o<<<<< (aa):             0.00
                       o<<<<< (bb):             0.00
                       o<<<<< (ab):             0.05
                       o<<<<< (total)           0.05
                       o<<<<< (aa) ff           0.00
                       o<<<<< (aa) gop          0.00
                       o<<<<< (aa) dot          0.00
                       o<<<<< (ab) str          0.00
                       o<<<<< (ab) gath         0.00
                       o<<<<< (ab) dotab        0.00
                       o<<<<< (ab) scat         0.00
                       o<<<<< (ab) sync         0.00
                       o<<<<< Density           0.01
                       o<<<<< Density one       0.00
                       o<<<<< Density two       0.00
                       o<<<<< Density ab        0.01
                       o<<<<< Spin adapt        0.25
                       o<<<<< Symm adapt        0.00

                       o<<<<< (ab) max sync:      0.00
       1.6160     -76.08018303  5.67D-10  5.34D-10  3.36D-07 1.0D-03      2.1



          %%%%% MacroIteration   3 %%%%%


          Number of sigma calls:        1
                       o<<<<< (aa):             0.00
                       o<<<<< (bb):             0.00
                       o<<<<< (ab):             0.00
                       o<<<<< (total)           0.00
                       o<<<<< (aa) ff           0.00
                       o<<<<< (aa) gop          0.00
                       o<<<<< (aa) dot          0.00
                       o<<<<< (ab) str          0.00
                       o<<<<< (ab) gath         0.00
                       o<<<<< (ab) dotab        0.00
                       o<<<<< (ab) scat         0.00
                       o<<<<< (ab) sync         0.00
                       o<<<<< Density           0.01
                       o<<<<< Density one       0.00
                       o<<<<< Density two       0.00
                       o<<<<< Density ab        0.01
                       o<<<<< Spin adapt        0.00
                       o<<<<< Symm adapt        0.00

                       o<<<<< (ab) max sync:      0.00

           >>>| Valence CI:            -83.840127740902
           >>>| MCSCF energy:          -76.080183030495
           >>>| Gradient norm:          0.186609505D-03
     --- Warning:    3 Hessian diagonals < 0.05 ---

                              ----- Line search ------

        step       energy         lsg     num-lsg   num-lsh   lsrat    time
      ------- ---------------- --------- --------- --------- ------- --------
       0.0000     -76.08018303 -1.08D-08  0.00D+00  0.00D+00 0.0D+00      2.2

          Number of sigma calls:       10
                       o<<<<< (aa):             0.00
                       o<<<<< (bb):             0.00
                       o<<<<< (ab):             0.05
                       o<<<<< (total)           0.05
                       o<<<<< (aa) ff           0.00
                       o<<<<< (aa) gop          0.00
                       o<<<<< (aa) dot          0.00
                       o<<<<< (ab) str          0.00
                       o<<<<< (ab) gath         0.00
                       o<<<<< (ab) dotab        0.00
                       o<<<<< (ab) scat         0.00
                       o<<<<< (ab) sync         0.00
                       o<<<<< Density           0.00
                       o<<<<< Density one       0.00
                       o<<<<< Density two       0.00
                       o<<<<< Density ab        0.00
                       o<<<<< Spin adapt        0.19
                       o<<<<< Symm adapt        0.00

                       o<<<<< (ab) max sync:      0.00
       1.0000     -76.08018304 -1.68D-09 -1.68D-09  9.08D-09 1.6D-01      2.5

          Number of sigma calls:        8
                       o<<<<< (aa):             0.00
                       o<<<<< (bb):             0.00
                       o<<<<< (ab):             0.03
                       o<<<<< (total)           0.03
                       o<<<<< (aa) ff           0.00
                       o<<<<< (aa) gop          0.00
                       o<<<<< (aa) dot          0.00
                       o<<<<< (ab) str          0.00
                       o<<<<< (ab) gath         0.00
                       o<<<<< (ab) dotab        0.00
                       o<<<<< (ab) scat         0.00
                       o<<<<< (ab) sync         0.00
                       o<<<<< Density           0.01
                       o<<<<< Density one       0.00
                       o<<<<< Density two       0.00
                       o<<<<< Density ab        0.01
                       o<<<<< Spin adapt        0.18
                       o<<<<< Symm adapt        0.00

                       o<<<<< (ab) max sync:      0.00
       1.1851     -76.08018304  4.52D-14 -9.77D-13  9.08D-09 4.2D-06      2.8



          %%%%% MacroIteration   4 %%%%%


          Number of sigma calls:        1
                       o<<<<< (aa):             0.00
                       o<<<<< (bb):             0.00
                       o<<<<< (ab):             0.00
                       o<<<<< (total)           0.00
                       o<<<<< (aa) ff           0.00
                       o<<<<< (aa) gop          0.00
                       o<<<<< (aa) dot          0.00
                       o<<<<< (ab) str          0.00
                       o<<<<< (ab) gath         0.00
                       o<<<<< (ab) dotab        0.00
                       o<<<<< (ab) scat         0.00
                       o<<<<< (ab) sync         0.00
                       o<<<<< Density           0.01
                       o<<<<< Density one       0.00
                       o<<<<< Density two       0.00
                       o<<<<< Density ab        0.01
                       o<<<<< Spin adapt        0.00
                       o<<<<< Symm adapt        0.00

                       o<<<<< (ab) max sync:      0.00

           >>>| Valence CI:            -83.840127747276
           >>>| MCSCF energy:          -76.080183036869
           >>>| Gradient norm:          0.322751441D-04




     ==============================
            MCSCF Converged
     ==============================



          Canonical Eigenvalues

              1      
    1  -20.5858
    2   -1.3060
    3   -0.6800
    4   -0.5529
    5   -0.5258
    6   -0.0473
    7   -0.0263
    8   -0.0164
    9    0.0752
   10    0.0869
   11    0.2368
   12    0.2810
   13    0.3197
   14    0.4831
   15    0.4999
   16    0.6573
   17    1.0310
   18    1.1919
   19    1.4777
   20    1.5705
   21    1.5947
   22    1.6893
   23    1.6898
   24    2.0086
   25    2.2805
   26    2.7335
   27    2.8192
   28    3.2360
   29    3.4687
   30    3.4925
   31    3.8122
   32    4.1802
   33    5.3440
   34    5.5348
   35    5.9609
   36   51.5059


          Converged CI vector

   Index           Coefficient          Config. Occupation
         1         -0.95955874          1  2  3  4  5  1  2  3  4  5
        22         -0.07835023          1  2  3  4  5  1  2  3  4  8
         3          0.06470399          1  2  3  4  5  1  2  3  5  6
         8         -0.02211698          1  2  3  4  5  1  2  3  5  7
        27          0.02218135          1  2  3  4  5  1  2  3  6  8
         4         -0.02670236          1  2  3  4  5  1  2  4  5  6
         9         -0.04306075          1  2  3  4  5  1  2  4  5  7
        38         -0.02340907          1  2  3  4  5  1  2  4  7  8
      1177         -0.07835023          1  2  3  4  8  1  2  3  4  5
      1198          0.05524688          1  2  3  4  8  1  2  3  4  8
      1179         -0.03118019          1  2  3  4  8  1  2  3  5  6
      1185          0.03105243          1  2  3  4  8  1  2  4  5  7
       113          0.06470399          1  2  3  5  6  1  2  3  4  5
       134         -0.03118019          1  2  3  5  6  1  2  3  4  8
       115          0.11865627          1  2  3  5  6  1  2  3  5  6
       116         -0.06087704          1  2  3  5  6  1  2  4  5  6
       121         -0.02153875          1  2  3  5  6  1  2  4  5  7
       117          0.02264253          1  2  3  5  6  1  3  4  5  6
       393         -0.02211698          1  2  3  5  7  1  2  3  4  5
       401          0.02190407          1  2  3  5  7  1  2  4  5  7
      1457          0.02218135          1  2  3  6  8  1  2  3  4  5
       169         -0.02670236          1  2  4  5  6  1  2  3  4  5
       171         -0.06087704          1  2  4  5  6  1  2  3  5  6
       172          0.04446364          1  2  4  5  6  1  2  4  5  6
       449         -0.04306075          1  2  4  5  7  1  2  3  4  5
       470          0.03105243          1  2  4  5  7  1  2  3  4  8
       451         -0.02153875          1  2  4  5  7  1  2  3  5  6
       456          0.02190407          1  2  4  5  7  1  2  3  5  7
       457          0.05949824          1  2  4  5  7  1  2  4  5  7
       458          0.02629453          1  2  4  5  7  1  3  4  5  7
      2073         -0.02340907          1  2  4  7  8  1  2  3  4  5
       227          0.02264253          1  3  4  5  6  1  2  3  5  6
       229          0.02242099          1  3  4  5  6  1  3  4  5  6
       513          0.02629453          1  3  4  5  7  1  2  4  5  7
       514          0.02552651          1  3  4  5  7  1  3  4  5  7

          Number of sigma calls:        1
                       o<<<<< (aa):             0.00
                       o<<<<< (bb):             0.00
                       o<<<<< (ab):             0.00
                       o<<<<< (total)           0.00
                       o<<<<< (aa) ff           0.00
                       o<<<<< (aa) gop          0.00
                       o<<<<< (aa) dot          0.00
                       o<<<<< (ab) str          0.00
                       o<<<<< (ab) gath         0.00
                       o<<<<< (ab) dotab        0.00
                       o<<<<< (ab) scat         0.00
                       o<<<<< (ab) sync         0.00
                       o<<<<< Density           0.01
                       o<<<<< Density one       0.00
                       o<<<<< Density two       0.00
                       o<<<<< Density ab        0.01
                       o<<<<< Spin adapt        0.00
                       o<<<<< Symm adapt        0.00

                       o<<<<< (ab) max sync:      0.00



          Natural orbital occupation numbers

              1      
    1    2.0000
    2    1.9982
    3    1.9782
    4    1.9739
    5    1.9330
    6    0.0687
    7    0.0269
    8    0.0211


          Number of sigma calls:       17
                       o<<<<< (aa):             0.00
                       o<<<<< (bb):             0.00
                       o<<<<< (ab):             0.07
                       o<<<<< (total)           0.07
                       o<<<<< (aa) ff           0.00
                       o<<<<< (aa) gop          0.00
                       o<<<<< (aa) dot          0.00
                       o<<<<< (ab) str          0.00
                       o<<<<< (ab) gath         0.00
                       o<<<<< (ab) dotab        0.00
                       o<<<<< (ab) scat         0.00
                       o<<<<< (ab) sync         0.00
                       o<<<<< Density           0.01
                       o<<<<< Density one       0.00
                       o<<<<< Density two       0.00
                       o<<<<< Density ab        0.01
                       o<<<<< Spin adapt        0.26
                       o<<<<< Symm adapt        0.00

                       o<<<<< (ab) max sync:      0.00


       Final MCSCF results 
       ------------------- 

       Total MCSCF energy =    -76.080183036870
            Gradient norm =      3.2D-05

    CPU time for solution =      3.1s
   Wall time for solution =      5.2s



                        Analysis of MCSCF natural orbitals
                        ----------------------------------

 Vector    1  Occ=1.999991D+00  E=-2.058581D+01  Symmetry=a
              MO Center= -9.1D-02, -1.0D-01,  9.2D-14, r^2= 1.5D-02
   Bfn.  Coefficient  Atom+Function         Bfn.  Coefficient  Atom+Function  
  ----- ------------  ---------------      ----- ------------  ---------------
     1      0.557634  1 O  s                  2      0.482930  1 O  s          

 Vector    2  Occ=1.998187D+00  E=-1.305977D+00  Symmetry=a
              MO Center= -2.8D-01, -1.9D-01, -3.0D-11, r^2= 4.3D-01
   Bfn.  Coefficient  Atom+Function         Bfn.  Coefficient  Atom+Function  
  ----- ------------  ---------------      ----- ------------  ---------------
     6      0.583515  1 O  s                 10      0.500332  1 O  s          
     2     -0.171000  1 O  s          

 Vector    3  Occ=1.978227D+00  E=-6.799866D-01  Symmetry=a
              MO Center= -7.3D-02, -9.9D-02,  3.1D-11, r^2= 7.1D-01
   Bfn.  Coefficient  Atom+Function         Bfn.  Coefficient  Atom+Function  
  ----- ------------  ---------------      ----- ------------  ---------------
     9      0.438867  1 O  pz                13      0.407921  1 O  pz         
     5      0.291929  1 O  pz         

 Vector    4  Occ=1.973894D+00  E=-5.529104D-01  Symmetry=a
              MO Center=  3.3D-01, -2.2D-01, -4.8D-13, r^2= 6.1D-01
   Bfn.  Coefficient  Atom+Function         Bfn.  Coefficient  Atom+Function  
  ----- ------------  ---------------      ----- ------------  ---------------
     7      0.350420  1 O  px                31      0.277860  3 H  s          
    11      0.234213  1 O  px                 3      0.232958  1 O  px         
    30      0.191653  3 H  s          

 Vector    5  Occ=1.933046D+00  E=-5.258488D-01  Symmetry=a
              MO Center= -5.0D-02,  4.7D-01, -6.2D-13, r^2= 9.0D-01
   Bfn.  Coefficient  Atom+Function         Bfn.  Coefficient  Atom+Function  
  ----- ------------  ---------------      ----- ------------  ---------------
     8      0.335951  1 O  py                24      0.285404  2 H  s          
    12      0.261963  1 O  py                 4      0.215237  1 O  py         

 Vector    6  Occ=6.866734D-02  E=-4.734494D-02  Symmetry=a
              MO Center= -5.7D-02,  7.1D-01, -3.8D-13, r^2= 8.9D-01
   Bfn.  Coefficient  Atom+Function         Bfn.  Coefficient  Atom+Function  
  ----- ------------  ---------------      ----- ------------  ---------------
    24     -0.502616  2 H  s                  8      0.475251  1 O  py         
     4      0.326177  1 O  py                 6      0.249399  1 O  s          
    23     -0.241324  2 H  s          

 Vector    7  Occ=2.685938D-02  E=-2.631299D-02  Symmetry=a
              MO Center=  5.1D-01, -2.8D-01,  3.4D-12, r^2= 6.8D-01
   Bfn.  Coefficient  Atom+Function         Bfn.  Coefficient  Atom+Function  
  ----- ------------  ---------------      ----- ------------  ---------------
    31      0.570543  3 H  s                  7     -0.510151  1 O  px         
     3     -0.408762  1 O  px                 6     -0.378838  1 O  s          
    30      0.293038  3 H  s          

 Vector    8  Occ=2.112857D-02  E=-1.644133D-02  Symmetry=a
              MO Center= -5.3D-02, -9.1D-02,  4.8D-11, r^2= 1.5D+00
   Bfn.  Coefficient  Atom+Function         Bfn.  Coefficient  Atom+Function  
  ----- ------------  ---------------      ----- ------------  ---------------
    13      0.648001  1 O  pz                 5     -0.484692  1 O  pz         
     9     -0.470699  1 O  pz                17      0.312832  1 O  pz         

 Vector    9  Occ=0.000000D+00  E= 7.515829D-02  Symmetry=a
              MO Center=  5.9D-01,  5.2D-01,  3.0D-12, r^2= 1.1D+01
   Bfn.  Coefficient  Atom+Function         Bfn.  Coefficient  Atom+Function  
  ----- ------------  ---------------      ----- ------------  ---------------
    33      1.034218  3 H  s                 26      1.008348  2 H  s          
    14     -0.628408  1 O  s                 25     -0.585861  2 H  s          
    32     -0.417152  3 H  s                 10      0.242016  1 O  s          

 Vector   10  Occ=0.000000D+00  E= 8.694846D-02  Symmetry=a
              MO Center=  4.9D-01,  5.0D-01, -3.2D-12, r^2= 1.4D+01
   Bfn.  Coefficient  Atom+Function         Bfn.  Coefficient  Atom+Function  
  ----- ------------  ---------------      ----- ------------  ---------------
    33     -2.290891  3 H  s                 26      2.268774  2 H  s          
    25     -0.604150  2 H  s                 32      0.400524  3 H  s          
    16     -0.243212  1 O  py                15      0.217112  1 O  px         
    14      0.203913  1 O  s          

 Vector   11  Occ=0.000000D+00  E= 2.368435D-01  Symmetry=a
              MO Center= -5.0D-01, -1.4D-01,  2.9D-12, r^2= 5.3D+00
   Bfn.  Coefficient  Atom+Function         Bfn.  Coefficient  Atom+Function  
  ----- ------------  ---------------      ----- ------------  ---------------
    32      2.703874  3 H  s                 14     -2.119620  1 O  s          
    15     -1.968304  1 O  px                25      1.140552  2 H  s          
    16     -0.686581  1 O  py                11      0.346002  1 O  px         
    33     -0.345687  3 H  s                 10     -0.276808  1 O  s          
    12      0.242877  1 O  py                26     -0.177442  2 H  s          

 Vector   12  Occ=0.000000D+00  E= 2.810077D-01  Symmetry=a
              MO Center= -3.6D-01, -4.0D-01,  6.1D-13, r^2= 5.9D+00
   Bfn.  Coefficient  Atom+Function         Bfn.  Coefficient  Atom+Function  
  ----- ------------  ---------------      ----- ------------  ---------------
    32      3.151610  3 H  s                 16      2.458234  1 O  py         
    25     -1.939475  2 H  s                 15     -1.813101  1 O  px         
    14     -1.477321  1 O  s                 33      0.671668  3 H  s          
    26     -0.428699  2 H  s                 12     -0.386697  1 O  py         
    31     -0.256865  3 H  s                 11      0.176272  1 O  px         

 Vector   13  Occ=0.000000D+00  E= 3.196774D-01  Symmetry=a
              MO Center=  2.1D-01,  1.4D-01, -9.8D-11, r^2= 5.4D+00
   Bfn.  Coefficient  Atom+Function         Bfn.  Coefficient  Atom+Function  
  ----- ------------  ---------------      ----- ------------  ---------------
    14      6.480858  1 O  s                 32     -3.874840  3 H  s          
    25     -2.434582  2 H  s                 15      1.586541  1 O  px         
    10     -1.168725  1 O  s                 16      0.589282  1 O  py         
    33     -0.469771  3 H  s                 31      0.232169  3 H  s          
    24      0.157026  2 H  s          

 Vector   14  Occ=0.000000D+00  E= 4.830959D-01  Symmetry=a
              MO Center= -3.9D-02,  1.4D+00, -5.0D-13, r^2= 5.3D+00
   Bfn.  Coefficient  Atom+Function         Bfn.  Coefficient  Atom+Function  
  ----- ------------  ---------------      ----- ------------  ---------------
    25      3.119880  2 H  s                 32     -1.792325  3 H  s          
    26     -1.696293  2 H  s                 24     -1.372063  2 H  s          
    33      0.989834  3 H  s                 31      0.519983  3 H  s          
    14      0.384226  1 O  s                 10     -0.290935  1 O  s          
    16     -0.198956  1 O  py                15      0.194070  1 O  px         

 Vector   15  Occ=0.000000D+00  E= 4.999473D-01  Symmetry=a
              MO Center=  1.1D+00, -4.8D-01, -2.9D-13, r^2= 4.7D+00
   Bfn.  Coefficient  Atom+Function         Bfn.  Coefficient  Atom+Function  
  ----- ------------  ---------------      ----- ------------  ---------------
    32      3.986451  3 H  s                 31     -1.453108  3 H  s          
    14     -1.369808  1 O  s                 33     -1.256990  3 H  s          
    25      0.906354  2 H  s                 24     -0.529573  2 H  s          
    15     -0.518632  1 O  px                10     -0.318434  1 O  s          
     7      0.152908  1 O  px         

 Vector   16  Occ=0.000000D+00  E= 6.573363D-01  Symmetry=a
              MO Center= -8.4D-02, -1.0D-01,  6.8D-11, r^2= 5.3D+00
   Bfn.  Coefficient  Atom+Function         Bfn.  Coefficient  Atom+Function  
  ----- ------------  ---------------      ----- ------------  ---------------
    13      1.440714  1 O  pz                17     -1.442142  1 O  pz         
     9     -0.452861  1 O  pz         

 Vector   17  Occ=0.000000D+00  E= 1.030998D+00  Symmetry=a
              MO Center= -3.2D-01,  1.4D-01,  1.4D-12, r^2= 2.5D+00
   Bfn.  Coefficient  Atom+Function         Bfn.  Coefficient  Atom+Function  
  ----- ------------  ---------------      ----- ------------  ---------------
    32      2.437442  3 H  s                 11      2.322951  1 O  px         
    14     -2.247544  1 O  s                 31     -2.106363  3 H  s          
    15     -1.775762  1 O  px                10      1.452295  1 O  s          
    12     -0.472274  1 O  py                 7     -0.459371  1 O  px         
    16      0.403790  1 O  py                25      0.363029  2 H  s          

 Vector   18  Occ=0.000000D+00  E= 1.191905D+00  Symmetry=a
              MO Center= -2.1D-02, -4.0D-01, -7.3D-13, r^2= 2.4D+00
   Bfn.  Coefficient  Atom+Function         Bfn.  Coefficient  Atom+Function  
  ----- ------------  ---------------      ----- ------------  ---------------
    12      2.091046  1 O  py                16     -1.435196  1 O  py         
    25      1.117742  2 H  s                 24     -1.057271  2 H  s          
     8     -0.745960  1 O  py                33     -0.451305  3 H  s          
    14     -0.384650  1 O  s                 31      0.345984  3 H  s          
    26      0.295010  2 H  s                 28      0.158399  2 H  py         


 Wrote Lagrangian and 1- and 2-particle density matrices to ./H2O.mcpdm


     Multipole analysis of the density
     ---------------------------------

     L   x y z        total        nuclear
     -   - - -        -----        -------
     0   0 0 0     -0.000000     10.000000

     1   1 0 0      0.627059     -0.000000
     1   0 1 0      0.487687     -0.000000
     1   0 0 1     -0.000000      0.000000

     2   2 0 0     -4.551725      2.679864
     2   1 1 0     -0.903278     -1.446271
     2   1 0 1      0.000000      0.000000
     2   0 2 0     -3.139957      6.533180
     2   0 1 1      0.000000      0.000000
     2   0 0 2     -6.105521      0.000000


  Mulliken analysis of the total density
  --------------------------------------

    Atom       Charge   Shell Charges
 -----------   ------   -------------------------------------------------------
    1 O    8     8.50   1.08  0.91  0.92  1.02  1.98  0.85  1.56 -0.03  0.20  0.01
    2 H    1     0.75   0.16  0.43  0.12  0.01  0.03
    3 H    1     0.75   0.26  0.40  0.02  0.01  0.06

    Mulliken analysis of the active space density
    ---------------------------------------------

    Atom       Charge   Shell Charges
 -----------   ------   -------------------------------------------------------
    1 O    8     8.50   1.08  0.91  0.92  1.02  1.98  0.85  1.56 -0.03  0.20  0.01
    2 H    1     0.75   0.16  0.43  0.12  0.01  0.03
    3 H    1     0.75   0.26  0.40  0.02  0.01  0.06

 Parallel integral file used       3 records with       0 large values


 Task  times  cpu:        3.1s     wall:        5.2s


                                NWChem Input Module
                                -------------------


                                 NWChem SCF Module
                                 -----------------


                                        H2O



  ao basis        = "ao basis"
  functions       =    36
  atoms           =     3
  closed shells   =     5
  open shells     =     0
  charge          =   0.00
  wavefunction    = RHF 
  input vectors   = ./h2o.mos
  output vectors  = ./h2o-trash.mos
  use symmetry    = F
  symmetry adapt  = F


 Summary of "ao basis" -> "ao basis" (spherical)
 ------------------------------------------------------------------------------
       Tag                 Description            Shells   Functions and Types
 ---------------- ------------------------------  ------  ---------------------
 O                         6-311++G**               10       22   5s4p1d
 H                         6-311++G**                5        7   4s1p



 Forming initial guess at       5.2s


 Loading old vectors from job with title :

H2O


 Starting SCF solution at       5.2s



 ----------------------------------------------
         Quadratically convergent ROHF

 Convergence threshold     :          1.000E-04
 Maximum no. of iterations :           30
 Final Fock-matrix accuracy:          1.000E-07
 ----------------------------------------------


 Integral file          = ./H2O.aoints.0
 Record size in doubles =  65536        No. of integs per rec  =  43688
 Max. records in memory =     10        Max. records in file   = 232561
 No. of bits per label  =      8        No. of bits per value  =     64


 #quartets = 2.216D+04 #integrals = 1.002D+05 #direct =  0.0% #cached =100.0%



       Final RHF  results 
       ------------------ 

         Total SCF energy =    -75.963657285937
      One-electron energy =   -120.273212388904
      Two-electron energy =     36.549610392560
 Nuclear repulsion energy =      7.759944710406

        Time for solution =      0.0s


             Final eigenvalues
             -----------------

              1      
    1  -20.5858
    2   -1.3060
    3   -0.6800
    4   -0.5529
    5   -0.5258
    6   -0.0473
    7   -0.0263
    8   -0.0164
    9    0.0752
   10    0.0869
   11    0.2368
   12    0.2810
   13    0.3197
   14    0.4831
   15    0.4999

                       ROHF Final Molecular Orbital Analysis
                       -------------------------------------

 Vector    2  Occ=2.000000D+00  E=-1.305977D+00
              MO Center= -2.8D-01, -1.9D-01, -3.0D-11, r^2= 4.3D-01
   Bfn.  Coefficient  Atom+Function         Bfn.  Coefficient  Atom+Function  
  ----- ------------  ---------------      ----- ------------  ---------------
     6      0.583515  1 O  s                 10      0.500332  1 O  s          
     2     -0.171000  1 O  s          

 Vector    3  Occ=2.000000D+00  E=-6.799866D-01
              MO Center= -7.3D-02, -9.9D-02,  3.1D-11, r^2= 7.1D-01
   Bfn.  Coefficient  Atom+Function         Bfn.  Coefficient  Atom+Function  
  ----- ------------  ---------------      ----- ------------  ---------------
     9      0.438867  1 O  pz                13      0.407921  1 O  pz         
     5      0.291929  1 O  pz         

 Vector    4  Occ=2.000000D+00  E=-5.529104D-01
              MO Center=  3.3D-01, -2.2D-01, -4.8D-13, r^2= 6.1D-01
   Bfn.  Coefficient  Atom+Function         Bfn.  Coefficient  Atom+Function  
  ----- ------------  ---------------      ----- ------------  ---------------
     7      0.350420  1 O  px                31      0.277860  3 H  s          
    11      0.234213  1 O  px                 3      0.232958  1 O  px         
    30      0.191653  3 H  s          

 Vector    5  Occ=2.000000D+00  E=-5.258488D-01
              MO Center= -5.0D-02,  4.7D-01, -6.2D-13, r^2= 9.0D-01
   Bfn.  Coefficient  Atom+Function         Bfn.  Coefficient  Atom+Function  
  ----- ------------  ---------------      ----- ------------  ---------------
     8      0.335951  1 O  py                24      0.285404  2 H  s          
    12      0.261963  1 O  py                 4      0.215237  1 O  py         

 Vector    6  Occ=0.000000D+00  E=-4.734494D-02
              MO Center= -5.7D-02,  7.1D-01, -3.8D-13, r^2= 8.9D-01
   Bfn.  Coefficient  Atom+Function         Bfn.  Coefficient  Atom+Function  
  ----- ------------  ---------------      ----- ------------  ---------------
    24     -0.502616  2 H  s                  8      0.475251  1 O  py         
     4      0.326177  1 O  py                 6      0.249399  1 O  s          
    23     -0.241324  2 H  s          

 Vector    7  Occ=0.000000D+00  E=-2.631299D-02
              MO Center=  5.1D-01, -2.8D-01,  3.4D-12, r^2= 6.8D-01
   Bfn.  Coefficient  Atom+Function         Bfn.  Coefficient  Atom+Function  
  ----- ------------  ---------------      ----- ------------  ---------------
    31      0.570543  3 H  s                  7     -0.510151  1 O  px         
     3     -0.408762  1 O  px                 6     -0.378838  1 O  s          
    30      0.293038  3 H  s          

 Vector    8  Occ=0.000000D+00  E=-1.644133D-02
              MO Center= -5.3D-02, -9.1D-02,  4.8D-11, r^2= 1.5D+00
   Bfn.  Coefficient  Atom+Function         Bfn.  Coefficient  Atom+Function  
  ----- ------------  ---------------      ----- ------------  ---------------
    13      0.648001  1 O  pz                 5     -0.484692  1 O  pz         
     9     -0.470699  1 O  pz                17      0.312832  1 O  pz         

 Vector    9  Occ=0.000000D+00  E= 7.515829D-02
              MO Center=  5.9D-01,  5.2D-01,  3.0D-12, r^2= 1.1D+01
   Bfn.  Coefficient  Atom+Function         Bfn.  Coefficient  Atom+Function  
  ----- ------------  ---------------      ----- ------------  ---------------
    33      1.034218  3 H  s                 26      1.008348  2 H  s          
    14     -0.628408  1 O  s                 25     -0.585861  2 H  s          
    32     -0.417152  3 H  s                 10      0.242016  1 O  s          

 Vector   10  Occ=0.000000D+00  E= 8.694846D-02
              MO Center=  4.9D-01,  5.0D-01, -3.2D-12, r^2= 1.4D+01
   Bfn.  Coefficient  Atom+Function         Bfn.  Coefficient  Atom+Function  
  ----- ------------  ---------------      ----- ------------  ---------------
    33     -2.290891  3 H  s                 26      2.268774  2 H  s          
    25     -0.604150  2 H  s                 32      0.400524  3 H  s          
    16     -0.243212  1 O  py                15      0.217112  1 O  px         
    14      0.203913  1 O  s          

 Vector   11  Occ=0.000000D+00  E= 2.368435D-01
              MO Center= -5.0D-01, -1.4D-01,  2.9D-12, r^2= 5.3D+00
   Bfn.  Coefficient  Atom+Function         Bfn.  Coefficient  Atom+Function  
  ----- ------------  ---------------      ----- ------------  ---------------
    32      2.703874  3 H  s                 14     -2.119620  1 O  s          
    15     -1.968304  1 O  px                25      1.140552  2 H  s          
    16     -0.686581  1 O  py                11      0.346002  1 O  px         
    33     -0.345687  3 H  s                 10     -0.276808  1 O  s          
    12      0.242877  1 O  py                26     -0.177442  2 H  s          

 Vector   12  Occ=0.000000D+00  E= 2.810077D-01
              MO Center= -3.6D-01, -4.0D-01,  6.1D-13, r^2= 5.9D+00
   Bfn.  Coefficient  Atom+Function         Bfn.  Coefficient  Atom+Function  
  ----- ------------  ---------------      ----- ------------  ---------------
    32      3.151610  3 H  s                 16      2.458234  1 O  py         
    25     -1.939475  2 H  s                 15     -1.813101  1 O  px         
    14     -1.477321  1 O  s                 33      0.671668  3 H  s          
    26     -0.428699  2 H  s                 12     -0.386697  1 O  py         
    31     -0.256865  3 H  s                 11      0.176272  1 O  px         

 Vector   13  Occ=0.000000D+00  E= 3.196774D-01
              MO Center=  2.1D-01,  1.4D-01, -9.8D-11, r^2= 5.4D+00
   Bfn.  Coefficient  Atom+Function         Bfn.  Coefficient  Atom+Function  
  ----- ------------  ---------------      ----- ------------  ---------------
    14      6.480858  1 O  s                 32     -3.874840  3 H  s          
    25     -2.434582  2 H  s                 15      1.586541  1 O  px         
    10     -1.168725  1 O  s                 16      0.589282  1 O  py         
    33     -0.469771  3 H  s                 31      0.232169  3 H  s          
    24      0.157026  2 H  s          

 Vector   14  Occ=0.000000D+00  E= 4.830959D-01
              MO Center= -3.9D-02,  1.4D+00, -5.0D-13, r^2= 5.3D+00
   Bfn.  Coefficient  Atom+Function         Bfn.  Coefficient  Atom+Function  
  ----- ------------  ---------------      ----- ------------  ---------------
    25      3.119880  2 H  s                 32     -1.792325  3 H  s          
    26     -1.696293  2 H  s                 24     -1.372063  2 H  s          
    33      0.989834  3 H  s                 31      0.519983  3 H  s          
    14      0.384226  1 O  s                 10     -0.290935  1 O  s          
    16     -0.198956  1 O  py                15      0.194070  1 O  px         

 Vector   15  Occ=0.000000D+00  E= 4.999473D-01
              MO Center=  1.1D+00, -4.8D-01, -2.9D-13, r^2= 4.7D+00
   Bfn.  Coefficient  Atom+Function         Bfn.  Coefficient  Atom+Function  
  ----- ------------  ---------------      ----- ------------  ---------------
    32      3.986451  3 H  s                 31     -1.453108  3 H  s          
    14     -1.369808  1 O  s                 33     -1.256990  3 H  s          
    25      0.906354  2 H  s                 24     -0.529573  2 H  s          
    15     -0.518632  1 O  px                10     -0.318434  1 O  s          
     7      0.152908  1 O  px         

 Vector   16  Occ=0.000000D+00  E= 6.573363D-01
              MO Center= -8.4D-02, -1.0D-01,  6.8D-11, r^2= 5.3D+00
   Bfn.  Coefficient  Atom+Function         Bfn.  Coefficient  Atom+Function  
  ----- ------------  ---------------      ----- ------------  ---------------
    13      1.440714  1 O  pz                17     -1.442142  1 O  pz         
     9     -0.452861  1 O  pz         


 center of mass
 --------------
 x =  -0.07599894 y =  -0.08347653 z =   0.00000000

 moments of inertia (a.u.)
 ------------------
           6.743758554230           1.312415370277           0.000000000000
           1.312415370277           2.833002082974           0.000000000000
           0.000000000000           0.000000000000           9.576760637204

  Mulliken analysis of the total density
  --------------------------------------

    Atom       Charge   Shell Charges
 -----------   ------   -------------------------------------------------------
    1 O    8     8.51   1.08  0.91  0.90  1.02  1.99  0.85  1.58 -0.03  0.19  0.01
    2 H    1     0.74   0.16  0.42  0.12  0.01  0.03
    3 H    1     0.75   0.26  0.40  0.02  0.01  0.07

       Multipole analysis of the density wrt the origin
       ------------------------------------------------

     L   x y z        total         open         nuclear
     -   - - -        -----         ----         -------
     0   0 0 0     -0.000000      0.000000     10.000000

     1   1 0 0      0.637423      0.000000     -0.000000
     1   0 1 0      0.518290      0.000000     -0.000000
     1   0 0 1     -0.000000      0.000000      0.000000

     2   2 0 0     -4.526476      0.000000      2.679864
     2   1 1 0     -0.921691      0.000000     -1.446271
     2   1 0 1      0.000000      0.000000      0.000000
     2   0 2 0     -3.040367      0.000000      6.533180
     2   0 1 1      0.000000      0.000000      0.000000
     2   0 0 2     -6.075968      0.000000      0.000000


 Parallel integral file used       3 records with       0 large values

 ------------------------------------
     Number of active orbitals      8
     Number of active alpha electrons      5
     Number of active beta electrons       5
 ------------------------------------
                   NWChem Extensible Many-Electron Theory Module
                   ---------------------------------------------

              ======================================================
                   This portion of the program was automatically
                  generated by a Tensor Contraction Engine (TCE).
                  The development of this portion of the program
                 and TCE was supported by US Department of Energy,
                Office of Science, Office of Basic Energy Science.
                      TCE is a product of Battelle and PNNL.
              Please cite: S.Hirata, J.Phys.Chem.A 107, 9887 (2003).
              ======================================================

                                        H2O


            General Information
            -------------------
      Number of processors :     1
         Wavefunction type : Restricted Hartree-Fock
          No. of electrons :    10
           Alpha electrons :     5
            Beta electrons :     5
           No. of orbitals :    72
            Alpha orbitals :    36
             Beta orbitals :    36
        Alpha frozen cores :     0
         Beta frozen cores :     0
     Alpha frozen virtuals :    28
      Beta frozen virtuals :    28
         Spin multiplicity : singlet 
    Number of AO functions :    36
       Number of AO shells :    20
        Use of symmetry is : off
      Symmetry adaption is : off
         Schwarz screening : 0.10D-09

          Correlation Information
          -----------------------
          Calculation type : Coupled-cluster singles & doubles                           
   Perturbative correction : none                                                        
            Max iterations :      300
        Residual threshold : 0.10D-06
     T(0) DIIS level shift : 0.00D+00
     L(0) DIIS level shift : 0.00D+00
     T(1) DIIS level shift : 0.00D+00
     L(1) DIIS level shift : 0.00D+00
     T(R) DIIS level shift : 0.00D+00
     T(I) DIIS level shift : 0.00D+00
   CC-T/L Amplitude update :  5-th order DIIS
                I/O scheme : Global Array Library
        L-threshold :  0.10D-06
        EOM-threshold :  0.10D-06
 no EOMCCSD initial starts read in
 TCE RESTART OPTIONS
 READ_INT:   F
 WRITE_INT:  F
 READ_TA:    F
 WRITE_TA:   F
 READ_XA:    F
 WRITE_XA:   F
 READ_IN3:   F
 WRITE_IN3:  F
 SLICE:      F
 D4D5:       F
 quantumc:   T
 qrotation:  F
 pwtce:      F
 qducc:      F
 nacto:                         0
 nrotv:                         0
 nrot:                          0

            Memory Information
            ------------------
          Available GA space size is    1610611440 doubles
          Available MA space size is    1610610740 doubles

 Maximum block size supplied by input
 Maximum block size         1 doubles

 tile_dim =      1

 Block   Spin    Irrep     Size     Offset   Alpha
 -------------------------------------------------
   1    alpha     a      1 doubles       0       1
   2    alpha     a      1 doubles       1       2
   3    alpha     a      1 doubles       2       3
   4    alpha     a      1 doubles       3       4
   5    alpha     a      1 doubles       4       5
   6    beta      a      1 doubles       5       1
   7    beta      a      1 doubles       6       2
   8    beta      a      1 doubles       7       3
   9    beta      a      1 doubles       8       4
  10    beta      a      1 doubles       9       5
  11    alpha     a      1 doubles      10      11
  12    alpha     a      1 doubles      11      12
  13    alpha     a      1 doubles      12      13
  14    beta      a      1 doubles      13      11
  15    beta      a      1 doubles      14      12
  16    beta      a      1 doubles      15      13

 Global array virtual files algorithm will be used

 Parallel file system coherency ......... OK

 Integral file          = ./H2O.aoints.0
 Record size in doubles =  65536        No. of integs per rec  =  43688
 Max. records in memory =     10        Max. records in file   = 232561
 No. of bits per label  =      8        No. of bits per value  =     64


 #quartets = 2.216D+04 #integrals = 1.003D+05 #direct =  0.0% #cached =100.0%


 Fock matrix recomputed
 1-e file size   =               64
 1-e file name   = ./H2O.f1
 Cpu & wall time / sec            0.0            0.0
 4-electron integrals stored in orbital form

 v2    file size   =              666
 4-index algorithm nr.  13 is used
 imaxsize =       30
 imaxsize ichop =        0
 begin_one_electron_integrals
    1    1       -32.8391038077
    2    1        -0.9138550718
    4    1         0.1257707563
    5    1         0.0594468299
    6    1         0.1684301135
    7    1        -0.1945118388
    1    2        -0.9138550718
    2    2        -7.7381253094
    4    2        -0.2575092089
    5    2        -0.1025007248
    6    2        -0.2028935739
    7    2         0.0936615512
    3    3        -6.8595082868
    8    3         2.2172136960
    1    4         0.1257707563
    2    4        -0.2575092089
    4    4        -6.7145514530
    5    4        -0.0913467527
    6    4        -0.0621179457
    7    4         2.0171857090
    1    5         0.0594468299
    2    5        -0.1025007248
    4    5        -0.0913467527
    5    5        -5.9853173375
    6    5        -2.0917162932
    7    5        -0.0570973924
    1    6         0.1684301135
    2    6        -0.2028935739
    4    6        -0.0621179457
    5    6        -2.0917162932
    6    6        -5.7228599916
    7    6        -0.0518911566
    1    7        -0.1945118388
    2    7         0.0936615512
    4    7         2.0171857090
    5    7        -0.0570973924
    6    7        -0.0518911566
    7    7        -6.0070584655
    3    8         2.2172136960
    8    8        -5.2349643668
 end_one_electron_integrals
 begin_two_electron_integrals
    1    1    1    1        4.8225457009
    2    1    1    1       -0.2317512328
    2    1    2    1        0.0307093542
    3    1    3    1        0.0271587127
    4    1    1    1       -0.0865351320
    4    1    2    1        0.0023695310
    4    1    4    1        0.0209793306
    4    1    2    2       -0.0134642211
    4    1    3    3       -0.0022698899
    5    1    1    1       -0.0444086070
    5    1    2    1        0.0006253938
    5    1    4    1        0.0019542043
    5    1    5    1        0.0166154783
    5    1    2    2       -0.0079162420
    5    1    4    2       -0.0000380418
    5    1    3    3       -0.0009080625
    5    1    4    4       -0.0006794811
    6    1    1    1       -0.1265216177
    6    1    2    1        0.0070790695
    6    1    4    1        0.0035541730
    6    1    5    1        0.0238280825
    6    1    6    1        0.0356257544
    6    1    2    2       -0.0139572660
    6    1    4    2       -0.0011233670
    6    1    5    2        0.0212896578
    6    1    3    3       -0.0040087910
    6    1    4    4       -0.0040434104
    6    1    5    4        0.0037987089
    6    1    5    5        0.0062326080
    7    1    1    1        0.1579983128
    7    1    2    1       -0.0069132078
    7    1    4    1       -0.0327627689
    7    1    5    1       -0.0012332755
    7    1    6    1       -0.0035976717
    7    1    7    1        0.0519351153
    7    1    2    2        0.0207567869
    7    1    4    2       -0.0265252242
    7    1    5    2        0.0023356558
    7    1    6    2        0.0051556599
    7    1    3    3        0.0033753409
    7    1    4    4       -0.0148495826
    7    1    5    4       -0.0019764402
    7    1    6    4       -0.0046265238
    7    1    5    5        0.0033541790
    7    1    6    5        0.0028369170
    7    1    6    6        0.0060809448
    8    1    3    1       -0.0368305426
    8    1    8    1        0.0503069893
    8    1    3    2       -0.0354905379
    8    1    4    3       -0.0067872920
    8    1    5    3       -0.0039627623
    8    1    6    3       -0.0075166484
    8    1    7    3        0.0089117382
    2    2    1    1        1.0756142211
    2    2    2    1        0.0092098012
    2    2    2    2        0.8324848540
    3    2    3    1        0.0242380252
    3    2    3    2        0.1358397860
    4    2    1    1       -0.0061114628
    4    2    2    1       -0.0039113536
    4    2    4    1        0.0161777376
    4    2    2    2       -0.0524678688
    4    2    4    2        0.0928924399
    4    2    3    3        0.0087093671
    5    2    1    1       -0.0152379131
    5    2    2    1       -0.0025679881
    5    2    4    1        0.0000449177
    5    2    5    1        0.0142314827
    5    2    2    2       -0.0395629072
    5    2    4    2       -0.0076800985
    5    2    5    2        0.0879450797
    5    2    3    3       -0.0006517225
    5    2    4    4       -0.0107088012
    6    2    1    1        0.0448034858
    6    2    2    1       -0.0024609542
    6    2    4    1       -0.0017799886
    6    2    5    1        0.0150049154
    6    2    6    1        0.0209827174
    6    2    2    2       -0.0039572829
    6    2    4    2       -0.0114697799
    6    2    5    2        0.0679717197
    6    2    6    2        0.0635030499
    6    2    3    3        0.0231162761
    6    2    4    4        0.0098245636
    6    2    5    4        0.0098626771
    6    2    5    5        0.0354272332
    7    2    1    1       -0.0200741024
    7    2    2    1        0.0042268393
    7    2    4    1       -0.0160106181
    7    2    5    1        0.0021225254
    7    2    6    1        0.0041091171
    7    2    7    1        0.0244993184
    7    2    2    2        0.0229673001
    7    2    4    2       -0.0579186658
    7    2    5    2        0.0129088462
    7    2    6    2        0.0154524261
    7    2    7    2        0.0517232036
    7    2    3    3       -0.0145386816
    7    2    4    4       -0.0317645365
    7    2    5    4       -0.0033704330
    7    2    6    4       -0.0076342982
    7    2    5    5       -0.0044463240
    7    2    6    5       -0.0089767216
    7    2    6    6       -0.0046627783
    8    2    3    1       -0.0198649426
    8    2    8    1        0.0256534724
    8    2    3    2       -0.0538250515
    8    2    8    2        0.0440651150
    8    2    4    3       -0.0064829010
    8    2    5    3       -0.0038257588
    8    2    6    3       -0.0112687213
    8    2    7    3        0.0115829917
    3    3    1    1        1.0211229190
    3    3    2    1        0.0059587167
    3    3    2    2        0.7225788132
    3    3    3    3        0.7310854467
    4    3    3    1        0.0049053267
    4    3    3    2        0.0206116432
    4    3    4    3        0.0346912227
    5    3    3    1        0.0027903337
    5    3    3    2        0.0123858605
    5    3    4    3        0.0036527054
    5    3    5    3        0.0269380810
    6    3    3    1        0.0057457051
    6    3    3    2        0.0174239121
    6    3    4    3        0.0033164943
    6    3    5    3        0.0199047358
    6    3    6    3        0.0226816222
    7    3    3    1       -0.0069328613
    7    3    3    2       -0.0181375097
    7    3    4    3       -0.0192931015
    7    3    5    3       -0.0009233384
    7    3    6    3       -0.0030037592
    7    3    7    3        0.0239082172
    8    3    1    1       -0.5329314737
    8    3    2    1       -0.0034767208
    8    3    4    1        0.0031256114
    8    3    5    1        0.0011760010
    8    3    6    1        0.0044359665
    8    3    7    1       -0.0053198745
    8    3    2    2       -0.2220818831
    8    3    4    2        0.0016967488
    8    3    5    2        0.0023065559
    8    3    6    2       -0.0156229522
    8    3    7    2        0.0086403330
    8    3    3    3       -0.2163309818
    8    3    8    3        0.1637439822
    8    3    4    4       -0.1583632056
    8    3    5    4       -0.0050983572
    8    3    6    4       -0.0043437935
    8    3    7    4        0.1241415017
    8    3    5    5       -0.1342523421
    8    3    6    5       -0.1160846587
    8    3    7    5       -0.0031692377
    8    3    6    6       -0.1584697392
    8    3    7    6       -0.0035937861
    8    3    7    7       -0.1824549322
    4    4    1    1        0.9027621305
    4    4    2    1        0.0030061906
    4    4    4    1        0.0080436059
    4    4    2    2        0.6363806862
    4    4    4    2        0.0799249289
    4    4    3    3        0.6215437290
    4    4    4    4        0.7587175744
    5    4    1    1        0.0189894306
    5    4    2    1       -0.0007582297
    5    4    4    1        0.0017246797
    5    4    5    1        0.0029146414
    5    4    2    2       -0.0022796720
    5    4    4    2        0.0023281067
    5    4    5    2        0.0099695303
    5    4    3    3        0.0084705347
    5    4    4    4        0.0079387366
    5    4    5    4        0.0238866333
    6    4    1    1        0.0159918479
    6    4    2    1       -0.0016213991
    6    4    4    1        0.0035682609
    6    4    5    1        0.0031640990
    6    4    6    1        0.0042049073
    6    4    2    2       -0.0079067946
    6    4    4    2        0.0068264558
    6    4    5    2        0.0117827612
    6    4    6    2        0.0084773361
    6    4    3    3        0.0057701479
    6    4    4    4        0.0059462309
    6    4    5    4        0.0180130764
    6    4    6    4        0.0192815421
    6    4    5    5        0.0151509496
    7    4    1    1       -0.4819811567
    7    4    2    1       -0.0013371206
    7    4    4    1       -0.0043921008
    7    4    5    1        0.0009743508
    7    4    6    1        0.0038421406
    7    4    7    1        0.0035790191
    7    4    2    2       -0.2113455407
    7    4    4    2        0.0112906703
    7    4    5    2       -0.0027570549
    7    4    6    2       -0.0150791667
    7    4    7    2        0.0194761365
    7    4    3    3       -0.1835813882
    7    4    4    4       -0.1133547663
    7    4    5    4       -0.0088364498
    7    4    6    4       -0.0107933772
    7    4    7    4        0.2065077296
    7    4    5    5       -0.1360748493
    7    4    6    5       -0.1026397118
    7    4    6    6       -0.1584456469
    8    4    3    1       -0.0030387486
    8    4    8    1        0.0035997128
    8    4    3    2       -0.0024495846
    8    4    8    2        0.0037077223
    8    4    4    3       -0.0065033151
    8    4    5    3       -0.0009476147
    8    4    6    3       -0.0020611392
    8    4    7    3        0.0165091260
    8    4    8    4        0.0150565068
    5    5    1    1        0.7942353771
    5    5    2    1        0.0034034563
    5    5    4    1       -0.0014769511
    5    5    5    1        0.0042516885
    5    5    2    2        0.5892385799
    5    5    4    2       -0.0009955500
    5    5    5    2        0.0516010285
    5    5    3    3        0.5591427580
    5    5    4    4        0.5218948531
    5    5    5    4        0.0114563713
    5    5    5    5        0.6220327848
    6    5    1    1        0.4534677655
    6    5    2    1        0.0026263228
    6    5    4    1       -0.0016473873
    6    5    5    1        0.0037424100
    6    5    6    1        0.0012873668
    6    5    2    2        0.2287561030
    6    5    4    2        0.0076576321
    6    5    5    2       -0.0145614301
    6    5    6    2        0.0182810099
    6    5    3    3        0.2001708813
    6    5    4    4        0.1823137895
    6    5    5    4        0.0081613588
    6    5    6    4        0.0004868481
    6    5    5    5        0.0897001789
    6    5    6    5        0.2129112576
    7    5    1    1        0.0118680734
    7    5    2    1        0.0015479738
    7    5    4    1       -0.0020653970
    7    5    5    1       -0.0040236054
    7    5    6    1       -0.0054436967
    7    5    7    1        0.0026934524
    7    5    2    2        0.0179056125
    7    5    4    2       -0.0059658460
    7    5    5    2       -0.0107758672
    7    5    6    2       -0.0091660622
    7    5    7    2        0.0013282211
    7    5    3    3        0.0055500032
    7    5    4    4       -0.0044848845
    7    5    5    4       -0.0119555457
    7    5    6    4       -0.0148462925
    7    5    7    4       -0.0056515420
    7    5    5    5       -0.0012113052
    7    5    6    5        0.0034596172
    7    5    7    5        0.0158613130
    7    5    6    6       -0.0029215201
    8    5    3    1       -0.0017876840
    8    5    8    1        0.0020480382
    8    5    3    2       -0.0001340411
    8    5    8    2        0.0026062819
    8    5    4    3       -0.0007519081
    8    5    5    3       -0.0049361490
    8    5    6    3       -0.0126468380
    8    5    7    3        0.0007879590
    8    5    8    4        0.0010067948
    8    5    8    5        0.0134702510
    6    6    1    1        0.9052860775
    6    6    2    1        0.0025215705
    6    6    4    1       -0.0027703697
    6    6    5    1        0.0068918274
    6    6    6    1        0.0086858849
    6    6    2    2        0.5882097396
    6    6    4    2       -0.0031500762
    6    6    5    2        0.0545825071
    6    6    6    2        0.0426360954
    6    6    3    3        0.5621241777
    6    6    4    4        0.5171343196
    6    6    5    4        0.0106198200
    6    6    6    4        0.0177927313
    6    6    5    5        0.6300173535
    6    6    6    5        0.0789201026
    6    6    6    6        0.6783910536
    7    6    1    1        0.0124658866
    7    6    2    1        0.0026599721
    7    6    4    1       -0.0047183094
    7    6    5    1       -0.0048731082
    7    6    6    1       -0.0063397164
    7    6    7    1        0.0066367705
    7    6    2    2        0.0259902055
    7    6    4    2       -0.0158501180
    7    6    5    2       -0.0119821739
    7    6    6    2       -0.0106920118
    7    6    7    2        0.0087089310
    7    6    3    3        0.0038304307
    7    6    4    4       -0.0127424913
    7    6    5    4       -0.0185795863
    7    6    6    4       -0.0183648366
    7    6    7    4       -0.0066797263
    7    6    5    5        0.0021839819
    7    6    6    5       -0.0027709347
    7    6    7    5        0.0172512916
    7    6    6    6        0.0040945053
    7    6    7    6        0.0241863205
    8    6    3    1       -0.0056320203
    8    6    8    1        0.0078582311
    8    6    3    2       -0.0214618641
    8    6    8    2        0.0081990366
    8    6    4    3       -0.0048096159
    8    6    5    3       -0.0189631139
    8    6    6    3       -0.0165129368
    8    6    7    3        0.0022767775
    8    6    8    4        0.0006805366
    8    6    8    5        0.0066018194
    8    6    8    6        0.0203674902
    7    7    1    1        1.0528120615
    7    7    2    1        0.0007521690
    7    7    4    1        0.0081445311
    7    7    5    1       -0.0020541506
    7    7    6    1       -0.0075629934
    7    7    7    1       -0.0141086801
    7    7    2    2        0.6306899989
    7    7    4    2        0.0712971572
    7    7    5    2       -0.0123644529
    7    7    6    2        0.0111092224
    7    7    7    2       -0.0312966937
    7    7    3    3        0.6195805751
    7    7    4    4        0.7377260484
    7    7    5    4        0.0054796966
    7    7    6    4        0.0033849107
    7    7    7    4       -0.1186508745
    7    7    5    5        0.5133963602
    7    7    6    5        0.1955298717
    7    7    7    5       -0.0028854477
    7    7    6    6        0.5222689973
    7    7    7    6       -0.0104937633
    7    7    7    7        0.7726957559
    8    7    3    1        0.0068824654
    8    7    8    1       -0.0093921972
    8    7    3    2        0.0235652115
    8    7    8    2       -0.0086671966
    8    7    4    3        0.0265614926
    8    7    5    3        0.0025661457
    8    7    6    3        0.0025544943
    8    7    7    3       -0.0171541180
    8    7    8    4       -0.0070102288
    8    7    8    5        0.0001154098
    8    7    8    6       -0.0045821258
    8    7    8    7        0.0276694903
    8    8    1    1        0.9858418461
    8    8    2    1        0.0023604745
    8    8    4    1       -0.0041294251
    8    8    5    1       -0.0016626558
    8    8    6    1       -0.0057613125
    8    8    7    1        0.0065242546
    8    8    2    2        0.6106572277
    8    8    4    2        0.0044410304
    8    8    5    2       -0.0011312965
    8    8    6    2        0.0176613244
    8    8    7    2       -0.0090834615
    8    8    3    3        0.6183499462
    8    8    8    3       -0.1801921479
    8    8    4    4        0.5379655481
    8    8    5    4        0.0065374669
    8    8    6    4        0.0044735669
    8    8    7    4       -0.1497159765
    8    8    5    5        0.4895263666
    8    8    6    5        0.1601501480
    8    8    7    5        0.0043134740
    8    8    6    6        0.5011151342
    8    8    7    6        0.0032828514
    8    8    7    7        0.5529788021
    8    8    8    8        0.5612247535
 end_two_electron_integrals
 enrep_tce =    7.7599447104062085     
  EHF(A)             =       -75.96365729
  EHF(total)         =       -75.96365729
  Shift (HFtot-HFA)  =         0.00000000
 Cpu & wall time / sec            0.3            0.3
 T1-number-of-tasks                   15

 t1 file size   =               15
 t1 file name   = ./H2O.t1
 t1 file handle =       -998
 T2-number-of-boxes                  315

 t2 file size   =              315
 t2 file name   = ./H2O.t2
 t2 file handle =       -996
CCSD iterations
 ---------------------------------------------------------
 Iter          Residuum       Correlation     Cpu    Wall 
 ---------------------------------------------------------
NEW TASK SCHEDULING
CCSD_T1_NTS --- OK
CCSD_T2_NTS --- OK
    1   0.6285213598395  -0.2414135666991     2.1     3.0
    2   0.9023209816789   0.0580162194632     2.1     3.0
    3   1.3141262324801  -0.3676610073018     2.3     3.0
    4   1.9324623827638   0.2412617277600     2.2     3.0
    5   2.8197525387378  -0.6511379526106     2.2     3.0
 MICROCYCLE DIIS UPDATE:                    5                    5
    6   0.0157496498380  -0.1175205820142     2.2     3.0
    7   0.0161493937316  -0.1136323247996     2.1     3.0
    8   0.0208554595855  -0.1181734580031     2.2     3.0
    9   0.0301716074011  -0.1122794605473     2.2     3.0
   10   0.0467380629373  -0.1202956585396     2.1     3.0
 MICROCYCLE DIIS UPDATE:                   10                    5
   11   0.0002624008548  -0.1156418219113     2.2     3.0
   12   0.0002251742702  -0.1156967546476     2.1     3.0
   13   0.0003051885200  -0.1156302806765     2.2     3.0
   14   0.0004528399699  -0.1157321972554     2.1     3.0
   15   0.0006924965861  -0.1155790740810     2.0     3.0
 MICROCYCLE DIIS UPDATE:                   15                    5
   16   0.0000144536331  -0.1156721256044     2.1     3.0
   17   0.0000130551244  -0.1156698084567     2.2     3.0
   18   0.0000199306710  -0.1156732481172     2.2     3.0
   19   0.0000320266244  -0.1156684752227     2.1     3.0
   20   0.0000523735740  -0.1156752702665     2.1     3.0
 MICROCYCLE DIIS UPDATE:                   20                    5
   21   0.0000002394693  -0.1156712660542     2.2     3.0
   22   0.0000001785617  -0.1156712899980     2.2     3.0
   23   0.0000002155159  -0.1156712436733     2.3     3.0
   24   0.0000003142027  -0.1156713197989     2.2     3.0
   25   0.0000004745885  -0.1156712042681     2.1     3.0
 MICROCYCLE DIIS UPDATE:                   25                    5
   26   0.0000000100340  -0.1156712748087     2.2     3.0
 -----------------------------------------------------------------
 Iterations converged
 CCSD correlation energy / hartree =        -0.115671274808743
 CCSD total energy / hartree       =       -76.079328560746120

 Singles contributions

 Doubles contributions
     6a   (alpha)     7a   (alpha) ---     4a   (alpha)     5a   (alpha)       -0.0224023602
     6a   (alpha)     8a   (alpha) ---     3a   (alpha)     5a   (alpha)       -0.0318643534
     6a   (alpha)     6a   (beta ) ---     5a   (alpha)     5a   (beta )       -0.1684738229
     6a   (alpha)     7a   (beta ) ---     5a   (alpha)     4a   (beta )        0.0371446763
     6a   (alpha)     8a   (beta ) ---     5a   (alpha)     3a   (beta )        0.0448372969
     7a   (alpha)     8a   (alpha) ---     3a   (alpha)     4a   (alpha)        0.0311543110
     7a   (alpha)     6a   (beta ) ---     4a   (alpha)     5a   (beta )        0.0371446763
     7a   (alpha)     7a   (beta ) ---     4a   (alpha)     4a   (beta )       -0.0872688787
     7a   (alpha)     8a   (beta ) ---     4a   (alpha)     3a   (beta )       -0.0421458096
     8a   (alpha)     6a   (beta ) ---     3a   (alpha)     5a   (beta )        0.0448372969
     8a   (alpha)     7a   (beta ) ---     3a   (alpha)     4a   (beta )       -0.0421458096
     8a   (alpha)     8a   (beta ) ---     3a   (alpha)     3a   (beta )       -0.0626852678
 Ground state specification:
 exp(T)|Ref>~(1+T)|Ref>
 ------- a(p)+/a(q) strings ----------

 singles norm

 doubles norm

 Reference string
  0.98610341998794715      :(1a)+ (2a)+ (3a)+ (4a)+ (5a)+ (1b)+ (2b)+ (3b)+ (4b)+ (5b)+ |0>

 Singles strings

 Doubles strings
 -0.16613261295746393      :(6a)+ (6b)+ (5b)  (5a)  (1a)+ (2a)+ (3a)+ (4a)+ (5a)+ (1b)+ (2b)+ (3b)+ (4b)+ (5b)+ |0>
 -------------------------------------

 Parallel integral file used       3 records with       0 large values


 Task  times  cpu:       56.9s     wall:       78.8s


                                NWChem Input Module
                                -------------------


 Summary of allocated global arrays
-----------------------------------
  No active global arrays


MA_summarize_allocated_blocks: starting scan ...
MA_summarize_allocated_blocks: scan completed: 0 heap blocks, 0 stack blocks
MA usage statistics:

	allocation statistics:
					      heap	     stack
					      ----	     -----
	current number of blocks	         0	         0
	maximum number of blocks	        18	        42
	current total bytes		         0	         0
	maximum total bytes		   5323032	  24073272
	maximum total K-bytes		      5324	     24074
	maximum total M-bytes		         6	        25


                                     CITATION
                                     --------
                Please cite the following reference when publishing
                           results obtained with NWChem:

          E. Apra, E. J. Bylaska, W. A. de Jong, N. Govind, K. Kowalski,
       T. P. Straatsma, M. Valiev, H. J. J. van Dam, Y. Alexeev, J. Anchell,
       V. Anisimov, F. W. Aquino, R. Atta-Fynn, J. Autschbach, N. P. Bauman,
     J. C. Becca, D. E. Bernholdt, K. Bhaskaran-Nair, S. Bogatko, P. Borowski,
         J. Boschen, J. Brabec, A. Bruner, E. Cauet, Y. Chen, G. N. Chuev,
      C. J. Cramer, J. Daily, M. J. O. Deegan, T. H. Dunning Jr., M. Dupuis,
   K. G. Dyall, G. I. Fann, S. A. Fischer, A. Fonari, H. Fruchtl, L. Gagliardi,
      J. Garza, N. Gawande, S. Ghosh, K. Glaesemann, A. W. Gotz, J. Hammond,
       V. Helms, E. D. Hermes, K. Hirao, S. Hirata, M. Jacquelin, L. Jensen,
   B. G. Johnson, H. Jonsson, R. A. Kendall, M. Klemm, R. Kobayashi, V. Konkov,
      S. Krishnamoorthy, M. Krishnan, Z. Lin, R. D. Lins, R. J. Littlefield,
      A. J. Logsdail, K. Lopata, W. Ma, A. V. Marenich, J. Martin del Campo,
   D. Mejia-Rodriguez, J. E. Moore, J. M. Mullin, T. Nakajima, D. R. Nascimento,
    J. A. Nichols, P. J. Nichols, J. Nieplocha, A. Otero-de-la-Roza, B. Palmer,
    A. Panyala, T. Pirojsirikul, B. Peng, R. Peverati, J. Pittner, L. Pollack,
   R. M. Richard, P. Sadayappan, G. C. Schatz, W. A. Shelton, D. W. Silverstein,
   D. M. A. Smith, T. A. Soares, D. Song, M. Swart, H. L. Taylor, G. S. Thomas,
            V. Tipparaju, D. G. Truhlar, K. Tsemekhman, T. Van Voorhis,
      A. Vazquez-Mayagoitia, P. Verma, O. Villa, A. Vishnu, K. D. Vogiatzis,
        D. Wang, J. H. Weare, M. J. Williamson, T. L. Windus, K. Wolinski,
        A. T. Wong, Q. Wu, C. Yang, Q. Yu, M. Zacharias, Z. Zhang, Y. Zhao,
                                and R. J. Harrison
                        "NWChem: Past, present, and future
                         J. Chem. Phys. 152, 184102 (2020)
                               doi:10.1063/5.0004997

                                      AUTHORS
                                      -------
  E. Apra, E. J. Bylaska, N. Govind, K. Kowalski, M. Valiev, D. Mejia-Rodriguez,
       A. Kunitsa, N. P. Bauman, A. Panyala, W. A. de Jong, T. P. Straatsma,
        H. J. J. van Dam, D. Wang, T. L. Windus, J. Hammond, J. Autschbach,
    K. Bhaskaran-Nair, J. Brabec, K. Lopata, S. A. Fischer, S. Krishnamoorthy,
     M. Jacquelin, W. Ma, M. Klemm, O. Villa, Y. Chen, V. Anisimov, F. Aquino,
    S. Hirata, M. T. Hackler, Eric Hermes, L. Jensen, J. E. Moore, J. C. Becca,
      V. Konjkov, T. Risthaus, M. Malagoli, A. Marenich, A. Otero-de-la-Roza,
        J. Mullin, P. Nichols, R. Peverati, J. Pittner, Y. Zhao, P.-D. Fan,
        A. Fonari, M. J. Williamson, R. J. Harrison, J. R. Rehr, M. Dupuis,
     D. Silverstein, D. M. A. Smith, J. Nieplocha, V. Tipparaju, M. Krishnan,
     B. E. Van Kuiken, A. Vazquez-Mayagoitia, M. Swart, Q. Wu, T. Van Voorhis,
     A. A. Auer, M. Nooijen, L. D. Crosby, E. Brown, G. Cisneros, G. I. Fann,
   H. Fruchtl, J. Garza, K. Hirao, R. A. Kendall, J. A. Nichols, K. Tsemekhman,
    K. Wolinski, J. Anchell, D. E. Bernholdt, P. Borowski, T. Clark, D. Clerc,
   H. Dachsel, M. J. O. Deegan, K. Dyall, D. Elwood, E. Glendening, M. Gutowski,
   A. C. Hess, J. Jaffe, B. G. Johnson, J. Ju, R. Kobayashi, R. Kutteh, Z. Lin,
   R. Littlefield, X. Long, B. Meng, T. Nakajima, S. Niu, L. Pollack, M. Rosing,
   K. Glaesemann, G. Sandrone, M. Stave, H. Taylor, G. Thomas, J. H. van Lenthe,
                               A. T. Wong, Z. Zhang.

 Total times  cpu:       60.1s     wall:       84.0s
