 argument  1 = input.nw
  NWChem w/ OpenMP: maximum threads =    1



============================== echo of input deck ==============================
 echo
 start H2O
 title "H2O"

 memory total 24 gb

 geometry units bohr
 symmetry c1
        O  0.00000000  0.00000000  0.00000000
        H  0.00000000  2.5992645  0.00000000
        H  1.72558000 -0.64860000  0.00000000
 end

 basis spherical
   * library 6-311++G**
 end

 mcscf
   active  8
   actelec 10
   multiplicity 1
   maxiter 40
   vectors input h2o.mos
   vectors output h2o.mos
 end

 task mcscf

 scf
   vectors input h2o.mos
   vectors output h2o-trash.mos
   noscf
 end

 tce
   2eorb
   2emet 13
   ccsd
   maxiter 300
 end

 set tce:print_integrals T
 set tce:qorb 8
 set tce:qela 5
 set tce:qelb 5

# set tce:qducc T
# set tce:nactv 3
# set tce:nonhf T
# set tce:ducc_model 6

 set tce:printtol 0.02

 task tce
================================================================================


                                         
                                         


             Northwest Computational Chemistry Package (NWChem) 7.0.1
             --------------------------------------------------------


                    Environmental Molecular Sciences Laboratory
                       Pacific Northwest National Laboratory
                                Richland, WA 99352

                              Copyright (c) 1994-2020
                       Pacific Northwest National Laboratory
                            Battelle Memorial Institute

             NWChem is an open-source computational chemistry package
                        distributed under the terms of the
                      Educational Community License (ECL) 2.0
             A copy of the license is included with this distribution
                              in the LICENSE.TXT file

                                  ACKNOWLEDGMENT
                                  --------------

            This software and its documentation were developed at the
            EMSL at Pacific Northwest National Laboratory, a multiprogram
            national laboratory, operated for the U.S. Department of Energy
            by Battelle under Contract Number DE-AC05-76RL01830. Support
            for this work was provided by the Department of Energy Office
            of Biological and Environmental Research, Office of Basic
            Energy Sciences, and the Office of Advanced Scientific Computing.


           Job information
           ---------------

    hostname        = WE46210
    program         = /home/baum612/code/nwchem/bin/LINUX64/nwchem
    date            = Wed Sep  4 16:04:55 2024

    compiled        = Wed_Sep_04_02:00:17_2024
    source          = /home/baum612/code/nwchem
    nwchem branch   = 7.0.0
    nwchem revision = nwchem_on_git-4191-g39d87d64de
    ga revision     = 5.8.1
    use scalapack   = F
    input           = input.nw
    prefix          = H2O.
    data base       = ./H2O.db
    status          = startup
    nproc           =        1
    time left       =     -1s



           Memory information
           ------------------

    heap     =  805306366 doubles =   6144.0 Mbytes
    stack    =  805306363 doubles =   6144.0 Mbytes
    global   = 1610612736 doubles =  12288.0 Mbytes (distinct from heap & stack)
    total    = 3221225465 doubles =  24576.0 Mbytes
    verify   = yes
    hardfail = no 


           Directory information
           ---------------------

  0 permanent = .
  0 scratch   = .




                                NWChem Input Module
                                -------------------


                                        H2O
                                        ---
 Turning off AUTOSYM since
 SYMMETRY directive was detected!


          ------
          auto-z
          ------
  autoz: The atoms group into disjoint clusters
 cluster   1:    1    3
 cluster   2:    2
 Connecting clusters   1   2 via atoms    1    2 r = 1.38
  autoz: regenerating connections with new bonds
  no constraints, skipping    0.0000000000000000     
  no constraints, skipping    0.0000000000000000     


                             Geometry "geometry" -> ""
                             -------------------------

 Output coordinates in a.u. (scale by  1.000000000 to convert to a.u.)

  No.       Tag          Charge          X              Y              Z
 ---- ---------------- ---------- -------------- -------------- --------------
    1 O                    8.0000    -0.17255800    -0.19506645     0.00000000
    2 H                    1.0000    -0.17255800     2.40419805     0.00000000
    3 H                    1.0000     1.55302200    -0.84366645     0.00000000

      Atomic Mass 
      ----------- 

      O                 15.994910
      H                  1.007825


 Effective nuclear repulsion energy (a.u.)       7.6893839611

            Nuclear Dipole moment (a.u.) 
            ----------------------------
        X                 Y               Z
 ---------------- ---------------- ----------------
    -0.0000000000     0.0000000000     0.0000000000



                                Z-matrix (autoz)
                                -------- 

 Units are Angstrom for bonds and degrees for angles

      Type          Name      I     J     K     L     M      Value
      ----------- --------  ----- ----- ----- ----- ----- ----------
    1 Stretch                  1     2                       1.37547
    2 Stretch                  1     3                       0.97551
    3 Bend                     2     1     3               110.59992


            XYZ format geometry
            -------------------
     3
 geometry
 O                    -0.09131377    -0.10322473     0.00000000
 H                    -0.09131377     1.27224691     0.00000000
 H                     0.82182391    -0.44644909     0.00000000

 ==============================================================================
                                internuclear distances
 ------------------------------------------------------------------------------
       center one      |      center two      | atomic units |       a.u.
 ------------------------------------------------------------------------------
    3 H                |   1 O                |     1.84345  |     1.84345
 ------------------------------------------------------------------------------
                         number of included internuclear distances:          1
 ==============================================================================





 Summary of "ao basis" -> "" (spherical)
 ------------------------------------------------------------------------------
       Tag                 Description            Shells   Functions and Types
 ---------------- ------------------------------  ------  ---------------------
 *                         6-311++G**                 on all atoms 


                      Basis "ao basis" -> "ao basis" (spherical)
                      -----
  O (Oxygen)
  ----------
            Exponent  Coefficients 
       -------------- ---------------------------------------------------------
  1 S  8.58850000E+03  0.001895
  1 S  1.29723000E+03  0.014386
  1 S  2.99296000E+02  0.070732
  1 S  8.73771000E+01  0.240001
  1 S  2.56789000E+01  0.594797
  1 S  3.74004000E+00  0.280802

  2 S  4.21175000E+01  0.113889
  2 S  9.62837000E+00  0.920811
  2 S  2.85332000E+00 -0.003274

  3 P  4.21175000E+01  0.036511
  3 P  9.62837000E+00  0.237153
  3 P  2.85332000E+00  0.819702

  4 S  9.05661000E-01  1.000000

  5 P  9.05661000E-01  1.000000

  6 S  2.55611000E-01  1.000000

  7 P  2.55611000E-01  1.000000

  8 S  8.45000000E-02  1.000000

  9 P  8.45000000E-02  1.000000

 10 D  1.29200000E+00  1.000000

  H (Hydrogen)
  ------------
            Exponent  Coefficients 
       -------------- ---------------------------------------------------------
  1 S  3.38650000E+01  0.025494
  1 S  5.09479000E+00  0.190373
  1 S  1.15879000E+00  0.852161

  2 S  3.25840000E-01  1.000000

  3 S  1.02741000E-01  1.000000

  4 S  3.60000000E-02  1.000000

  5 P  7.50000000E-01  1.000000



 Summary of "ao basis" -> "ao basis" (spherical)
 ------------------------------------------------------------------------------
       Tag                 Description            Shells   Functions and Types
 ---------------- ------------------------------  ------  ---------------------
 O                         6-311++G**               10       22   5s4p1d
 H                         6-311++G**                5        7   4s1p



                            NWChem Direct MCSCF Module
                            --------------------------


                                        H2O


     -----------------------------------
       Basis functions:             36
       Inactive shells:              0
       Active shells:                8
       Active electrons:            10
       Symmetry:                    a       
       Multiplicity:                 1
       Orbital rotations:          224
     -----------------------------------

     -----------------------------------
       E2 extrapolation:             F
       Conjugacy:                    T
       Micro CI relax:               T
       Canonical orbitals:           T
       Maximum iterations:          40
       Converge threshold:    1.00E-04
       Conjugacy resets:            20
       Initial levelshift:        0.10
     -----------------------------------

 Loading old vectors from job with title :

H2O


   input molecular orbitals = ./h2o.mos
  output molecular orbtials = ./h2o.mos

       No. of determinants:          3136


  Starting Orbital Energies
   -20.587017    -1.305106    -0.678132    -0.550156    -0.526087    -0.048954
    -0.026331    -0.016374     0.075353     0.086942     0.236924     0.281223
     0.319806     0.483707     0.499711     0.658430     1.032541     1.199372
     1.478868     1.572149     1.584834     1.683178     1.686505     2.009081
     2.279324     2.727509     2.817425     3.229819     3.463095     3.492254
     3.789919     4.180316     5.344494     5.527840     5.959357    51.505260

  Orbital Symmetry Irreps
a    a    a    a    a    a    a    a    a    a    a    a    a    a    a   
a    a    a    a    a    a    a    a    a    a    a    a    a    a    a   
a    a    a    a    a    a   

 Integral file          = ./H2O.aoints.0
 Record size in doubles =  65536        No. of integs per rec  =  43688
 Max. records in memory =     10        Max. records in file   = 232553
 No. of bits per label  =      8        No. of bits per value  =     64


 #quartets = 2.216D+04 #integrals = 1.003D+05 #direct =  0.0% #cached =100.0%




          %%%%% MacroIteration   1 %%%%%


          Number of sigma calls:       17
                       o<<<<< (aa):             0.00
                       o<<<<< (bb):             0.00
                       o<<<<< (ab):             0.07
                       o<<<<< (total)           0.07
                       o<<<<< (aa) ff           0.00
                       o<<<<< (aa) gop          0.00
                       o<<<<< (aa) dot          0.00
                       o<<<<< (ab) str          0.00
                       o<<<<< (ab) gath         0.00
                       o<<<<< (ab) dotab        0.00
                       o<<<<< (ab) scat         0.00
                       o<<<<< (ab) sync         0.00
                       o<<<<< Density           0.01
                       o<<<<< Density one       0.00
                       o<<<<< Density two       0.00
                       o<<<<< Density ab        0.01
                       o<<<<< Spin adapt        0.25
                       o<<<<< Symm adapt        0.00

                       o<<<<< (ab) max sync:      0.00

           >>>| Valence CI:            -83.763228122917
           >>>| MCSCF energy:          -76.073844161856
           >>>| Gradient norm:          0.121059403D-01

                              ----- Line search ------

        step       energy         lsg     num-lsg   num-lsh   lsrat    time
      ------- ---------------- --------- --------- --------- ------- --------
       0.0000     -76.07384416 -1.89D-05  0.00D+00  0.00D+00 0.0D+00      0.6

          Number of sigma calls:       15
                       o<<<<< (aa):             0.00
                       o<<<<< (bb):             0.00
                       o<<<<< (ab):             0.06
                       o<<<<< (total)           0.06
                       o<<<<< (aa) ff           0.00
                       o<<<<< (aa) gop          0.00
                       o<<<<< (aa) dot          0.00
                       o<<<<< (ab) str          0.00
                       o<<<<< (ab) gath         0.00
                       o<<<<< (ab) dotab        0.00
                       o<<<<< (ab) scat         0.00
                       o<<<<< (ab) sync         0.00
                       o<<<<< Density           0.00
                       o<<<<< Density one       0.00
                       o<<<<< Density two       0.00
                       o<<<<< Density ab        0.00
                       o<<<<< Spin adapt        0.27
                       o<<<<< Symm adapt        0.00

                       o<<<<< (ab) max sync:      0.00
       1.0000     -76.07385439 -1.56D-06 -1.56D-06  1.73D-05 8.3D-02      1.0
     --- Orbitals canonicalized ---



          %%%%% MacroIteration   2 %%%%%


          Number of sigma calls:       15
                       o<<<<< (aa):             0.00
                       o<<<<< (bb):             0.00
                       o<<<<< (ab):             0.06
                       o<<<<< (total)           0.06
                       o<<<<< (aa) ff           0.00
                       o<<<<< (aa) gop          0.00
                       o<<<<< (aa) dot          0.00
                       o<<<<< (ab) str          0.00
                       o<<<<< (ab) gath         0.00
                       o<<<<< (ab) dotab        0.00
                       o<<<<< (ab) scat         0.00
                       o<<<<< (ab) sync         0.00
                       o<<<<< Density           0.00
                       o<<<<< Density one       0.00
                       o<<<<< Density two       0.00
                       o<<<<< Density ab        0.00
                       o<<<<< Spin adapt        0.25
                       o<<<<< Symm adapt        0.00

                       o<<<<< (ab) max sync:      0.00

           >>>| Valence CI:            -83.763238354063
           >>>| MCSCF energy:          -76.073854393002
           >>>| Gradient norm:          0.121605802D-02
     --- Warning:    3 Hessian diagonals < 0.05 ---
     --- Conjugacy reset ---

                              ----- Line search ------

        step       energy         lsg     num-lsg   num-lsh   lsrat    time
      ------- ---------------- --------- --------- --------- ------- --------
       0.0000     -76.07385439 -5.64D-07  0.00D+00  0.00D+00 0.0D+00      1.4

          Number of sigma calls:       12
                       o<<<<< (aa):             0.00
                       o<<<<< (bb):             0.00
                       o<<<<< (ab):             0.04
                       o<<<<< (total)           0.05
                       o<<<<< (aa) ff           0.00
                       o<<<<< (aa) gop          0.00
                       o<<<<< (aa) dot          0.00
                       o<<<<< (ab) str          0.00
                       o<<<<< (ab) gath         0.00
                       o<<<<< (ab) dotab        0.00
                       o<<<<< (ab) scat         0.00
                       o<<<<< (ab) sync         0.00
                       o<<<<< Density           0.01
                       o<<<<< Density one       0.00
                       o<<<<< Density two       0.00
                       o<<<<< Density ab        0.00
                       o<<<<< Spin adapt        0.26
                       o<<<<< Symm adapt        0.00

                       o<<<<< (ab) max sync:      0.00
       1.0000     -76.07385478 -2.18D-07 -2.18D-07  3.45D-07 3.9D-01      1.7

          Number of sigma calls:       12
                       o<<<<< (aa):             0.00
                       o<<<<< (bb):             0.00
                       o<<<<< (ab):             0.05
                       o<<<<< (total)           0.06
                       o<<<<< (aa) ff           0.00
                       o<<<<< (aa) gop          0.00
                       o<<<<< (aa) dot          0.00
                       o<<<<< (ab) str          0.00
                       o<<<<< (ab) gath         0.00
                       o<<<<< (ab) dotab        0.00
                       o<<<<< (ab) scat         0.00
                       o<<<<< (ab) sync         0.00
                       o<<<<< Density           0.01
                       o<<<<< Density one       0.00
                       o<<<<< Density two       0.00
                       o<<<<< Density ab        0.01
                       o<<<<< Spin adapt        0.21
                       o<<<<< Symm adapt        0.00

                       o<<<<< (ab) max sync:      0.00
       1.6319     -76.07385485  6.19D-10  5.82D-10  3.46D-07 1.1D-03      2.1



          %%%%% MacroIteration   3 %%%%%


          Number of sigma calls:        1
                       o<<<<< (aa):             0.00
                       o<<<<< (bb):             0.00
                       o<<<<< (ab):             0.00
                       o<<<<< (total)           0.00
                       o<<<<< (aa) ff           0.00
                       o<<<<< (aa) gop          0.00
                       o<<<<< (aa) dot          0.00
                       o<<<<< (ab) str          0.00
                       o<<<<< (ab) gath         0.00
                       o<<<<< (ab) dotab        0.00
                       o<<<<< (ab) scat         0.00
                       o<<<<< (ab) sync         0.00
                       o<<<<< Density           0.00
                       o<<<<< Density one       0.00
                       o<<<<< Density two       0.00
                       o<<<<< Density ab        0.00
                       o<<<<< Spin adapt        0.00
                       o<<<<< Symm adapt        0.00

                       o<<<<< (ab) max sync:      0.00

           >>>| Valence CI:            -83.763238814077
           >>>| MCSCF energy:          -76.073854853015
           >>>| Gradient norm:          0.186591095D-03
     --- Warning:    3 Hessian diagonals < 0.05 ---

                              ----- Line search ------

        step       energy         lsg     num-lsg   num-lsh   lsrat    time
      ------- ---------------- --------- --------- --------- ------- --------
       0.0000     -76.07385485 -1.07D-08  0.00D+00  0.00D+00 0.0D+00      2.1

          Number of sigma calls:       10
                       o<<<<< (aa):             0.00
                       o<<<<< (bb):             0.00
                       o<<<<< (ab):             0.03
                       o<<<<< (total)           0.04
                       o<<<<< (aa) ff           0.00
                       o<<<<< (aa) gop          0.00
                       o<<<<< (aa) dot          0.00
                       o<<<<< (ab) str          0.00
                       o<<<<< (ab) gath         0.00
                       o<<<<< (ab) dotab        0.00
                       o<<<<< (ab) scat         0.00
                       o<<<<< (ab) sync         0.00
                       o<<<<< Density           0.01
                       o<<<<< Density one       0.00
                       o<<<<< Density two       0.00
                       o<<<<< Density ab        0.01
                       o<<<<< Spin adapt        0.23
                       o<<<<< Symm adapt        0.00

                       o<<<<< (ab) max sync:      0.00
       1.0000     -76.07385486 -1.70D-09 -1.71D-09  9.03D-09 1.6D-01      2.4

          Number of sigma calls:        9
                       o<<<<< (aa):             0.00
                       o<<<<< (bb):             0.00
                       o<<<<< (ab):             0.03
                       o<<<<< (total)           0.03
                       o<<<<< (aa) ff           0.00
                       o<<<<< (aa) gop          0.00
                       o<<<<< (aa) dot          0.00
                       o<<<<< (ab) str          0.00
                       o<<<<< (ab) gath         0.00
                       o<<<<< (ab) dotab        0.00
                       o<<<<< (ab) scat         0.00
                       o<<<<< (ab) sync         0.00
                       o<<<<< Density           0.00
                       o<<<<< Density one       0.00
                       o<<<<< Density two       0.00
                       o<<<<< Density ab        0.00
                       o<<<<< Spin adapt        0.18
                       o<<<<< Symm adapt        0.00

                       o<<<<< (ab) max sync:      0.00
       1.1888     -76.07385486  2.98D-14  3.99D-12  9.03D-09 2.8D-06      2.7



          %%%%% MacroIteration   4 %%%%%


          Number of sigma calls:        1
                       o<<<<< (aa):             0.00
                       o<<<<< (bb):             0.00
                       o<<<<< (ab):             0.00
                       o<<<<< (total)           0.00
                       o<<<<< (aa) ff           0.00
                       o<<<<< (aa) gop          0.00
                       o<<<<< (aa) dot          0.00
                       o<<<<< (ab) str          0.00
                       o<<<<< (ab) gath         0.00
                       o<<<<< (ab) dotab        0.00
                       o<<<<< (ab) scat         0.00
                       o<<<<< (ab) sync         0.00
                       o<<<<< Density           0.01
                       o<<<<< Density one       0.00
                       o<<<<< Density two       0.00
                       o<<<<< Density ab        0.01
                       o<<<<< Spin adapt        0.00
                       o<<<<< Symm adapt        0.00

                       o<<<<< (ab) max sync:      0.00

           >>>| Valence CI:            -83.763238820458
           >>>| MCSCF energy:          -76.073854859396
           >>>| Gradient norm:          0.326129502D-04




     ==============================
            MCSCF Converged
     ==============================



          Canonical Eigenvalues

              1      
    1  -20.5876
    2   -1.3047
    3   -0.6773
    4   -0.5487
    5   -0.5262
    6   -0.0498
    7   -0.0263
    8   -0.0163
    9    0.0754
   10    0.0869
   11    0.2370
   12    0.2813
   13    0.3199
   14    0.4840
   15    0.4996
   16    0.6589
   17    1.0333
   18    1.2030
   19    1.4795
   20    1.5723
   21    1.5804
   22    1.6800
   23    1.6851
   24    2.0097
   25    2.2787
   26    2.7245
   27    2.8166
   28    3.2269
   29    3.4604
   30    3.4921
   31    3.7786
   32    4.1803
   33    5.3447
   34    5.5247
   35    5.9587
   36   51.5049


          Converged CI vector

   Index           Coefficient          Config. Occupation
         1          0.95766538          1  2  3  4  5  1  2  3  4  5
        22          0.07819001          1  2  3  4  5  1  2  3  4  8
         3         -0.06783122          1  2  3  4  5  1  2  3  5  6
         8          0.02094735          1  2  3  4  5  1  2  3  5  7
        27         -0.02212233          1  2  3  4  5  1  2  3  6  8
         4          0.02568847          1  2  3  4  5  1  2  4  5  6
         9          0.04350545          1  2  3  4  5  1  2  4  5  7
        38          0.02361920          1  2  3  4  5  1  2  4  7  8
      1177          0.07819001          1  2  3  4  8  1  2  3  4  5
      1198         -0.05522122          1  2  3  4  8  1  2  3  4  8
      1179          0.03150375          1  2  3  4  8  1  2  3  5  6
      1185         -0.03123771          1  2  3  4  8  1  2  4  5  7
       113         -0.06783122          1  2  3  5  6  1  2  3  4  5
       134          0.03150375          1  2  3  5  6  1  2  3  4  8
       115         -0.13025458          1  2  3  5  6  1  2  3  5  6
       116          0.06208612          1  2  3  5  6  1  2  4  5  6
       121          0.02187369          1  2  3  5  6  1  2  4  5  7
       117         -0.02267921          1  2  3  5  6  1  3  4  5  6
       393          0.02094735          1  2  3  5  7  1  2  3  4  5
       401         -0.02083231          1  2  3  5  7  1  2  4  5  7
      1457         -0.02212233          1  2  3  6  8  1  2  3  4  5
       169          0.02568847          1  2  4  5  6  1  2  3  4  5
       171          0.06208612          1  2  4  5  6  1  2  3  5  6
       172         -0.04247261          1  2  4  5  6  1  2  4  5  6
       449          0.04350545          1  2  4  5  7  1  2  3  4  5
       470         -0.03123771          1  2  4  5  7  1  2  3  4  8
       451          0.02187369          1  2  4  5  7  1  2  3  5  6
       456         -0.02083231          1  2  4  5  7  1  2  3  5  7
       457         -0.06054554          1  2  4  5  7  1  2  4  5  7
       458         -0.02659157          1  2  4  5  7  1  3  4  5  7
      2073          0.02361920          1  2  4  7  8  1  2  3  4  5
       227         -0.02267921          1  3  4  5  6  1  2  3  5  6
       229         -0.02217147          1  3  4  5  6  1  3  4  5  6
       513         -0.02659157          1  3  4  5  7  1  2  4  5  7
       514         -0.02573394          1  3  4  5  7  1  3  4  5  7

          Number of sigma calls:        1
                       o<<<<< (aa):             0.00
                       o<<<<< (bb):             0.00
                       o<<<<< (ab):             0.00
                       o<<<<< (total)           0.00
                       o<<<<< (aa) ff           0.00
                       o<<<<< (aa) gop          0.00
                       o<<<<< (aa) dot          0.00
                       o<<<<< (ab) str          0.00
                       o<<<<< (ab) gath         0.00
                       o<<<<< (ab) dotab        0.00
                       o<<<<< (ab) scat         0.00
                       o<<<<< (ab) sync         0.00
                       o<<<<< Density           0.01
                       o<<<<< Density one       0.00
                       o<<<<< Density two       0.00
                       o<<<<< Density ab        0.01
                       o<<<<< Spin adapt        0.00
                       o<<<<< Symm adapt        0.00

                       o<<<<< (ab) max sync:      0.00



          Natural orbital occupation numbers

              1      
    1    2.0000
    2    1.9981
    3    1.9782
    4    1.9738
    5    1.9267
    6    0.0751
    7    0.0270
    8    0.0211


          Number of sigma calls:       17
                       o<<<<< (aa):             0.00
                       o<<<<< (bb):             0.00
                       o<<<<< (ab):             0.07
                       o<<<<< (total)           0.08
                       o<<<<< (aa) ff           0.00
                       o<<<<< (aa) gop          0.00
                       o<<<<< (aa) dot          0.00
                       o<<<<< (ab) str          0.00
                       o<<<<< (ab) gath         0.00
                       o<<<<< (ab) dotab        0.00
                       o<<<<< (ab) scat         0.00
                       o<<<<< (ab) sync         0.00
                       o<<<<< Density           0.01
                       o<<<<< Density one       0.00
                       o<<<<< Density two       0.00
                       o<<<<< Density ab        0.00
                       o<<<<< Spin adapt        0.26
                       o<<<<< Symm adapt        0.00

                       o<<<<< (ab) max sync:      0.00


       Final MCSCF results 
       ------------------- 

       Total MCSCF energy =    -76.073854859396
            Gradient norm =      3.3D-05

    CPU time for solution =      3.1s
   Wall time for solution =      5.3s



                        Analysis of MCSCF natural orbitals
                        ----------------------------------

 Vector    1  Occ=1.999991D+00  E=-2.058762D+01  Symmetry=a
              MO Center= -9.1D-02, -1.0D-01,  1.0D-13, r^2= 1.5D-02
   Bfn.  Coefficient  Atom+Function         Bfn.  Coefficient  Atom+Function  
  ----- ------------  ---------------      ----- ------------  ---------------
     1      0.557479  1 O  s                  2      0.482613  1 O  s          

 Vector    2  Occ=1.998139D+00  E=-1.304716D+00  Symmetry=a
              MO Center= -2.8D-01, -1.8D-01, -2.6D-11, r^2= 4.3D-01
   Bfn.  Coefficient  Atom+Function         Bfn.  Coefficient  Atom+Function  
  ----- ------------  ---------------      ----- ------------  ---------------
     6      0.585099  1 O  s                 10      0.501725  1 O  s          
     2     -0.172456  1 O  s          

 Vector    3  Occ=1.978204D+00  E=-6.772735D-01  Symmetry=a
              MO Center= -7.2D-02, -1.0D-01,  2.7D-11, r^2= 7.1D-01
   Bfn.  Coefficient  Atom+Function         Bfn.  Coefficient  Atom+Function  
  ----- ------------  ---------------      ----- ------------  ---------------
     9      0.439284  1 O  pz                13      0.407714  1 O  pz         
     5      0.292259  1 O  pz         

 Vector    4  Occ=1.973768D+00  E=-5.487458D-01  Symmetry=a
              MO Center=  3.3D-01, -2.2D-01,  3.7D-13, r^2= 6.1D-01
   Bfn.  Coefficient  Atom+Function         Bfn.  Coefficient  Atom+Function  
  ----- ------------  ---------------      ----- ------------  ---------------
     7      0.350364  1 O  px                31      0.278712  3 H  s          
     3      0.232973  1 O  px                11      0.233376  1 O  px         
    30      0.191872  3 H  s          

 Vector    5  Occ=1.926676D+00  E=-5.262262D-01  Symmetry=a
              MO Center= -5.0D-02,  4.8D-01, -3.3D-13, r^2= 9.3D-01
   Bfn.  Coefficient  Atom+Function         Bfn.  Coefficient  Atom+Function  
  ----- ------------  ---------------      ----- ------------  ---------------
     8      0.334828  1 O  py                24      0.286192  2 H  s          
    12      0.264461  1 O  py                 4      0.214441  1 O  py         

 Vector    6  Occ=7.509487D-02  E=-4.978451D-02  Symmetry=a
              MO Center= -5.8D-02,  7.2D-01, -3.2D-13, r^2= 9.1D-01
   Bfn.  Coefficient  Atom+Function         Bfn.  Coefficient  Atom+Function  
  ----- ------------  ---------------      ----- ------------  ---------------
    24     -0.501717  2 H  s                  8      0.470400  1 O  py         
     4      0.319621  1 O  py                23     -0.238632  2 H  s          
     6      0.235138  1 O  s          

 Vector    7  Occ=2.699258D-02  E=-2.633964D-02  Symmetry=a
              MO Center=  5.1D-01, -2.8D-01,  4.1D-12, r^2= 6.8D-01
   Bfn.  Coefficient  Atom+Function         Bfn.  Coefficient  Atom+Function  
  ----- ------------  ---------------      ----- ------------  ---------------
    31      0.574170  3 H  s                  7     -0.509979  1 O  px         
     3     -0.407616  1 O  px                 6     -0.378477  1 O  s          
    30      0.294310  3 H  s          

 Vector    8  Occ=2.113513D-02  E=-1.633904D-02  Symmetry=a
              MO Center= -5.3D-02, -9.5D-02,  4.8D-11, r^2= 1.5D+00
   Bfn.  Coefficient  Atom+Function         Bfn.  Coefficient  Atom+Function  
  ----- ------------  ---------------      ----- ------------  ---------------
    13      0.648017  1 O  pz                 5     -0.483486  1 O  pz         
     9     -0.471049  1 O  pz                17      0.314560  1 O  pz         

 Vector    9  Occ=0.000000D+00  E= 7.544939D-02  Symmetry=a
              MO Center=  6.2D-01,  4.8D-01,  2.8D-12, r^2= 1.1D+01
   Bfn.  Coefficient  Atom+Function         Bfn.  Coefficient  Atom+Function  
  ----- ------------  ---------------      ----- ------------  ---------------
    33      1.067610  3 H  s                 26      0.981470  2 H  s          
    14     -0.625135  1 O  s                 25     -0.590302  2 H  s          
    32     -0.427560  3 H  s                 10      0.241612  1 O  s          

 Vector   10  Occ=0.000000D+00  E= 8.694111D-02  Symmetry=a
              MO Center=  4.6D-01,  5.6D-01, -3.2D-12, r^2= 1.4D+01
   Bfn.  Coefficient  Atom+Function         Bfn.  Coefficient  Atom+Function  
  ----- ------------  ---------------      ----- ------------  ---------------
    26      2.259050  2 H  s                 33     -2.254458  3 H  s          
    25     -0.620812  2 H  s                 32      0.393479  3 H  s          
    16     -0.238947  1 O  py                15      0.213883  1 O  px         
    14      0.205043  1 O  s          

 Vector   11  Occ=0.000000D+00  E= 2.369649D-01  Symmetry=a
              MO Center= -5.2D-01, -1.3D-01,  2.1D-12, r^2= 5.3D+00
   Bfn.  Coefficient  Atom+Function         Bfn.  Coefficient  Atom+Function  
  ----- ------------  ---------------      ----- ------------  ---------------
    32      2.687083  3 H  s                 14     -2.043505  1 O  s          
    15     -1.967018  1 O  px                25      1.069116  2 H  s          
    16     -0.652436  1 O  py                11      0.348060  1 O  px         
    33     -0.347518  3 H  s                 10     -0.281450  1 O  s          
    12      0.242395  1 O  py                26     -0.172775  2 H  s          

 Vector   12  Occ=0.000000D+00  E= 2.813303D-01  Symmetry=a
              MO Center= -3.5D-01, -4.1D-01,  6.8D-13, r^2= 5.9D+00
   Bfn.  Coefficient  Atom+Function         Bfn.  Coefficient  Atom+Function  
  ----- ------------  ---------------      ----- ------------  ---------------
    32      3.166459  3 H  s                 16      2.430685  1 O  py         
    25     -1.854962  2 H  s                 15     -1.811994  1 O  px         
    14     -1.587525  1 O  s                 33      0.670450  3 H  s          
    26     -0.415601  2 H  s                 12     -0.392983  1 O  py         
    31     -0.258269  3 H  s                 11      0.173148  1 O  px         

 Vector   13  Occ=0.000000D+00  E= 3.198692D-01  Symmetry=a
              MO Center=  2.2D-01,  1.6D-01, -9.9D-11, r^2= 5.4D+00
   Bfn.  Coefficient  Atom+Function         Bfn.  Coefficient  Atom+Function  
  ----- ------------  ---------------      ----- ------------  ---------------
    14      6.397095  1 O  s                 32     -3.864327  3 H  s          
    25     -2.366617  2 H  s                 15      1.586597  1 O  px         
    10     -1.170419  1 O  s                 16      0.578835  1 O  py         
    33     -0.469896  3 H  s                 31      0.231714  3 H  s          
    24      0.154541  2 H  s          

 Vector   14  Occ=0.000000D+00  E= 4.840397D-01  Symmetry=a
              MO Center= -8.3D-03,  1.4D+00, -2.3D-13, r^2= 5.5D+00
   Bfn.  Coefficient  Atom+Function         Bfn.  Coefficient  Atom+Function  
  ----- ------------  ---------------      ----- ------------  ---------------
    25      3.056534  2 H  s                 32     -1.912898  3 H  s          
    26     -1.684306  2 H  s                 24     -1.360901  2 H  s          
    33      1.014964  3 H  s                 31      0.567559  3 H  s          
    14      0.462647  1 O  s                 10     -0.285393  1 O  s          
    15      0.212660  1 O  px                16     -0.188213  1 O  py         

 Vector   15  Occ=0.000000D+00  E= 4.995809D-01  Symmetry=a
              MO Center=  1.1D+00, -4.4D-01, -3.7D-13, r^2= 4.8D+00
   Bfn.  Coefficient  Atom+Function         Bfn.  Coefficient  Atom+Function  
  ----- ------------  ---------------      ----- ------------  ---------------
    32      3.939059  3 H  s                 31     -1.436162  3 H  s          
    14     -1.350521  1 O  s                 33     -1.224167  3 H  s          
    25      0.994311  2 H  s                 24     -0.571770  2 H  s          
    15     -0.520024  1 O  px                10     -0.330823  1 O  s          
     7      0.150830  1 O  px         

 Vector   16  Occ=0.000000D+00  E= 6.589152D-01  Symmetry=a
              MO Center= -8.4D-02, -1.1D-01,  6.7D-11, r^2= 5.3D+00
   Bfn.  Coefficient  Atom+Function         Bfn.  Coefficient  Atom+Function  
  ----- ------------  ---------------      ----- ------------  ---------------
    13      1.442612  1 O  pz                17     -1.442086  1 O  pz         
     9     -0.454136  1 O  pz         

 Vector   17  Occ=0.000000D+00  E= 1.033327D+00  Symmetry=a
              MO Center= -3.3D-01,  1.4D-01,  3.7D-12, r^2= 2.5D+00
   Bfn.  Coefficient  Atom+Function         Bfn.  Coefficient  Atom+Function  
  ----- ------------  ---------------      ----- ------------  ---------------
    32      2.432355  3 H  s                 11      2.328786  1 O  px         
    14     -2.227309  1 O  s                 31     -2.107623  3 H  s          
    15     -1.773940  1 O  px                10      1.446010  1 O  s          
    12     -0.494609  1 O  py                 7     -0.460794  1 O  px         
    16      0.422263  1 O  py                33      0.346645  3 H  s          

 Vector   18  Occ=0.000000D+00  E= 1.203008D+00  Symmetry=a
              MO Center= -2.1D-02, -4.0D-01, -1.0D-12, r^2= 2.4D+00
   Bfn.  Coefficient  Atom+Function         Bfn.  Coefficient  Atom+Function  
  ----- ------------  ---------------      ----- ------------  ---------------
    12      2.057725  1 O  py                16     -1.401601  1 O  py         
    25      1.066165  2 H  s                 24     -1.004984  2 H  s          
     8     -0.758020  1 O  py                33     -0.441801  3 H  s          
    31      0.350100  3 H  s                 14     -0.310648  1 O  s          
    26      0.276192  2 H  s                  4     -0.159541  1 O  py         


 Wrote Lagrangian and 1- and 2-particle density matrices to ./H2O.mcpdm


     Multipole analysis of the density
     ---------------------------------

     L   x y z        total        nuclear
     -   - - -        -----        -------
     0   0 0 0     -0.000000     10.000000

     1   1 0 0      0.625401     -0.000000
     1   0 1 0      0.479370      0.000000
     1   0 0 1     -0.000000      0.000000

     2   2 0 0     -4.565168      2.679864
     2   1 1 0     -0.901645     -1.455814
     2   1 0 1      0.000000      0.000000
     2   0 2 0     -3.115701      6.796349
     2   0 1 1      0.000000      0.000000
     2   0 0 2     -6.119898      0.000000


  Mulliken analysis of the total density
  --------------------------------------

    Atom       Charge   Shell Charges
 -----------   ------   -------------------------------------------------------
    1 O    8     8.49   1.08  0.91  0.91  1.03  1.98  0.85  1.56 -0.03  0.19  0.01
    2 H    1     0.75   0.16  0.43  0.13  0.01  0.02
    3 H    1     0.75   0.26  0.40  0.02  0.01  0.06

    Mulliken analysis of the active space density
    ---------------------------------------------

    Atom       Charge   Shell Charges
 -----------   ------   -------------------------------------------------------
    1 O    8     8.49   1.08  0.91  0.91  1.03  1.98  0.85  1.56 -0.03  0.19  0.01
    2 H    1     0.75   0.16  0.43  0.13  0.01  0.02
    3 H    1     0.75   0.26  0.40  0.02  0.01  0.06

 Parallel integral file used       3 records with       0 large values


 Task  times  cpu:        3.1s     wall:        5.3s


                                NWChem Input Module
                                -------------------


                                 NWChem SCF Module
                                 -----------------


                                        H2O



  ao basis        = "ao basis"
  functions       =    36
  atoms           =     3
  closed shells   =     5
  open shells     =     0
  charge          =   0.00
  wavefunction    = RHF 
  input vectors   = ./h2o.mos
  output vectors  = ./h2o-trash.mos
  use symmetry    = F
  symmetry adapt  = F


 Summary of "ao basis" -> "ao basis" (spherical)
 ------------------------------------------------------------------------------
       Tag                 Description            Shells   Functions and Types
 ---------------- ------------------------------  ------  ---------------------
 O                         6-311++G**               10       22   5s4p1d
 H                         6-311++G**                5        7   4s1p



 Forming initial guess at       5.3s


 Loading old vectors from job with title :

H2O


 Starting SCF solution at       5.3s



 ----------------------------------------------
         Quadratically convergent ROHF

 Convergence threshold     :          1.000E-04
 Maximum no. of iterations :           30
 Final Fock-matrix accuracy:          1.000E-07
 ----------------------------------------------


 Integral file          = ./H2O.aoints.0
 Record size in doubles =  65536        No. of integs per rec  =  43688
 Max. records in memory =     10        Max. records in file   = 232561
 No. of bits per label  =      8        No. of bits per value  =     64


 #quartets = 2.216D+04 #integrals = 1.002D+05 #direct =  0.0% #cached =100.0%



       Final RHF  results 
       ------------------ 

         Total SCF energy =    -75.955391349673
      One-electron energy =   -120.128015871715
      Two-electron energy =     36.483240560981
 Nuclear repulsion energy =      7.689383961062

        Time for solution =      0.0s


             Final eigenvalues
             -----------------

              1      
    1  -20.5876
    2   -1.3047
    3   -0.6773
    4   -0.5487
    5   -0.5262
    6   -0.0498
    7   -0.0263
    8   -0.0163
    9    0.0754
   10    0.0869
   11    0.2370
   12    0.2813
   13    0.3199
   14    0.4840
   15    0.4996

                       ROHF Final Molecular Orbital Analysis
                       -------------------------------------

 Vector    2  Occ=2.000000D+00  E=-1.304716D+00
              MO Center= -2.8D-01, -1.8D-01, -2.6D-11, r^2= 4.3D-01
   Bfn.  Coefficient  Atom+Function         Bfn.  Coefficient  Atom+Function  
  ----- ------------  ---------------      ----- ------------  ---------------
     6      0.585099  1 O  s                 10      0.501725  1 O  s          
     2     -0.172456  1 O  s          

 Vector    3  Occ=2.000000D+00  E=-6.772735D-01
              MO Center= -7.2D-02, -1.0D-01,  2.7D-11, r^2= 7.1D-01
   Bfn.  Coefficient  Atom+Function         Bfn.  Coefficient  Atom+Function  
  ----- ------------  ---------------      ----- ------------  ---------------
     9      0.439284  1 O  pz                13      0.407714  1 O  pz         
     5      0.292259  1 O  pz         

 Vector    4  Occ=2.000000D+00  E=-5.487458D-01
              MO Center=  3.3D-01, -2.2D-01,  3.7D-13, r^2= 6.1D-01
   Bfn.  Coefficient  Atom+Function         Bfn.  Coefficient  Atom+Function  
  ----- ------------  ---------------      ----- ------------  ---------------
     7      0.350364  1 O  px                31      0.278712  3 H  s          
     3      0.232973  1 O  px                11      0.233376  1 O  px         
    30      0.191872  3 H  s          

 Vector    5  Occ=2.000000D+00  E=-5.262262D-01
              MO Center= -5.0D-02,  4.8D-01, -3.3D-13, r^2= 9.3D-01
   Bfn.  Coefficient  Atom+Function         Bfn.  Coefficient  Atom+Function  
  ----- ------------  ---------------      ----- ------------  ---------------
     8      0.334828  1 O  py                24      0.286192  2 H  s          
    12      0.264461  1 O  py                 4      0.214441  1 O  py         

 Vector    6  Occ=0.000000D+00  E=-4.978451D-02
              MO Center= -5.8D-02,  7.2D-01, -3.2D-13, r^2= 9.1D-01
   Bfn.  Coefficient  Atom+Function         Bfn.  Coefficient  Atom+Function  
  ----- ------------  ---------------      ----- ------------  ---------------
    24     -0.501717  2 H  s                  8      0.470400  1 O  py         
     4      0.319621  1 O  py                23     -0.238632  2 H  s          
     6      0.235138  1 O  s          

 Vector    7  Occ=0.000000D+00  E=-2.633964D-02
              MO Center=  5.1D-01, -2.8D-01,  4.1D-12, r^2= 6.8D-01
   Bfn.  Coefficient  Atom+Function         Bfn.  Coefficient  Atom+Function  
  ----- ------------  ---------------      ----- ------------  ---------------
    31      0.574170  3 H  s                  7     -0.509979  1 O  px         
     3     -0.407616  1 O  px                 6     -0.378477  1 O  s          
    30      0.294310  3 H  s          

 Vector    8  Occ=0.000000D+00  E=-1.633904D-02
              MO Center= -5.3D-02, -9.5D-02,  4.8D-11, r^2= 1.5D+00
   Bfn.  Coefficient  Atom+Function         Bfn.  Coefficient  Atom+Function  
  ----- ------------  ---------------      ----- ------------  ---------------
    13      0.648017  1 O  pz                 5     -0.483486  1 O  pz         
     9     -0.471049  1 O  pz                17      0.314560  1 O  pz         

 Vector    9  Occ=0.000000D+00  E= 7.544939D-02
              MO Center=  6.2D-01,  4.8D-01,  2.8D-12, r^2= 1.1D+01
   Bfn.  Coefficient  Atom+Function         Bfn.  Coefficient  Atom+Function  
  ----- ------------  ---------------      ----- ------------  ---------------
    33      1.067610  3 H  s                 26      0.981470  2 H  s          
    14     -0.625135  1 O  s                 25     -0.590302  2 H  s          
    32     -0.427560  3 H  s                 10      0.241612  1 O  s          

 Vector   10  Occ=0.000000D+00  E= 8.694111D-02
              MO Center=  4.6D-01,  5.6D-01, -3.2D-12, r^2= 1.4D+01
   Bfn.  Coefficient  Atom+Function         Bfn.  Coefficient  Atom+Function  
  ----- ------------  ---------------      ----- ------------  ---------------
    26      2.259050  2 H  s                 33     -2.254458  3 H  s          
    25     -0.620812  2 H  s                 32      0.393479  3 H  s          
    16     -0.238947  1 O  py                15      0.213883  1 O  px         
    14      0.205043  1 O  s          

 Vector   11  Occ=0.000000D+00  E= 2.369649D-01
              MO Center= -5.2D-01, -1.3D-01,  2.1D-12, r^2= 5.3D+00
   Bfn.  Coefficient  Atom+Function         Bfn.  Coefficient  Atom+Function  
  ----- ------------  ---------------      ----- ------------  ---------------
    32      2.687083  3 H  s                 14     -2.043505  1 O  s          
    15     -1.967018  1 O  px                25      1.069116  2 H  s          
    16     -0.652436  1 O  py                11      0.348060  1 O  px         
    33     -0.347518  3 H  s                 10     -0.281450  1 O  s          
    12      0.242395  1 O  py                26     -0.172775  2 H  s          

 Vector   12  Occ=0.000000D+00  E= 2.813303D-01
              MO Center= -3.5D-01, -4.1D-01,  6.8D-13, r^2= 5.9D+00
   Bfn.  Coefficient  Atom+Function         Bfn.  Coefficient  Atom+Function  
  ----- ------------  ---------------      ----- ------------  ---------------
    32      3.166459  3 H  s                 16      2.430685  1 O  py         
    25     -1.854962  2 H  s                 15     -1.811994  1 O  px         
    14     -1.587525  1 O  s                 33      0.670450  3 H  s          
    26     -0.415601  2 H  s                 12     -0.392983  1 O  py         
    31     -0.258269  3 H  s                 11      0.173148  1 O  px         

 Vector   13  Occ=0.000000D+00  E= 3.198692D-01
              MO Center=  2.2D-01,  1.6D-01, -9.9D-11, r^2= 5.4D+00
   Bfn.  Coefficient  Atom+Function         Bfn.  Coefficient  Atom+Function  
  ----- ------------  ---------------      ----- ------------  ---------------
    14      6.397095  1 O  s                 32     -3.864327  3 H  s          
    25     -2.366617  2 H  s                 15      1.586597  1 O  px         
    10     -1.170419  1 O  s                 16      0.578835  1 O  py         
    33     -0.469896  3 H  s                 31      0.231714  3 H  s          
    24      0.154541  2 H  s          

 Vector   14  Occ=0.000000D+00  E= 4.840397D-01
              MO Center= -8.3D-03,  1.4D+00, -2.3D-13, r^2= 5.5D+00
   Bfn.  Coefficient  Atom+Function         Bfn.  Coefficient  Atom+Function  
  ----- ------------  ---------------      ----- ------------  ---------------
    25      3.056534  2 H  s                 32     -1.912898  3 H  s          
    26     -1.684306  2 H  s                 24     -1.360901  2 H  s          
    33      1.014964  3 H  s                 31      0.567559  3 H  s          
    14      0.462647  1 O  s                 10     -0.285393  1 O  s          
    15      0.212660  1 O  px                16     -0.188213  1 O  py         

 Vector   15  Occ=0.000000D+00  E= 4.995809D-01
              MO Center=  1.1D+00, -4.4D-01, -3.7D-13, r^2= 4.8D+00
   Bfn.  Coefficient  Atom+Function         Bfn.  Coefficient  Atom+Function  
  ----- ------------  ---------------      ----- ------------  ---------------
    32      3.939059  3 H  s                 31     -1.436162  3 H  s          
    14     -1.350521  1 O  s                 33     -1.224167  3 H  s          
    25      0.994311  2 H  s                 24     -0.571770  2 H  s          
    15     -0.520024  1 O  px                10     -0.330823  1 O  s          
     7      0.150830  1 O  px         

 Vector   16  Occ=0.000000D+00  E= 6.589152D-01
              MO Center= -8.4D-02, -1.1D-01,  6.7D-11, r^2= 5.3D+00
   Bfn.  Coefficient  Atom+Function         Bfn.  Coefficient  Atom+Function  
  ----- ------------  ---------------      ----- ------------  ---------------
    13      1.442612  1 O  pz                17     -1.442086  1 O  pz         
     9     -0.454136  1 O  pz         


 center of mass
 --------------
 x =  -0.07599894 y =  -0.08591224 z =   0.00000000

 moments of inertia (a.u.)
 ------------------
           7.018427447053           1.317797209926           0.000000000000
           1.317797209926           2.833002082974           0.000000000000
           0.000000000000           0.000000000000           9.851429530027

  Mulliken analysis of the total density
  --------------------------------------

    Atom       Charge   Shell Charges
 -----------   ------   -------------------------------------------------------
    1 O    8     8.51   1.08  0.91  0.90  1.02  1.99  0.85  1.58 -0.03  0.19  0.01
    2 H    1     0.74   0.16  0.42  0.13  0.01  0.02
    3 H    1     0.75   0.26  0.40  0.02  0.01  0.07

       Multipole analysis of the density wrt the origin
       ------------------------------------------------

     L   x y z        total         open         nuclear
     -   - - -        -----         ----         -------
     0   0 0 0     -0.000000      0.000000     10.000000

     1   1 0 0      0.635746      0.000000     -0.000000
     1   0 1 0      0.513708      0.000000      0.000000
     1   0 0 1     -0.000000      0.000000      0.000000

     2   2 0 0     -4.540645      0.000000      2.679864
     2   1 1 0     -0.921723      0.000000     -1.455814
     2   1 0 1      0.000000      0.000000      0.000000
     2   0 2 0     -3.004873      0.000000      6.796349
     2   0 1 1      0.000000      0.000000      0.000000
     2   0 0 2     -6.090833      0.000000      0.000000


 Parallel integral file used       3 records with       0 large values

 ------------------------------------
     Number of active orbitals      8
     Number of active alpha electrons      5
     Number of active beta electrons       5
 ------------------------------------
                   NWChem Extensible Many-Electron Theory Module
                   ---------------------------------------------

              ======================================================
                   This portion of the program was automatically
                  generated by a Tensor Contraction Engine (TCE).
                  The development of this portion of the program
                 and TCE was supported by US Department of Energy,
                Office of Science, Office of Basic Energy Science.
                      TCE is a product of Battelle and PNNL.
              Please cite: S.Hirata, J.Phys.Chem.A 107, 9887 (2003).
              ======================================================

                                        H2O


            General Information
            -------------------
      Number of processors :     1
         Wavefunction type : Restricted Hartree-Fock
          No. of electrons :    10
           Alpha electrons :     5
            Beta electrons :     5
           No. of orbitals :    72
            Alpha orbitals :    36
             Beta orbitals :    36
        Alpha frozen cores :     0
         Beta frozen cores :     0
     Alpha frozen virtuals :    28
      Beta frozen virtuals :    28
         Spin multiplicity : singlet 
    Number of AO functions :    36
       Number of AO shells :    20
        Use of symmetry is : off
      Symmetry adaption is : off
         Schwarz screening : 0.10D-09

          Correlation Information
          -----------------------
          Calculation type : Coupled-cluster singles & doubles                           
   Perturbative correction : none                                                        
            Max iterations :      300
        Residual threshold : 0.10D-06
     T(0) DIIS level shift : 0.00D+00
     L(0) DIIS level shift : 0.00D+00
     T(1) DIIS level shift : 0.00D+00
     L(1) DIIS level shift : 0.00D+00
     T(R) DIIS level shift : 0.00D+00
     T(I) DIIS level shift : 0.00D+00
   CC-T/L Amplitude update :  5-th order DIIS
                I/O scheme : Global Array Library
        L-threshold :  0.10D-06
        EOM-threshold :  0.10D-06
 no EOMCCSD initial starts read in
 TCE RESTART OPTIONS
 READ_INT:   F
 WRITE_INT:  F
 READ_TA:    F
 WRITE_TA:   F
 READ_XA:    F
 WRITE_XA:   F
 READ_IN3:   F
 WRITE_IN3:  F
 SLICE:      F
 D4D5:       F
 quantumc:   T
 qrotation:  F
 pwtce:      F
 qducc:      F
 nacto:                         0
 nrotv:                         0
 nrot:                          0

            Memory Information
            ------------------
          Available GA space size is    1610611440 doubles
          Available MA space size is    1610610740 doubles

 Maximum block size supplied by input
 Maximum block size         1 doubles

 tile_dim =      1

 Block   Spin    Irrep     Size     Offset   Alpha
 -------------------------------------------------
   1    alpha     a      1 doubles       0       1
   2    alpha     a      1 doubles       1       2
   3    alpha     a      1 doubles       2       3
   4    alpha     a      1 doubles       3       4
   5    alpha     a      1 doubles       4       5
   6    beta      a      1 doubles       5       1
   7    beta      a      1 doubles       6       2
   8    beta      a      1 doubles       7       3
   9    beta      a      1 doubles       8       4
  10    beta      a      1 doubles       9       5
  11    alpha     a      1 doubles      10      11
  12    alpha     a      1 doubles      11      12
  13    alpha     a      1 doubles      12      13
  14    beta      a      1 doubles      13      11
  15    beta      a      1 doubles      14      12
  16    beta      a      1 doubles      15      13

 Global array virtual files algorithm will be used

 Parallel file system coherency ......... OK

 Integral file          = ./H2O.aoints.0
 Record size in doubles =  65536        No. of integs per rec  =  43688
 Max. records in memory =     10        Max. records in file   = 232561
 No. of bits per label  =      8        No. of bits per value  =     64


 #quartets = 2.216D+04 #integrals = 1.003D+05 #direct =  0.0% #cached =100.0%


 Fock matrix recomputed
 1-e file size   =               64
 1-e file name   = ./H2O.f1
 Cpu & wall time / sec            0.0            0.0
 4-electron integrals stored in orbital form

 v2    file size   =              666
 4-index algorithm nr.  13 is used
 imaxsize =       30
 imaxsize ichop =        0
 begin_one_electron_integrals
    1    1       -32.8345126745
    2    1        -0.8614879550
    4    1         0.1242490332
    5    1         0.0517041909
    6    1         0.1626202788
    7    1        -0.1946895277
    1    2        -0.8614879550
    2    2        -7.7329507051
    4    2        -0.2584754843
    5    2        -0.0856849199
    6    2        -0.2130901760
    7    2         0.0949505747
    3    3        -6.8564827662
    8    3         2.2132914711
    1    4         0.1242490332
    2    4        -0.2584754843
    4    4        -6.7097976580
    5    4        -0.0878812008
    6    4        -0.0562117722
    7    4         2.0133198156
    1    5         0.0517041909
    2    5        -0.0856849199
    4    5        -0.0878812008
    5    5        -5.9302641321
    6    5        -2.0937115848
    7    5        -0.0525443746
    1    6         0.1626202788
    2    6        -0.2130901760
    4    6        -0.0562117722
    5    6        -2.0937115848
    6    6        -5.6794574704
    7    6        -0.0499499560
    1    7        -0.1946895277
    2    7         0.0949505747
    4    7         2.0133198156
    5    7        -0.0525443746
    6    7        -0.0499499560
    7    7        -5.9979633589
    3    8         2.2132914711
    8    8        -5.2219641690
 end_one_electron_integrals
 begin_two_electron_integrals
    1    1    1    1        4.8209166237
    2    1    1    1       -0.2402917953
    2    1    2    1        0.0318074739
    3    1    3    1        0.0273035277
    4    1    1    1       -0.0861995745
    4    1    2    1        0.0025188704
    4    1    4    1        0.0210417097
    4    1    2    2       -0.0135639475
    4    1    3    3       -0.0022387436
    5    1    1    1       -0.0392110214
    5    1    2    1        0.0004278661
    5    1    4    1        0.0018403309
    5    1    5    1        0.0164294579
    5    1    2    2       -0.0073907485
    5    1    4    2        0.0000139624
    5    1    3    3       -0.0007141021
    5    1    4    4       -0.0005210050
    6    1    1    1       -0.1216054371
    6    1    2    1        0.0072208802
    6    1    4    1        0.0033519806
    6    1    5    1        0.0232137336
    6    1    6    1        0.0343754896
    6    1    2    2       -0.0132177325
    6    1    4    2       -0.0011034513
    6    1    5    2        0.0211123528
    6    1    3    3       -0.0039351377
    6    1    4    4       -0.0039915718
    6    1    5    4        0.0037445225
    6    1    5    5        0.0056235513
    7    1    1    1        0.1582070362
    7    1    2    1       -0.0072494252
    7    1    4    1       -0.0327954710
    7    1    5    1       -0.0011104329
    7    1    6    1       -0.0034371588
    7    1    7    1        0.0518657581
    7    1    2    2        0.0209124352
    7    1    4    2       -0.0265710276
    7    1    5    2        0.0020946850
    7    1    6    2        0.0050579892
    7    1    3    3        0.0033631416
    7    1    4    4       -0.0148459454
    7    1    5    4       -0.0017326092
    7    1    6    4       -0.0044711313
    7    1    5    5        0.0032367086
    7    1    6    5        0.0026716302
    7    1    6    6        0.0058121898
    8    1    3    1       -0.0368938598
    8    1    8    1        0.0501926217
    8    1    3    2       -0.0355547436
    8    1    4    3       -0.0067720736
    8    1    5    3       -0.0035871300
    8    1    6    3       -0.0072776350
    8    1    7    3        0.0089439048
    2    2    1    1        1.0770881825
    2    2    2    1        0.0084129929
    2    2    2    2        0.8311484898
    3    2    3    1        0.0245456633
    3    2    3    2        0.1363600652
    4    2    1    1       -0.0058621942
    4    2    2    1       -0.0040236751
    4    2    4    1        0.0163737352
    4    2    2    2       -0.0527689333
    4    2    4    2        0.0929900993
    4    2    3    3        0.0087858458
    5    2    1    1       -0.0171900105
    5    2    2    1       -0.0024993251
    5    2    4    1        0.0001287722
    5    2    5    1        0.0143497345
    5    2    2    2       -0.0390676308
    5    2    4    2       -0.0068857804
    5    2    5    2        0.0884970143
    5    2    3    3       -0.0019890992
    5    2    4    4       -0.0113482327
    6    2    1    1        0.0470452299
    6    2    2    1       -0.0023904632
    6    2    4    1       -0.0017843285
    6    2    5    1        0.0150853277
    6    2    6    1        0.0207856563
    6    2    2    2       -0.0014874811
    6    2    4    2       -0.0111761602
    6    2    5    2        0.0688071454
    6    2    6    2        0.0645675178
    6    2    3    3        0.0239618864
    6    2    4    4        0.0106691346
    6    2    5    4        0.0100695044
    6    2    5    5        0.0347656494
    7    2    1    1       -0.0205890967
    7    2    2    1        0.0043803664
    7    2    4    1       -0.0160943523
    7    2    5    1        0.0019851585
    7    2    6    1        0.0039586265
    7    2    7    1        0.0244669858
    7    2    2    2        0.0234707723
    7    2    4    2       -0.0581201728
    7    2    5    2        0.0122098096
    7    2    6    2        0.0150298765
    7    2    7    2        0.0517079277
    7    2    3    3       -0.0146825307
    7    2    4    4       -0.0319542409
    7    2    5    4       -0.0029830235
    7    2    6    4       -0.0075400181
    7    2    5    5       -0.0048408012
    7    2    6    5       -0.0093071089
    7    2    6    6       -0.0050418113
    8    2    3    1       -0.0199249021
    8    2    8    1        0.0255994286
    8    2    3    2       -0.0538564770
    8    2    8    2        0.0439887077
    8    2    4    3       -0.0064356739
    8    2    5    3       -0.0033654728
    8    2    6    3       -0.0110442264
    8    2    7    3        0.0116020201
    3    3    1    1        1.0220056252
    3    3    2    1        0.0053181384
    3    3    2    2        0.7233205770
    3    3    3    3        0.7318450286
    4    3    3    1        0.0049381480
    4    3    3    2        0.0206280737
    4    3    4    3        0.0347008872
    5    3    3    1        0.0025405928
    5    3    3    2        0.0112651256
    5    3    4    3        0.0034125421
    5    3    5    3        0.0263636672
    6    3    3    1        0.0055839635
    6    3    3    2        0.0171775045
    6    3    4    3        0.0032158022
    6    3    5    3        0.0198161026
    6    3    6    3        0.0224722167
    7    3    3    1       -0.0069948104
    7    3    3    2       -0.0182776601
    7    3    4    3       -0.0193451072
    7    3    5    3       -0.0007952704
    7    3    6    3       -0.0029189399
    7    3    7    3        0.0239408381
    8    3    1    1       -0.5325174648
    8    3    2    1       -0.0028069120
    8    3    4    1        0.0031161371
    8    3    5    1        0.0009612706
    8    3    6    1        0.0042689605
    8    3    7    1       -0.0053244366
    8    3    2    2       -0.2221165320
    8    3    4    2        0.0017382943
    8    3    5    2        0.0028329774
    8    3    6    2       -0.0161074880
    8    3    7    2        0.0086600470
    8    3    3    3       -0.2164405844
    8    3    8    3        0.1635129027
    8    3    4    4       -0.1582091361
    8    3    5    4       -0.0050393407
    8    3    6    4       -0.0040156656
    8    3    7    4        0.1240118240
    8    3    5    5       -0.1326696952
    8    3    6    5       -0.1151386798
    8    3    7    5       -0.0028961984
    8    3    6    6       -0.1559242938
    8    3    7    6       -0.0034989082
    8    3    7    7       -0.1818876527
    4    4    1    1        0.9029950075
    4    4    2    1        0.0024442138
    4    4    4    1        0.0082122064
    4    4    2    2        0.6364943124
    4    4    4    2        0.0799865075
    4    4    3    3        0.6219395807
    4    4    4    4        0.7590893981
    5    4    1    1        0.0187221636
    5    4    2    1       -0.0007220997
    5    4    4    1        0.0015489162
    5    4    5    1        0.0029083357
    5    4    2    2       -0.0014758562
    5    4    4    2        0.0017866563
    5    4    5    2        0.0100651472
    5    4    3    3        0.0083138014
    5    4    4    4        0.0073055423
    5    4    5    4        0.0235358228
    6    4    1    1        0.0145732669
    6    4    2    1       -0.0015923893
    6    4    4    1        0.0034545088
    6    4    5    1        0.0031814710
    6    4    6    1        0.0041671052
    6    4    2    2       -0.0080073379
    6    4    4    2        0.0066961624
    6    4    5    2        0.0120541769
    6    4    6    2        0.0087653865
    6    4    3    3        0.0052248810
    6    4    4    4        0.0052591627
    6    4    5    4        0.0180470167
    6    4    6    4        0.0192605841
    6    4    5    5        0.0145205059
    7    4    1    1       -0.4815782060
    7    4    2    1       -0.0007541993
    7    4    4    1       -0.0043653572
    7    4    5    1        0.0007574009
    7    4    6    1        0.0037053048
    7    4    7    1        0.0035603693
    7    4    2    2       -0.2115907626
    7    4    4    2        0.0113509511
    7    4    5    2       -0.0021953314
    7    4    6    2       -0.0156143662
    7    4    7    2        0.0193410282
    7    4    3    3       -0.1836575385
    7    4    4    4       -0.1128938700
    7    4    5    4       -0.0087345087
    7    4    6    4       -0.0103840504
    7    4    7    4        0.2066853585
    7    4    5    5       -0.1344261275
    7    4    6    5       -0.1018488485
    7    4    6    6       -0.1559786459
    8    4    3    1       -0.0030222372
    8    4    8    1        0.0035650768
    8    4    3    2       -0.0023566298
    8    4    8    2        0.0036713525
    8    4    4    3       -0.0064452993
    8    4    5    3       -0.0008912462
    8    4    6    3       -0.0019673644
    8    4    7    3        0.0164756009
    8    4    8    4        0.0150548273
    5    5    1    1        0.7874456451
    5    5    2    1        0.0030166773
    5    5    4    1       -0.0014646606
    5    5    5    1        0.0040315036
    5    5    2    2        0.5868472680
    5    5    4    2       -0.0007406068
    5    5    5    2        0.0489519706
    5    5    3    3        0.5550561103
    5    5    4    4        0.5182609643
    5    5    5    4        0.0108521852
    5    5    5    5        0.6124873789
    6    5    1    1        0.4509712313
    6    5    2    1        0.0022670621
    6    5    4    1       -0.0015625491
    6    5    5    1        0.0035914797
    6    5    6    1        0.0010063729
    6    5    2    2        0.2300723360
    6    5    4    2        0.0079394956
    6    5    5    2       -0.0158851090
    6    5    6    2        0.0180122945
    6    5    3    3        0.2014205947
    6    5    4    4        0.1837604783
    6    5    5    4        0.0080041155
    6    5    6    4       -0.0001057969
    6    5    5    5        0.0880622470
    6    5    6    5        0.2131051549
    7    5    1    1        0.0108693955
    7    5    2    1        0.0014479752
    7    5    4    1       -0.0019043240
    7    5    5    1       -0.0040593125
    7    5    6    1       -0.0054283564
    7    5    7    1        0.0024494895
    7    5    2    2        0.0167570145
    7    5    4    2       -0.0054895137
    7    5    5    2       -0.0110670127
    7    5    6    2       -0.0094985415
    7    5    7    2        0.0010878951
    7    5    3    3        0.0051843677
    7    5    4    4       -0.0043868705
    7    5    5    4       -0.0118007966
    7    5    6    4       -0.0146432032
    7    5    7    4       -0.0053431494
    7    5    5    5       -0.0013525093
    7    5    6    5        0.0033413451
    7    5    7    5        0.0156756532
    7    5    6    6       -0.0032058409
    8    5    3    1       -0.0015950757
    8    5    8    1        0.0018016335
    8    5    3    2        0.0003005894
    8    5    8    2        0.0023438437
    8    5    4    3       -0.0006703693
    8    5    5    3       -0.0048682821
    8    5    6    3       -0.0122415575
    8    5    7    3        0.0007193472
    8    5    8    4        0.0009692486
    8    5    8    5        0.0132703773
    6    6    1    1        0.8921676746
    6    6    2    1        0.0020066038
    6    6    4    1       -0.0026746767
    6    6    5    1        0.0067837952
    6    6    6    1        0.0082311994
    6    6    2    2        0.5847284476
    6    6    4    2       -0.0027873737
    6    6    5    2        0.0527265889
    6    6    6    2        0.0423597623
    6    6    3    3        0.5570206000
    6    6    4    4        0.5127262695
    6    6    5    4        0.0099741519
    6    6    6    4        0.0171237650
    6    6    5    5        0.6210772994
    6    6    6    5        0.0751550369
    6    6    6    6        0.6689539072
    7    6    1    1        0.0121595799
    7    6    2    1        0.0025655308
    7    6    4    1       -0.0045738592
    7    6    5    1       -0.0049018922
    7    6    6    1       -0.0062967108
    7    6    7    1        0.0064111212
    7    6    2    2        0.0251564258
    7    6    4    2       -0.0155992594
    7    6    5    2       -0.0123229082
    7    6    6    2       -0.0109874869
    7    6    7    2        0.0085799129
    7    6    3    3        0.0037420937
    7    6    4    4       -0.0124353907
    7    6    5    4       -0.0181232745
    7    6    6    4       -0.0181700560
    7    6    7    4       -0.0066787628
    7    6    5    5        0.0022885219
    7    6    6    5       -0.0027999064
    7    6    7    5        0.0170194528
    7    6    6    6        0.0040862273
    7    6    7    6        0.0236823402
    8    6    3    1       -0.0054589813
    8    6    8    1        0.0075702265
    8    6    3    2       -0.0209198948
    8    6    8    2        0.0079630123
    8    6    4    3       -0.0046132354
    8    6    5    3       -0.0182037495
    8    6    6    3       -0.0162007855
    8    6    7    3        0.0022130327
    8    6    8    4        0.0006158786
    8    6    8    5        0.0065412262
    8    6    8    6        0.0195575623
    7    7    1    1        1.0512057720
    7    7    2    1       -0.0001608130
    7    7    4    1        0.0083179903
    7    7    5    1       -0.0017148618
    7    7    6    1       -0.0073117905
    7    7    7    1       -0.0141034941
    7    7    2    2        0.6301216516
    7    7    4    2        0.0713615548
    7    7    5    2       -0.0128531436
    7    7    6    2        0.0120790404
    7    7    7    2       -0.0314601803
    7    7    3    3        0.6194988033
    7    7    4    4        0.7378590337
    7    7    5    4        0.0050611148
    7    7    6    4        0.0027418529
    7    7    7    4       -0.1174499708
    7    7    5    5        0.5095745453
    7    7    6    5        0.1961595287
    7    7    7    5       -0.0029551543
    7    7    6    6        0.5170168520
    7    7    7    6       -0.0104329774
    7    7    7    7        0.7724765904
    8    7    3    1        0.0069266537
    8    7    8    1       -0.0093809646
    8    7    3    2        0.0236120924
    8    7    8    2       -0.0086239525
    8    7    4    3        0.0265266341
    8    7    5    3        0.0023818980
    8    7    6    3        0.0025013874
    8    7    7    3       -0.0171164946
    8    7    8    4       -0.0068975566
    8    7    8    5        0.0001866531
    8    7    8    6       -0.0044459672
    8    7    8    7        0.0275998052
    8    8    1    1        0.9835091961
    8    8    2    1        0.0015467653
    8    8    4    1       -0.0040881578
    8    8    5    1       -0.0013698578
    8    8    6    1       -0.0055501693
    8    8    7    1        0.0065015094
    8    8    2    2        0.6099888526
    8    8    4    2        0.0045142834
    8    8    5    2       -0.0020690009
    8    8    6    2        0.0183369144
    8    8    7    2       -0.0091364093
    8    8    3    3        0.6177533033
    8    8    8    3       -0.1794286903
    8    8    4    4        0.5374355376
    8    8    5    4        0.0064191574
    8    8    6    4        0.0039994302
    8    8    7    4       -0.1490347111
    8    8    5    5        0.4854524113
    8    8    6    5        0.1604682256
    8    8    7    5        0.0039715700
    8    8    6    6        0.4955260070
    8    8    7    6        0.0031493566
    8    8    7    7        0.5519020164
    8    8    8    8        0.5596837861
 end_two_electron_integrals
 enrep_tce =    7.6893839610619210     
  EHF(A)             =       -75.95539135
  EHF(total)         =       -75.95539135
  Shift (HFtot-HFA)  =        -0.00000000
 Cpu & wall time / sec            0.3            0.3
 T1-number-of-tasks                   15

 t1 file size   =               15
 t1 file name   = ./H2O.t1
 t1 file handle =       -998
 T2-number-of-boxes                  315

 t2 file size   =              315
 t2 file name   = ./H2O.t2
 t2 file handle =       -996
CCSD iterations
 ---------------------------------------------------------
 Iter          Residuum       Correlation     Cpu    Wall 
 ---------------------------------------------------------
NEW TASK SCHEDULING
CCSD_T1_NTS --- OK
CCSD_T2_NTS --- OK
    1   0.6236847222256  -0.2416230580059     2.1     3.0
    2   0.8944638131747   0.0543956879243     2.2     3.0
    3   1.3028376084563  -0.3664776327560     2.0     3.0
    4   1.9102036248782   0.2351046959335     2.3     3.0
    5   2.7886668246237  -0.6428880139117     2.2     3.0
 MICROCYCLE DIIS UPDATE:                    5                    5
    6   0.0160141247566  -0.1192640293273     2.3     3.0
    7   0.0162789091006  -0.1158008282857     2.1     3.0
    8   0.0208092352252  -0.1196630723299     2.2     3.0
    9   0.0301906494651  -0.1148249286715     2.2     3.0
   10   0.0473046546085  -0.1212695803870     2.2     3.0
 MICROCYCLE DIIS UPDATE:                   10                    5
   11   0.0002752337378  -0.1175462923983     2.3     3.0
   12   0.0002270195495  -0.1176004082620     2.4     3.2
   13   0.0002955343087  -0.1175354899667     2.6     3.8
   14   0.0004260312682  -0.1176365112173     2.5     3.4
   15   0.0006366497239  -0.1174847970384     2.2     3.0
 MICROCYCLE DIIS UPDATE:                   15                    5
   16   0.0000171426530  -0.1175769321183     2.2     3.0
   17   0.0000152229738  -0.1175750295341     2.3     3.0
   18   0.0000236435825  -0.1175778336881     2.3     3.0
   19   0.0000387387586  -0.1175740629644     2.2     3.0
   20   0.0000645135810  -0.1175793538469     2.2     3.0
 MICROCYCLE DIIS UPDATE:                   20                    5
   21   0.0000002863036  -0.1175762516336     2.3     3.0
   22   0.0000002120928  -0.1175762796749     2.2     3.1
   23   0.0000002472003  -0.1175762264886     2.4     3.2
   24   0.0000003499449  -0.1175763145223     2.3     3.2
   25   0.0000005149311  -0.1175761810563     2.1     3.1
 MICROCYCLE DIIS UPDATE:                   25                    5
   26   0.0000000112579  -0.1175762622861     2.2     3.1
 -----------------------------------------------------------------
 Iterations converged
 CCSD correlation energy / hartree =        -0.117576262286149
 CCSD total energy / hartree       =       -76.072967611958930

 Singles contributions

 Doubles contributions
     6a   (alpha)     7a   (alpha) ---     4a   (alpha)     5a   (alpha)       -0.0220726831
     6a   (alpha)     8a   (alpha) ---     3a   (alpha)     5a   (alpha)       -0.0316478312
     6a   (alpha)     6a   (beta ) ---     5a   (alpha)     5a   (beta )       -0.1782482042
     6a   (alpha)     7a   (beta ) ---     5a   (alpha)     4a   (beta )        0.0370717632
     6a   (alpha)     8a   (beta ) ---     5a   (alpha)     3a   (beta )        0.0446958005
     7a   (alpha)     8a   (alpha) ---     3a   (alpha)     4a   (alpha)        0.0312156422
     7a   (alpha)     6a   (beta ) ---     4a   (alpha)     5a   (beta )        0.0370717632
     7a   (alpha)     7a   (beta ) ---     4a   (alpha)     4a   (beta )       -0.0876075928
     7a   (alpha)     8a   (beta ) ---     4a   (alpha)     3a   (beta )       -0.0422077396
     8a   (alpha)     6a   (beta ) ---     3a   (alpha)     5a   (beta )        0.0446958005
     8a   (alpha)     7a   (beta ) ---     3a   (alpha)     4a   (beta )       -0.0422077396
     8a   (alpha)     8a   (beta ) ---     3a   (alpha)     3a   (beta )       -0.0627396374
 Ground state specification:
 exp(T)|Ref>~(1+T)|Ref>
 ------- a(p)+/a(q) strings ----------

 singles norm

 doubles norm

 Reference string
  0.98448259423444540      :(1a)+ (2a)+ (3a)+ (4a)+ (5a)+ (1b)+ (2b)+ (3b)+ (4b)+ (5b)+ |0>

 Singles strings

 Doubles strings
 -0.17548225451428476      :(6a)+ (6b)+ (5b)  (5a)  (1a)+ (2a)+ (3a)+ (4a)+ (5a)+ (1b)+ (2b)+ (3b)+ (4b)+ (5b)+ |0>
 -------------------------------------

 Parallel integral file used       3 records with       0 large values


 Task  times  cpu:       59.3s     wall:       81.6s


                                NWChem Input Module
                                -------------------


 Summary of allocated global arrays
-----------------------------------
  No active global arrays


MA_summarize_allocated_blocks: starting scan ...
MA_summarize_allocated_blocks: scan completed: 0 heap blocks, 0 stack blocks
MA usage statistics:

	allocation statistics:
					      heap	     stack
					      ----	     -----
	current number of blocks	         0	         0
	maximum number of blocks	        18	        42
	current total bytes		         0	         0
	maximum total bytes		   5323032	  24073272
	maximum total K-bytes		      5324	     24074
	maximum total M-bytes		         6	        25


                                     CITATION
                                     --------
                Please cite the following reference when publishing
                           results obtained with NWChem:

          E. Apra, E. J. Bylaska, W. A. de Jong, N. Govind, K. Kowalski,
       T. P. Straatsma, M. Valiev, H. J. J. van Dam, Y. Alexeev, J. Anchell,
       V. Anisimov, F. W. Aquino, R. Atta-Fynn, J. Autschbach, N. P. Bauman,
     J. C. Becca, D. E. Bernholdt, K. Bhaskaran-Nair, S. Bogatko, P. Borowski,
         J. Boschen, J. Brabec, A. Bruner, E. Cauet, Y. Chen, G. N. Chuev,
      C. J. Cramer, J. Daily, M. J. O. Deegan, T. H. Dunning Jr., M. Dupuis,
   K. G. Dyall, G. I. Fann, S. A. Fischer, A. Fonari, H. Fruchtl, L. Gagliardi,
      J. Garza, N. Gawande, S. Ghosh, K. Glaesemann, A. W. Gotz, J. Hammond,
       V. Helms, E. D. Hermes, K. Hirao, S. Hirata, M. Jacquelin, L. Jensen,
   B. G. Johnson, H. Jonsson, R. A. Kendall, M. Klemm, R. Kobayashi, V. Konkov,
      S. Krishnamoorthy, M. Krishnan, Z. Lin, R. D. Lins, R. J. Littlefield,
      A. J. Logsdail, K. Lopata, W. Ma, A. V. Marenich, J. Martin del Campo,
   D. Mejia-Rodriguez, J. E. Moore, J. M. Mullin, T. Nakajima, D. R. Nascimento,
    J. A. Nichols, P. J. Nichols, J. Nieplocha, A. Otero-de-la-Roza, B. Palmer,
    A. Panyala, T. Pirojsirikul, B. Peng, R. Peverati, J. Pittner, L. Pollack,
   R. M. Richard, P. Sadayappan, G. C. Schatz, W. A. Shelton, D. W. Silverstein,
   D. M. A. Smith, T. A. Soares, D. Song, M. Swart, H. L. Taylor, G. S. Thomas,
            V. Tipparaju, D. G. Truhlar, K. Tsemekhman, T. Van Voorhis,
      A. Vazquez-Mayagoitia, P. Verma, O. Villa, A. Vishnu, K. D. Vogiatzis,
        D. Wang, J. H. Weare, M. J. Williamson, T. L. Windus, K. Wolinski,
        A. T. Wong, Q. Wu, C. Yang, Q. Yu, M. Zacharias, Z. Zhang, Y. Zhao,
                                and R. J. Harrison
                        "NWChem: Past, present, and future
                         J. Chem. Phys. 152, 184102 (2020)
                               doi:10.1063/5.0004997

                                      AUTHORS
                                      -------
  E. Apra, E. J. Bylaska, N. Govind, K. Kowalski, M. Valiev, D. Mejia-Rodriguez,
       A. Kunitsa, N. P. Bauman, A. Panyala, W. A. de Jong, T. P. Straatsma,
        H. J. J. van Dam, D. Wang, T. L. Windus, J. Hammond, J. Autschbach,
    K. Bhaskaran-Nair, J. Brabec, K. Lopata, S. A. Fischer, S. Krishnamoorthy,
     M. Jacquelin, W. Ma, M. Klemm, O. Villa, Y. Chen, V. Anisimov, F. Aquino,
    S. Hirata, M. T. Hackler, Eric Hermes, L. Jensen, J. E. Moore, J. C. Becca,
      V. Konjkov, T. Risthaus, M. Malagoli, A. Marenich, A. Otero-de-la-Roza,
        J. Mullin, P. Nichols, R. Peverati, J. Pittner, Y. Zhao, P.-D. Fan,
        A. Fonari, M. J. Williamson, R. J. Harrison, J. R. Rehr, M. Dupuis,
     D. Silverstein, D. M. A. Smith, J. Nieplocha, V. Tipparaju, M. Krishnan,
     B. E. Van Kuiken, A. Vazquez-Mayagoitia, M. Swart, Q. Wu, T. Van Voorhis,
     A. A. Auer, M. Nooijen, L. D. Crosby, E. Brown, G. Cisneros, G. I. Fann,
   H. Fruchtl, J. Garza, K. Hirao, R. A. Kendall, J. A. Nichols, K. Tsemekhman,
    K. Wolinski, J. Anchell, D. E. Bernholdt, P. Borowski, T. Clark, D. Clerc,
   H. Dachsel, M. J. O. Deegan, K. Dyall, D. Elwood, E. Glendening, M. Gutowski,
   A. C. Hess, J. Jaffe, B. G. Johnson, J. Ju, R. Kobayashi, R. Kutteh, Z. Lin,
   R. Littlefield, X. Long, B. Meng, T. Nakajima, S. Niu, L. Pollack, M. Rosing,
   K. Glaesemann, G. Sandrone, M. Stave, H. Taylor, G. Thomas, J. H. van Lenthe,
                               A. T. Wong, Z. Zhang.

 Total times  cpu:       62.5s     wall:       86.9s
