 argument  1 = input.nw
  NWChem w/ OpenMP: maximum threads =    1



============================== echo of input deck ==============================
 echo
 start H2O
 title "H2O"

 memory total 24 gb

 geometry units bohr
 symmetry c1
        O  0.00000000  0.00000000  0.00000000
        H  0.00000000  3.31821  0.00000000
        H  1.72558000 -0.64860000  0.00000000
 end

 basis spherical
   * library 6-311++G**
 end

 mcscf
   active  8
   actelec 10
   multiplicity 1
   maxiter 40
   vectors input h2o.mos
   vectors output h2o.mos
 end

 task mcscf

 scf
   vectors input h2o.mos
   vectors output h2o-trash.mos
   noscf
 end

 tce
   2eorb
   2emet 13
   ccsd
   maxiter 300
 end

 set tce:print_integrals T
 set tce:qorb 8
 set tce:qela 5
 set tce:qelb 5

# set tce:qducc T
# set tce:nactv 3
# set tce:nonhf T
# set tce:ducc_model 6

 set tce:printtol 0.02

 task tce
================================================================================


                                         
                                         


             Northwest Computational Chemistry Package (NWChem) 7.0.1
             --------------------------------------------------------


                    Environmental Molecular Sciences Laboratory
                       Pacific Northwest National Laboratory
                                Richland, WA 99352

                              Copyright (c) 1994-2020
                       Pacific Northwest National Laboratory
                            Battelle Memorial Institute

             NWChem is an open-source computational chemistry package
                        distributed under the terms of the
                      Educational Community License (ECL) 2.0
             A copy of the license is included with this distribution
                              in the LICENSE.TXT file

                                  ACKNOWLEDGMENT
                                  --------------

            This software and its documentation were developed at the
            EMSL at Pacific Northwest National Laboratory, a multiprogram
            national laboratory, operated for the U.S. Department of Energy
            by Battelle under Contract Number DE-AC05-76RL01830. Support
            for this work was provided by the Department of Energy Office
            of Biological and Environmental Research, Office of Basic
            Energy Sciences, and the Office of Advanced Scientific Computing.


           Job information
           ---------------

    hostname        = WE46210
    program         = /home/baum612/code/nwchem/bin/LINUX64/nwchem
    date            = Wed Sep  4 16:22:45 2024

    compiled        = Wed_Sep_04_02:00:17_2024
    source          = /home/baum612/code/nwchem
    nwchem branch   = 7.0.0
    nwchem revision = nwchem_on_git-4191-g39d87d64de
    ga revision     = 5.8.1
    use scalapack   = F
    input           = input.nw
    prefix          = H2O.
    data base       = ./H2O.db
    status          = startup
    nproc           =        1
    time left       =     -1s



           Memory information
           ------------------

    heap     =  805306366 doubles =   6144.0 Mbytes
    stack    =  805306363 doubles =   6144.0 Mbytes
    global   = 1610612736 doubles =  12288.0 Mbytes (distinct from heap & stack)
    total    = 3221225465 doubles =  24576.0 Mbytes
    verify   = yes
    hardfail = no 


           Directory information
           ---------------------

  0 permanent = .
  0 scratch   = .




                                NWChem Input Module
                                -------------------


                                        H2O
                                        ---
 Turning off AUTOSYM since
 SYMMETRY directive was detected!


          ------
          auto-z
          ------
  autoz: The atoms group into disjoint clusters
 cluster   1:    1    3
 cluster   2:    2
 Connecting clusters   1   2 via atoms    1    2 r = 1.76
  autoz: regenerating connections with new bonds
  no constraints, skipping    0.0000000000000000     
  no constraints, skipping    0.0000000000000000     


                             Geometry "geometry" -> ""
                             -------------------------

 Output coordinates in a.u. (scale by  1.000000000 to convert to a.u.)

  No.       Tag          Charge          X              Y              Z
 ---- ---------------- ---------- -------------- -------------- --------------
    1 O                    8.0000    -0.17255800    -0.26696100     0.00000000
    2 H                    1.0000    -0.17255800     3.05124900     0.00000000
    3 H                    1.0000     1.55302200    -0.91556100     0.00000000

      Atomic Mass 
      ----------- 

      O                 15.994910
      H                  1.007825


 Effective nuclear repulsion energy (a.u.)       6.9817943681

            Nuclear Dipole moment (a.u.) 
            ----------------------------
        X                 Y               Z
 ---------------- ---------------- ----------------
    -0.0000000000     0.0000000000     0.0000000000



                                Z-matrix (autoz)
                                -------- 

 Units are Angstrom for bonds and degrees for angles

      Type          Name      I     J     K     L     M      Value
      ----------- --------  ----- ----- ----- ----- ----- ----------
    1 Stretch                  1     2                       1.75592
    2 Stretch                  1     3                       0.97551
    3 Bend                     2     1     3               110.59992


            XYZ format geometry
            -------------------
     3
 geometry
 O                    -0.09131377    -0.14126969     0.00000000
 H                    -0.09131377     1.61465155     0.00000000
 H                     0.82182391    -0.48449405     0.00000000

 ==============================================================================
                                internuclear distances
 ------------------------------------------------------------------------------
       center one      |      center two      | atomic units |       a.u.
 ------------------------------------------------------------------------------
    3 H                |   1 O                |     1.84345  |     1.84345
 ------------------------------------------------------------------------------
                         number of included internuclear distances:          1
 ==============================================================================





 Summary of "ao basis" -> "" (spherical)
 ------------------------------------------------------------------------------
       Tag                 Description            Shells   Functions and Types
 ---------------- ------------------------------  ------  ---------------------
 *                         6-311++G**                 on all atoms 


                      Basis "ao basis" -> "ao basis" (spherical)
                      -----
  O (Oxygen)
  ----------
            Exponent  Coefficients 
       -------------- ---------------------------------------------------------
  1 S  8.58850000E+03  0.001895
  1 S  1.29723000E+03  0.014386
  1 S  2.99296000E+02  0.070732
  1 S  8.73771000E+01  0.240001
  1 S  2.56789000E+01  0.594797
  1 S  3.74004000E+00  0.280802

  2 S  4.21175000E+01  0.113889
  2 S  9.62837000E+00  0.920811
  2 S  2.85332000E+00 -0.003274

  3 P  4.21175000E+01  0.036511
  3 P  9.62837000E+00  0.237153
  3 P  2.85332000E+00  0.819702

  4 S  9.05661000E-01  1.000000

  5 P  9.05661000E-01  1.000000

  6 S  2.55611000E-01  1.000000

  7 P  2.55611000E-01  1.000000

  8 S  8.45000000E-02  1.000000

  9 P  8.45000000E-02  1.000000

 10 D  1.29200000E+00  1.000000

  H (Hydrogen)
  ------------
            Exponent  Coefficients 
       -------------- ---------------------------------------------------------
  1 S  3.38650000E+01  0.025494
  1 S  5.09479000E+00  0.190373
  1 S  1.15879000E+00  0.852161

  2 S  3.25840000E-01  1.000000

  3 S  1.02741000E-01  1.000000

  4 S  3.60000000E-02  1.000000

  5 P  7.50000000E-01  1.000000



 Summary of "ao basis" -> "ao basis" (spherical)
 ------------------------------------------------------------------------------
       Tag                 Description            Shells   Functions and Types
 ---------------- ------------------------------  ------  ---------------------
 O                         6-311++G**               10       22   5s4p1d
 H                         6-311++G**                5        7   4s1p



                            NWChem Direct MCSCF Module
                            --------------------------


                                        H2O


     -----------------------------------
       Basis functions:             36
       Inactive shells:              0
       Active shells:                8
       Active electrons:            10
       Symmetry:                    a       
       Multiplicity:                 1
       Orbital rotations:          224
     -----------------------------------

     -----------------------------------
       E2 extrapolation:             F
       Conjugacy:                    T
       Micro CI relax:               T
       Canonical orbitals:           T
       Maximum iterations:          40
       Converge threshold:    1.00E-04
       Conjugacy resets:            20
       Initial levelshift:        0.10
     -----------------------------------

 Loading old vectors from job with title :

H2O


   input molecular orbitals = ./h2o.mos
  output molecular orbtials = ./h2o.mos

       No. of determinants:          3136


  Starting Orbital Energies
   -20.607868    -1.304675    -0.669271    -0.537156    -0.490884    -0.089978
    -0.026498    -0.015033     0.076910     0.088647     0.237874     0.283270
     0.320915     0.484857     0.509687     0.652059     1.060706     1.247717
     1.450175     1.506276     1.589893     1.606626     1.634284     2.032934
     2.251127     2.666999     2.806356     3.172224     3.335738     3.482362
     3.487361     4.169321     5.327606     5.501985     5.950064    51.479996

  Orbital Symmetry Irreps
a    a    a    a    a    a    a    a    a    a    a    a    a    a    a   
a    a    a    a    a    a    a    a    a    a    a    a    a    a    a   
a    a    a    a    a    a   

 Integral file          = ./H2O.aoints.0
 Record size in doubles =  65536        No. of integs per rec  =  43688
 Max. records in memory =     10        Max. records in file   = 232551
 No. of bits per label  =      8        No. of bits per value  =     64


 #quartets = 2.215D+04 #integrals = 1.002D+05 #direct =  0.0% #cached =100.0%




          %%%%% MacroIteration   1 %%%%%


          Number of sigma calls:       21
                       o<<<<< (aa):             0.01
                       o<<<<< (bb):             0.00
                       o<<<<< (ab):             0.07
                       o<<<<< (total)           0.08
                       o<<<<< (aa) ff           0.00
                       o<<<<< (aa) gop          0.00
                       o<<<<< (aa) dot          0.00
                       o<<<<< (ab) str          0.00
                       o<<<<< (ab) gath         0.00
                       o<<<<< (ab) dotab        0.00
                       o<<<<< (ab) scat         0.00
                       o<<<<< (ab) sync         0.00
                       o<<<<< Density           0.01
                       o<<<<< Density one       0.01
                       o<<<<< Density two       0.00
                       o<<<<< Density ab        0.00
                       o<<<<< Spin adapt        0.41
                       o<<<<< Symm adapt        0.00

                       o<<<<< (ab) max sync:      0.00

           >>>| Valence CI:            -82.990179853826
           >>>| MCSCF energy:          -76.008385485750
           >>>| Gradient norm:          0.290987002D-01

                              ----- Line search ------

        step       energy         lsg     num-lsg   num-lsh   lsrat    time
      ------- ---------------- --------- --------- --------- ------- --------
       0.0000     -76.00838549 -1.56D-04  0.00D+00  0.00D+00 0.0D+00      0.7

          Number of sigma calls:       21
                       o<<<<< (aa):             0.00
                       o<<<<< (bb):             0.00
                       o<<<<< (ab):             0.09
                       o<<<<< (total)           0.10
                       o<<<<< (aa) ff           0.00
                       o<<<<< (aa) gop          0.00
                       o<<<<< (aa) dot          0.00
                       o<<<<< (ab) str          0.00
                       o<<<<< (ab) gath         0.00
                       o<<<<< (ab) dotab        0.00
                       o<<<<< (ab) scat         0.00
                       o<<<<< (ab) sync         0.00
                       o<<<<< Density           0.01
                       o<<<<< Density one       0.00
                       o<<<<< Density two       0.00
                       o<<<<< Density ab        0.00
                       o<<<<< Spin adapt        0.44
                       o<<<<< Symm adapt        0.00

                       o<<<<< (ab) max sync:      0.00
       1.0000     -76.00847744 -2.74D-05 -2.75D-05  1.29D-04 1.8D-01      1.3

          Number of sigma calls:       19
                       o<<<<< (aa):             0.00
                       o<<<<< (bb):             0.01
                       o<<<<< (ab):             0.08
                       o<<<<< (total)           0.09
                       o<<<<< (aa) ff           0.00
                       o<<<<< (aa) gop          0.00
                       o<<<<< (aa) dot          0.00
                       o<<<<< (ab) str          0.00
                       o<<<<< (ab) gath         0.00
                       o<<<<< (ab) dotab        0.00
                       o<<<<< (ab) scat         0.00
                       o<<<<< (ab) sync         0.00
                       o<<<<< Density           0.01
                       o<<<<< Density one       0.01
                       o<<<<< Density two       0.00
                       o<<<<< Density ab        0.01
                       o<<<<< Spin adapt        0.39
                       o<<<<< Symm adapt        0.00

                       o<<<<< (ab) max sync:      0.00
       1.2124     -76.00848033  1.80D-07  1.75D-07  1.30D-04 1.2D-03      1.8
     --- Orbitals canonicalized ---



          %%%%% MacroIteration   2 %%%%%


          Number of sigma calls:       20
                       o<<<<< (aa):             0.00
                       o<<<<< (bb):             0.01
                       o<<<<< (ab):             0.08
                       o<<<<< (total)           0.09
                       o<<<<< (aa) ff           0.00
                       o<<<<< (aa) gop          0.00
                       o<<<<< (aa) dot          0.00
                       o<<<<< (ab) str          0.00
                       o<<<<< (ab) gath         0.00
                       o<<<<< (ab) dotab        0.00
                       o<<<<< (ab) scat         0.00
                       o<<<<< (ab) sync         0.00
                       o<<<<< Density           0.02
                       o<<<<< Density one       0.01
                       o<<<<< Density two       0.00
                       o<<<<< Density ab        0.01
                       o<<<<< Spin adapt        0.32
                       o<<<<< Symm adapt        0.00

                       o<<<<< (ab) max sync:      0.00

           >>>| Valence CI:            -82.990274699990
           >>>| MCSCF energy:          -76.008480331915
           >>>| Gradient norm:          0.559207711D-02
     --- Warning:    5 Hessian diagonals < 0.05 ---
     --- Conjugacy reset ---

                              ----- Line search ------

        step       energy         lsg     num-lsg   num-lsh   lsrat    time
      ------- ---------------- --------- --------- --------- ------- --------
       0.0000     -76.00848033 -8.00D-06  0.00D+00  0.00D+00 0.0D+00      2.4

          Number of sigma calls:       18
                       o<<<<< (aa):             0.00
                       o<<<<< (bb):             0.00
                       o<<<<< (ab):             0.09
                       o<<<<< (total)           0.10
                       o<<<<< (aa) ff           0.00
                       o<<<<< (aa) gop          0.00
                       o<<<<< (aa) dot          0.00
                       o<<<<< (ab) str          0.00
                       o<<<<< (ab) gath         0.00
                       o<<<<< (ab) dotab        0.00
                       o<<<<< (ab) scat         0.00
                       o<<<<< (ab) sync         0.00
                       o<<<<< Density           0.00
                       o<<<<< Density one       0.00
                       o<<<<< Density two       0.00
                       o<<<<< Density ab        0.00
                       o<<<<< Spin adapt        0.40
                       o<<<<< Symm adapt        0.00

                       o<<<<< (ab) max sync:      0.00
       1.0000     -76.00848531 -1.95D-06 -1.95D-06  6.05D-06 2.4D-01      2.9

          Number of sigma calls:       16
                       o<<<<< (aa):             0.00
                       o<<<<< (bb):             0.00
                       o<<<<< (ab):             0.08
                       o<<<<< (total)           0.09
                       o<<<<< (aa) ff           0.00
                       o<<<<< (aa) gop          0.00
                       o<<<<< (aa) dot          0.00
                       o<<<<< (ab) str          0.00
                       o<<<<< (ab) gath         0.00
                       o<<<<< (ab) dotab        0.00
                       o<<<<< (ab) scat         0.00
                       o<<<<< (ab) sync         0.00
                       o<<<<< Density           0.01
                       o<<<<< Density one       0.00
                       o<<<<< Density two       0.00
                       o<<<<< Density ab        0.01
                       o<<<<< Spin adapt        0.30
                       o<<<<< Symm adapt        0.00

                       o<<<<< (ab) max sync:      0.00
       1.3218     -76.00848562  6.47D-09  6.21D-09  6.07D-06 8.1D-04      3.4



          %%%%% MacroIteration   3 %%%%%


          Number of sigma calls:        1
                       o<<<<< (aa):             0.00
                       o<<<<< (bb):             0.00
                       o<<<<< (ab):             0.01
                       o<<<<< (total)           0.01
                       o<<<<< (aa) ff           0.00
                       o<<<<< (aa) gop          0.00
                       o<<<<< (aa) dot          0.00
                       o<<<<< (ab) str          0.00
                       o<<<<< (ab) gath         0.00
                       o<<<<< (ab) dotab        0.00
                       o<<<<< (ab) scat         0.00
                       o<<<<< (ab) sync         0.00
                       o<<<<< Density           0.01
                       o<<<<< Density one       0.00
                       o<<<<< Density two       0.00
                       o<<<<< Density ab        0.01
                       o<<<<< Spin adapt        0.00
                       o<<<<< Symm adapt        0.00

                       o<<<<< (ab) max sync:      0.00

           >>>| Valence CI:            -82.990279990245
           >>>| MCSCF energy:          -76.008485622170
           >>>| Gradient norm:          0.177762270D-02
     --- Warning:    5 Hessian diagonals < 0.05 ---

                              ----- Line search ------

        step       energy         lsg     num-lsg   num-lsh   lsrat    time
      ------- ---------------- --------- --------- --------- ------- --------
       0.0000     -76.00848562 -5.44D-07  0.00D+00  0.00D+00 0.0D+00      3.4

          Number of sigma calls:       15
                       o<<<<< (aa):             0.00
                       o<<<<< (bb):             0.01
                       o<<<<< (ab):             0.07
                       o<<<<< (total)           0.08
                       o<<<<< (aa) ff           0.00
                       o<<<<< (aa) gop          0.00
                       o<<<<< (aa) dot          0.00
                       o<<<<< (ab) str          0.00
                       o<<<<< (ab) gath         0.00
                       o<<<<< (ab) dotab        0.00
                       o<<<<< (ab) scat         0.00
                       o<<<<< (ab) sync         0.00
                       o<<<<< Density           0.00
                       o<<<<< Density one       0.00
                       o<<<<< Density two       0.00
                       o<<<<< Density ab        0.00
                       o<<<<< Spin adapt        0.32
                       o<<<<< Symm adapt        0.00

                       o<<<<< (ab) max sync:      0.00
       1.0000     -76.00848594 -1.01D-07 -1.01D-07  4.42D-07 1.9D-01      3.9

          Number of sigma calls:       13
                       o<<<<< (aa):             0.00
                       o<<<<< (bb):             0.00
                       o<<<<< (ab):             0.06
                       o<<<<< (total)           0.06
                       o<<<<< (aa) ff           0.00
                       o<<<<< (aa) gop          0.00
                       o<<<<< (aa) dot          0.00
                       o<<<<< (ab) str          0.00
                       o<<<<< (ab) gath         0.00
                       o<<<<< (ab) dotab        0.00
                       o<<<<< (ab) scat         0.00
                       o<<<<< (ab) sync         0.00
                       o<<<<< Density           0.00
                       o<<<<< Density one       0.00
                       o<<<<< Density two       0.00
                       o<<<<< Density ab        0.00
                       o<<<<< Spin adapt        0.35
                       o<<<<< Symm adapt        0.00

                       o<<<<< (ab) max sync:      0.00
       1.2296     -76.00848596  6.89D-12  4.70D-12  4.42D-07 1.3D-05      4.3



          %%%%% MacroIteration   4 %%%%%


          Number of sigma calls:        1
                       o<<<<< (aa):             0.00
                       o<<<<< (bb):             0.00
                       o<<<<< (ab):             0.00
                       o<<<<< (total)           0.00
                       o<<<<< (aa) ff           0.00
                       o<<<<< (aa) gop          0.00
                       o<<<<< (aa) dot          0.00
                       o<<<<< (ab) str          0.00
                       o<<<<< (ab) gath         0.00
                       o<<<<< (ab) dotab        0.00
                       o<<<<< (ab) scat         0.00
                       o<<<<< (ab) sync         0.00
                       o<<<<< Density           0.01
                       o<<<<< Density one       0.00
                       o<<<<< Density two       0.00
                       o<<<<< Density ab        0.01
                       o<<<<< Spin adapt        0.00
                       o<<<<< Symm adapt        0.00

                       o<<<<< (ab) max sync:      0.00

           >>>| Valence CI:            -82.990280324408
           >>>| MCSCF energy:          -76.008485956332
           >>>| Gradient norm:          0.420304714D-03
     --- Warning:    5 Hessian diagonals < 0.05 ---

                              ----- Line search ------

        step       energy         lsg     num-lsg   num-lsh   lsrat    time
      ------- ---------------- --------- --------- --------- ------- --------
       0.0000     -76.00848596 -3.69D-08  0.00D+00  0.00D+00 0.0D+00      4.4

          Number of sigma calls:       14
                       o<<<<< (aa):             0.00
                       o<<<<< (bb):             0.00
                       o<<<<< (ab):             0.06
                       o<<<<< (total)           0.06
                       o<<<<< (aa) ff           0.00
                       o<<<<< (aa) gop          0.00
                       o<<<<< (aa) dot          0.00
                       o<<<<< (ab) str          0.00
                       o<<<<< (ab) gath         0.00
                       o<<<<< (ab) dotab        0.00
                       o<<<<< (ab) scat         0.00
                       o<<<<< (ab) sync         0.00
                       o<<<<< Density           0.01
                       o<<<<< Density one       0.00
                       o<<<<< Density two       0.00
                       o<<<<< Density ab        0.01
                       o<<<<< Spin adapt        0.38
                       o<<<<< Symm adapt        0.00

                       o<<<<< (ab) max sync:      0.00
       1.0000     -76.00848598 -1.17D-08 -1.17D-08  2.52D-08 3.2D-01      4.9

          Number of sigma calls:       12
                       o<<<<< (aa):             0.00
                       o<<<<< (bb):             0.00
                       o<<<<< (ab):             0.06
                       o<<<<< (total)           0.06
                       o<<<<< (aa) ff           0.00
                       o<<<<< (aa) gop          0.00
                       o<<<<< (aa) dot          0.00
                       o<<<<< (ab) str          0.00
                       o<<<<< (ab) gath         0.00
                       o<<<<< (ab) dotab        0.00
                       o<<<<< (ab) scat         0.00
                       o<<<<< (ab) sync         0.00
                       o<<<<< Density           0.01
                       o<<<<< Density one       0.00
                       o<<<<< Density two       0.00
                       o<<<<< Density ab        0.01
                       o<<<<< Spin adapt        0.32
                       o<<<<< Symm adapt        0.00

                       o<<<<< (ab) max sync:      0.00
       1.4639     -76.00848598 -1.40D-12 -1.76D-12  2.52D-08 3.8D-05      5.3



          %%%%% MacroIteration   5 %%%%%


          Number of sigma calls:        1
                       o<<<<< (aa):             0.00
                       o<<<<< (bb):             0.00
                       o<<<<< (ab):             0.00
                       o<<<<< (total)           0.00
                       o<<<<< (aa) ff           0.00
                       o<<<<< (aa) gop          0.00
                       o<<<<< (aa) dot          0.00
                       o<<<<< (ab) str          0.00
                       o<<<<< (ab) gath         0.00
                       o<<<<< (ab) dotab        0.00
                       o<<<<< (ab) scat         0.00
                       o<<<<< (ab) sync         0.00
                       o<<<<< Density           0.01
                       o<<<<< Density one       0.00
                       o<<<<< Density two       0.00
                       o<<<<< Density ab        0.01
                       o<<<<< Spin adapt        0.00
                       o<<<<< Symm adapt        0.00

                       o<<<<< (ab) max sync:      0.00

           >>>| Valence CI:            -82.990280351420
           >>>| MCSCF energy:          -76.008485983345
           >>>| Gradient norm:          0.336289996D-04




     ==============================
            MCSCF Converged
     ==============================



          Canonical Eigenvalues

              1      
    1  -20.6104
    2   -1.3059
    3   -0.6702
    4   -0.5393
    5   -0.4813
    6   -0.0979
    7   -0.0265
    8   -0.0148
    9    0.0767
   10    0.0892
   11    0.2378
   12    0.2832
   13    0.3208
   14    0.4824
   15    0.5140
   16    0.6474
   17    1.0643
   18    1.2402
   19    1.4478
   20    1.5109
   21    1.5886
   22    1.6015
   23    1.6274
   24    2.0209
   25    2.2468
   26    2.6681
   27    2.8063
   28    3.1684
   29    3.3049
   30    3.4758
   31    3.4805
   32    4.1666
   33    5.3222
   34    5.5033
   35    5.9484
   36   51.4756


          Converged CI vector

   Index           Coefficient          Config. Occupation
         1         -0.91196204          1  2  3  4  5  1  2  3  4  5
         2         -0.12102469          1  2  3  4  5  1  2  3  4  6
        23          0.06793077          1  2  3  4  5  1  2  3  5  8
         9          0.04151329          1  2  3  4  5  1  2  4  5  7
        41         -0.02488015          1  2  3  4  5  1  2  5  7  8
        57         -0.12102469          1  2  3  4  6  1  2  3  4  5
        58          0.30828503          1  2  3  4  6  1  2  3  4  6
        79         -0.02478880          1  2  3  4  6  1  2  3  5  8
        83         -0.02689376          1  2  3  4  6  1  2  3  6  8
        60          0.04625587          1  2  3  4  6  1  2  4  5  6
      1233          0.06793077          1  2  3  5  8  1  2  3  4  5
      1234         -0.02478880          1  2  3  5  8  1  2  3  4  6
      1255          0.05335675          1  2  3  5  8  1  2  3  5  8
      1241          0.03168297          1  2  3  5  8  1  2  4  5  7
      1458         -0.02689376          1  2  3  6  8  1  2  3  4  6
      1483         -0.02231930          1  2  3  6  8  1  2  3  6  8
       170          0.04625587          1  2  4  5  6  1  2  3  4  6
       449          0.04151329          1  2  4  5  7  1  2  3  4  5
       471          0.03168297          1  2  4  5  7  1  2  3  5  8
       457          0.06636976          1  2  4  5  7  1  2  4  5  7
       458          0.02796748          1  2  4  5  7  1  3  4  5  7
       685         -0.02538791          1  2  4  6  7  1  2  4  6  7
      2241         -0.02488015          1  2  5  7  8  1  2  3  4  5
       513          0.02796748          1  3  4  5  7  1  2  4  5  7
       514          0.02647727          1  3  4  5  7  1  3  4  5  7

          Number of sigma calls:        1
                       o<<<<< (aa):             0.00
                       o<<<<< (bb):             0.00
                       o<<<<< (ab):             0.01
                       o<<<<< (total)           0.01
                       o<<<<< (aa) ff           0.00
                       o<<<<< (aa) gop          0.00
                       o<<<<< (aa) dot          0.00
                       o<<<<< (ab) str          0.00
                       o<<<<< (ab) gath         0.00
                       o<<<<< (ab) dotab        0.00
                       o<<<<< (ab) scat         0.00
                       o<<<<< (ab) sync         0.00
                       o<<<<< Density           0.01
                       o<<<<< Density one       0.00
                       o<<<<< Density two       0.00
                       o<<<<< Density ab        0.01
                       o<<<<< Spin adapt        0.00
                       o<<<<< Symm adapt        0.00

                       o<<<<< (ab) max sync:      0.00



          Natural orbital occupation numbers

              1      
    1    2.0000
    2    1.9981
    3    1.9803
    4    1.9734
    5    1.7689
    6    0.2327
    7    0.0275
    8    0.0191


          Number of sigma calls:       20
                       o<<<<< (aa):             0.00
                       o<<<<< (bb):             0.01
                       o<<<<< (ab):             0.08
                       o<<<<< (total)           0.09
                       o<<<<< (aa) ff           0.00
                       o<<<<< (aa) gop          0.00
                       o<<<<< (aa) dot          0.00
                       o<<<<< (ab) str          0.00
                       o<<<<< (ab) gath         0.00
                       o<<<<< (ab) dotab        0.00
                       o<<<<< (ab) scat         0.00
                       o<<<<< (ab) sync         0.00
                       o<<<<< Density           0.02
                       o<<<<< Density one       0.01
                       o<<<<< Density two       0.00
                       o<<<<< Density ab        0.01
                       o<<<<< Spin adapt        0.33
                       o<<<<< Symm adapt        0.00

                       o<<<<< (ab) max sync:      0.00


       Final MCSCF results 
       ------------------- 

       Total MCSCF energy =    -76.008485983344
            Gradient norm =      3.4D-05

    CPU time for solution =      5.9s
   Wall time for solution =     10.7s



                        Analysis of MCSCF natural orbitals
                        ----------------------------------

 Vector    1  Occ=1.999992D+00  E=-2.061038D+01  Symmetry=a
              MO Center= -9.1D-02, -1.4D-01,  7.5D-14, r^2= 1.5D-02
   Bfn.  Coefficient  Atom+Function         Bfn.  Coefficient  Atom+Function  
  ----- ------------  ---------------      ----- ------------  ---------------
     1      0.556767  1 O  s                  2      0.481203  1 O  s          

 Vector    2  Occ=1.998133D+00  E=-1.305885D+00  Symmetry=a
              MO Center= -2.7D-01, -1.4D-01, -2.7D-11, r^2= 4.3D-01
   Bfn.  Coefficient  Atom+Function         Bfn.  Coefficient  Atom+Function  
  ----- ------------  ---------------      ----- ------------  ---------------
     6      0.596827  1 O  s                 10      0.509762  1 O  s          
     2     -0.180164  1 O  s          

 Vector    3  Occ=1.980346D+00  E=-6.701922D-01  Symmetry=a
              MO Center= -7.2D-02, -1.5D-01,  2.6D-11, r^2= 6.8D-01
   Bfn.  Coefficient  Atom+Function         Bfn.  Coefficient  Atom+Function  
  ----- ------------  ---------------      ----- ------------  ---------------
     9      0.445942  1 O  pz                13      0.405695  1 O  pz         
     5      0.296222  1 O  pz         

 Vector    4  Occ=1.973373D+00  E=-5.392509D-01  Symmetry=a
              MO Center=  3.3D-01, -2.8D-01,  1.4D-12, r^2= 6.0D-01
   Bfn.  Coefficient  Atom+Function         Bfn.  Coefficient  Atom+Function  
  ----- ------------  ---------------      ----- ------------  ---------------
     7      0.346440  1 O  px                31      0.291059  3 H  s          
     3      0.230433  1 O  px                11      0.218664  1 O  px         
    30      0.194514  3 H  s          

 Vector    5  Occ=1.768852D+00  E=-4.813011D-01  Symmetry=a
              MO Center= -6.0D-02,  6.1D-01, -4.8D-14, r^2= 1.4D+00
   Bfn.  Coefficient  Atom+Function         Bfn.  Coefficient  Atom+Function  
  ----- ------------  ---------------      ----- ------------  ---------------
     8      0.315007  1 O  py                24      0.299509  2 H  s          
    12      0.273967  1 O  py                 4      0.203158  1 O  py         
    25      0.199977  2 H  s          

 Vector    6  Occ=2.327004D-01  E=-9.786041D-02  Symmetry=a
              MO Center= -6.9D-02,  8.7D-01,  4.9D-13, r^2= 1.4D+00
   Bfn.  Coefficient  Atom+Function         Bfn.  Coefficient  Atom+Function  
  ----- ------------  ---------------      ----- ------------  ---------------
    24      0.461690  2 H  s                  8     -0.401510  1 O  py         
     4     -0.256361  1 O  py                25      0.232639  2 H  s          
    12     -0.215825  1 O  py                23      0.206204  2 H  s          

 Vector    7  Occ=2.752569D-02  E=-2.650355D-02  Symmetry=a
              MO Center=  5.2D-01, -3.4D-01,  3.4D-12, r^2= 6.5D-01
   Bfn.  Coefficient  Atom+Function         Bfn.  Coefficient  Atom+Function  
  ----- ------------  ---------------      ----- ------------  ---------------
    31      0.630059  3 H  s                  7     -0.502008  1 O  px         
     3     -0.395450  1 O  px                 6     -0.377136  1 O  s          
    30      0.317945  3 H  s                 10     -0.168669  1 O  s          
     8      0.154465  1 O  py         

 Vector    8  Occ=1.907929D-02  E=-1.484877D-02  Symmetry=a
              MO Center= -4.1D-02, -1.5D-01,  3.3D-11, r^2= 1.5D+00
   Bfn.  Coefficient  Atom+Function         Bfn.  Coefficient  Atom+Function  
  ----- ------------  ---------------      ----- ------------  ---------------
    13      0.667074  1 O  pz                 5     -0.488009  1 O  pz         
     9     -0.462975  1 O  pz                17      0.298920  1 O  pz         

 Vector    9  Occ=0.000000D+00  E= 7.671176D-02  Symmetry=a
              MO Center=  1.2D+00, -6.5D-01, -1.1D-11, r^2= 1.0D+01
   Bfn.  Coefficient  Atom+Function         Bfn.  Coefficient  Atom+Function  
  ----- ------------  ---------------      ----- ------------  ---------------
    33      1.739610  3 H  s                 14     -0.649604  1 O  s          
    32     -0.568436  3 H  s                 25     -0.408549  2 H  s          
    10      0.240785  1 O  s                 26      0.237664  2 H  s          

 Vector   10  Occ=0.000000D+00  E= 8.924223D-02  Symmetry=a
              MO Center= -1.2D-01,  2.0D+00,  5.9D-12, r^2= 1.2D+01
   Bfn.  Coefficient  Atom+Function         Bfn.  Coefficient  Atom+Function  
  ----- ------------  ---------------      ----- ------------  ---------------
    26      2.258038  2 H  s                 33     -1.487902  3 H  s          
    25     -0.930254  2 H  s                 32      0.194161  3 H  s          
    16     -0.189301  1 O  py                15      0.151094  1 O  px         

 Vector   11  Occ=0.000000D+00  E= 2.378458D-01  Symmetry=a
              MO Center= -7.2D-01, -1.6D-01, -7.4D-12, r^2= 5.0D+00
   Bfn.  Coefficient  Atom+Function         Bfn.  Coefficient  Atom+Function  
  ----- ------------  ---------------      ----- ------------  ---------------
    32      2.293333  3 H  s                 15     -1.864213  1 O  px         
    14     -1.206590  1 O  s                 25      0.484888  2 H  s          
    16     -0.384888  1 O  py                11      0.379857  1 O  px         
    33     -0.366599  3 H  s                 10     -0.356537  1 O  s          
    12      0.232831  1 O  py         

 Vector   12  Occ=0.000000D+00  E= 2.831947D-01  Symmetry=a
              MO Center= -3.0D-01, -5.1D-01,  8.4D-13, r^2= 5.9D+00
   Bfn.  Coefficient  Atom+Function         Bfn.  Coefficient  Atom+Function  
  ----- ------------  ---------------      ----- ------------  ---------------
    32      3.544790  3 H  s                 14     -2.832202  1 O  s          
    16      2.128163  1 O  py                15     -1.913166  1 O  px         
    25     -1.011520  2 H  s                 33      0.659380  3 H  s          
    12     -0.437593  1 O  py                26     -0.321993  2 H  s          
    31     -0.281557  3 H  s                 10      0.222170  1 O  s          

 Vector   13  Occ=0.000000D+00  E= 3.208372D-01  Symmetry=a
              MO Center=  3.1D-01,  3.4D-01, -4.4D-11, r^2= 5.4D+00
   Bfn.  Coefficient  Atom+Function         Bfn.  Coefficient  Atom+Function  
  ----- ------------  ---------------      ----- ------------  ---------------
    14      5.503224  1 O  s                 32     -3.651129  3 H  s          
    25     -1.685953  2 H  s                 15      1.565566  1 O  px         
    10     -1.163768  1 O  s                 16      0.549645  1 O  py         
    33     -0.432457  3 H  s                 31      0.224156  3 H  s          
    12     -0.171730  1 O  py         

 Vector   14  Occ=0.000000D+00  E= 4.824490D-01  Symmetry=a
              MO Center=  1.3D+00, -7.9D-01,  1.5D-12, r^2= 4.3D+00
   Bfn.  Coefficient  Atom+Function         Bfn.  Coefficient  Atom+Function  
  ----- ------------  ---------------      ----- ------------  ---------------
    32      4.483138  3 H  s                 31     -1.533234  3 H  s          
    14     -1.515216  1 O  s                 33     -1.470257  3 H  s          
    15     -0.659570  1 O  px                26      0.494650  2 H  s          
    25     -0.238434  2 H  s                 10     -0.208729  1 O  s          
    16      0.162835  1 O  py         

 Vector   15  Occ=0.000000D+00  E= 5.140227D-01  Symmetry=a
              MO Center= -1.5D-01,  1.9D+00,  1.5D-12, r^2= 4.2D+00
   Bfn.  Coefficient  Atom+Function         Bfn.  Coefficient  Atom+Function  
  ----- ------------  ---------------      ----- ------------  ---------------
    25      2.970234  2 H  s                 24     -1.584773  2 H  s          
    26     -1.487106  2 H  s                 10     -0.399394  1 O  s          
    33      0.325097  3 H  s                 12     -0.281391  1 O  py         

 Vector   16  Occ=0.000000D+00  E= 6.473604D-01  Symmetry=a
              MO Center= -8.1D-02, -1.5D-01,  4.3D-11, r^2= 5.4D+00
   Bfn.  Coefficient  Atom+Function         Bfn.  Coefficient  Atom+Function  
  ----- ------------  ---------------      ----- ------------  ---------------
    17     -1.446240  1 O  pz                13      1.431782  1 O  pz         
     9     -0.448038  1 O  pz         

 Vector   17  Occ=0.000000D+00  E= 1.064323D+00  Symmetry=a
              MO Center= -4.0D-01,  5.0D-02,  2.1D-12, r^2= 2.5D+00
   Bfn.  Coefficient  Atom+Function         Bfn.  Coefficient  Atom+Function  
  ----- ------------  ---------------      ----- ------------  ---------------
    11      2.417417  1 O  px                32      2.391418  3 H  s          
    31     -2.159611  3 H  s                 14     -2.100163  1 O  s          
    15     -1.737239  1 O  px                10      1.468024  1 O  s          
    12     -0.622976  1 O  py                16      0.527889  1 O  py         
     7     -0.488612  1 O  px                33      0.305106  3 H  s          

 Vector   18  Occ=0.000000D+00  E= 1.240211D+00  Symmetry=a
              MO Center= -9.3D-02,  1.6D-01,  2.2D-13, r^2= 2.4D+00
   Bfn.  Coefficient  Atom+Function         Bfn.  Coefficient  Atom+Function  
  ----- ------------  ---------------      ----- ------------  ---------------
    12      1.621865  1 O  py                16     -1.060409  1 O  py         
     8     -0.761736  1 O  py                25      0.757865  2 H  s          
    24     -0.522240  2 H  s                 31      0.273174  3 H  s          
    14     -0.265345  1 O  s                 28     -0.248091  2 H  py         
    33     -0.226735  3 H  s                  4     -0.204388  1 O  py         


 Wrote Lagrangian and 1- and 2-particle density matrices to ./H2O.mcpdm


     Multipole analysis of the density
     ---------------------------------

     L   x y z        total        nuclear
     -   - - -        -----        -------
     0   0 0 0     -0.000000     10.000000

     1   1 0 0      0.617157     -0.000000
     1   0 1 0      0.218274      0.000000
     1   0 0 1     -0.000000      0.000000

     2   2 0 0     -4.642831      2.679864
     2   1 1 0     -0.800706     -1.579874
     2   1 0 1      0.000000      0.000000
     2   0 2 0     -3.301118     10.718518
     2   0 1 1      0.000000      0.000000
     2   0 0 2     -6.198415      0.000000


  Mulliken analysis of the total density
  --------------------------------------

    Atom       Charge   Shell Charges
 -----------   ------   -------------------------------------------------------
    1 O    8     8.38   1.08  0.91  0.90  1.05  1.93  0.86  1.48 -0.02  0.17  0.01
    2 H    1     0.86   0.15  0.45  0.25  0.01  0.00
    3 H    1     0.77   0.26  0.41  0.02  0.01  0.06

    Mulliken analysis of the active space density
    ---------------------------------------------

    Atom       Charge   Shell Charges
 -----------   ------   -------------------------------------------------------
    1 O    8     8.38   1.08  0.91  0.90  1.05  1.93  0.86  1.48 -0.02  0.17  0.01
    2 H    1     0.86   0.15  0.45  0.25  0.01  0.00
    3 H    1     0.77   0.26  0.41  0.02  0.01  0.06

 Parallel integral file used       3 records with       0 large values


 Task  times  cpu:        5.9s     wall:       10.8s


                                NWChem Input Module
                                -------------------


                                 NWChem SCF Module
                                 -----------------


                                        H2O



  ao basis        = "ao basis"
  functions       =    36
  atoms           =     3
  closed shells   =     5
  open shells     =     0
  charge          =   0.00
  wavefunction    = RHF 
  input vectors   = ./h2o.mos
  output vectors  = ./h2o-trash.mos
  use symmetry    = F
  symmetry adapt  = F


 Summary of "ao basis" -> "ao basis" (spherical)
 ------------------------------------------------------------------------------
       Tag                 Description            Shells   Functions and Types
 ---------------- ------------------------------  ------  ---------------------
 O                         6-311++G**               10       22   5s4p1d
 H                         6-311++G**                5        7   4s1p



 Forming initial guess at      10.8s


 Loading old vectors from job with title :

H2O


 Starting SCF solution at      10.8s



 ----------------------------------------------
         Quadratically convergent ROHF

 Convergence threshold     :          1.000E-04
 Maximum no. of iterations :           30
 Final Fock-matrix accuracy:          1.000E-07
 ----------------------------------------------


 Integral file          = ./H2O.aoints.0
 Record size in doubles =  65536        No. of integs per rec  =  43688
 Max. records in memory =     10        Max. records in file   = 232559
 No. of bits per label  =      8        No. of bits per value  =     64


 #quartets = 2.213D+04 #integrals = 1.001D+05 #direct =  0.0% #cached =100.0%



       Final RHF  results 
       ------------------ 

         Total SCF energy =    -75.856204926271
      One-electron energy =   -118.580514728049
      Two-electron energy =     35.742515433702
 Nuclear repulsion energy =      6.981794368076

        Time for solution =      0.0s


             Final eigenvalues
             -----------------

              1      
    1  -20.6104
    2   -1.3059
    3   -0.6702
    4   -0.5393
    5   -0.4813
    6   -0.0979
    7   -0.0265
    8   -0.0148
    9    0.0767
   10    0.0892
   11    0.2378
   12    0.2832
   13    0.3208
   14    0.4824
   15    0.5140

                       ROHF Final Molecular Orbital Analysis
                       -------------------------------------

 Vector    2  Occ=2.000000D+00  E=-1.305885D+00
              MO Center= -2.7D-01, -1.4D-01, -2.7D-11, r^2= 4.3D-01
   Bfn.  Coefficient  Atom+Function         Bfn.  Coefficient  Atom+Function  
  ----- ------------  ---------------      ----- ------------  ---------------
     6      0.596827  1 O  s                 10      0.509762  1 O  s          
     2     -0.180164  1 O  s          

 Vector    3  Occ=2.000000D+00  E=-6.701922D-01
              MO Center= -7.2D-02, -1.5D-01,  2.6D-11, r^2= 6.8D-01
   Bfn.  Coefficient  Atom+Function         Bfn.  Coefficient  Atom+Function  
  ----- ------------  ---------------      ----- ------------  ---------------
     9      0.445942  1 O  pz                13      0.405695  1 O  pz         
     5      0.296222  1 O  pz         

 Vector    4  Occ=2.000000D+00  E=-5.392509D-01
              MO Center=  3.3D-01, -2.8D-01,  1.4D-12, r^2= 6.0D-01
   Bfn.  Coefficient  Atom+Function         Bfn.  Coefficient  Atom+Function  
  ----- ------------  ---------------      ----- ------------  ---------------
     7      0.346440  1 O  px                31      0.291059  3 H  s          
     3      0.230433  1 O  px                11      0.218664  1 O  px         
    30      0.194514  3 H  s          

 Vector    5  Occ=2.000000D+00  E=-4.813011D-01
              MO Center= -6.0D-02,  6.1D-01, -4.8D-14, r^2= 1.4D+00
   Bfn.  Coefficient  Atom+Function         Bfn.  Coefficient  Atom+Function  
  ----- ------------  ---------------      ----- ------------  ---------------
     8      0.315007  1 O  py                24      0.299509  2 H  s          
    12      0.273967  1 O  py                 4      0.203158  1 O  py         
    25      0.199977  2 H  s          

 Vector    6  Occ=0.000000D+00  E=-9.786041D-02
              MO Center= -6.9D-02,  8.7D-01,  4.9D-13, r^2= 1.4D+00
   Bfn.  Coefficient  Atom+Function         Bfn.  Coefficient  Atom+Function  
  ----- ------------  ---------------      ----- ------------  ---------------
    24      0.461690  2 H  s                  8     -0.401510  1 O  py         
     4     -0.256361  1 O  py                25      0.232639  2 H  s          
    12     -0.215825  1 O  py                23      0.206204  2 H  s          

 Vector    7  Occ=0.000000D+00  E=-2.650355D-02
              MO Center=  5.2D-01, -3.4D-01,  3.4D-12, r^2= 6.5D-01
   Bfn.  Coefficient  Atom+Function         Bfn.  Coefficient  Atom+Function  
  ----- ------------  ---------------      ----- ------------  ---------------
    31      0.630059  3 H  s                  7     -0.502008  1 O  px         
     3     -0.395450  1 O  px                 6     -0.377136  1 O  s          
    30      0.317945  3 H  s                 10     -0.168669  1 O  s          
     8      0.154465  1 O  py         

 Vector    8  Occ=0.000000D+00  E=-1.484877D-02
              MO Center= -4.1D-02, -1.5D-01,  3.3D-11, r^2= 1.5D+00
   Bfn.  Coefficient  Atom+Function         Bfn.  Coefficient  Atom+Function  
  ----- ------------  ---------------      ----- ------------  ---------------
    13      0.667074  1 O  pz                 5     -0.488009  1 O  pz         
     9     -0.462975  1 O  pz                17      0.298920  1 O  pz         

 Vector    9  Occ=0.000000D+00  E= 7.671176D-02
              MO Center=  1.2D+00, -6.5D-01, -1.1D-11, r^2= 1.0D+01
   Bfn.  Coefficient  Atom+Function         Bfn.  Coefficient  Atom+Function  
  ----- ------------  ---------------      ----- ------------  ---------------
    33      1.739610  3 H  s                 14     -0.649604  1 O  s          
    32     -0.568436  3 H  s                 25     -0.408549  2 H  s          
    10      0.240785  1 O  s                 26      0.237664  2 H  s          

 Vector   10  Occ=0.000000D+00  E= 8.924223D-02
              MO Center= -1.2D-01,  2.0D+00,  5.9D-12, r^2= 1.2D+01
   Bfn.  Coefficient  Atom+Function         Bfn.  Coefficient  Atom+Function  
  ----- ------------  ---------------      ----- ------------  ---------------
    26      2.258038  2 H  s                 33     -1.487902  3 H  s          
    25     -0.930254  2 H  s                 32      0.194161  3 H  s          
    16     -0.189301  1 O  py                15      0.151094  1 O  px         

 Vector   11  Occ=0.000000D+00  E= 2.378458D-01
              MO Center= -7.2D-01, -1.6D-01, -7.4D-12, r^2= 5.0D+00
   Bfn.  Coefficient  Atom+Function         Bfn.  Coefficient  Atom+Function  
  ----- ------------  ---------------      ----- ------------  ---------------
    32      2.293333  3 H  s                 15     -1.864213  1 O  px         
    14     -1.206590  1 O  s                 25      0.484888  2 H  s          
    16     -0.384888  1 O  py                11      0.379857  1 O  px         
    33     -0.366599  3 H  s                 10     -0.356537  1 O  s          
    12      0.232831  1 O  py         

 Vector   12  Occ=0.000000D+00  E= 2.831947D-01
              MO Center= -3.0D-01, -5.1D-01,  8.4D-13, r^2= 5.9D+00
   Bfn.  Coefficient  Atom+Function         Bfn.  Coefficient  Atom+Function  
  ----- ------------  ---------------      ----- ------------  ---------------
    32      3.544790  3 H  s                 14     -2.832202  1 O  s          
    16      2.128163  1 O  py                15     -1.913166  1 O  px         
    25     -1.011520  2 H  s                 33      0.659380  3 H  s          
    12     -0.437593  1 O  py                26     -0.321993  2 H  s          
    31     -0.281557  3 H  s                 10      0.222170  1 O  s          

 Vector   13  Occ=0.000000D+00  E= 3.208372D-01
              MO Center=  3.1D-01,  3.4D-01, -4.4D-11, r^2= 5.4D+00
   Bfn.  Coefficient  Atom+Function         Bfn.  Coefficient  Atom+Function  
  ----- ------------  ---------------      ----- ------------  ---------------
    14      5.503224  1 O  s                 32     -3.651129  3 H  s          
    25     -1.685953  2 H  s                 15      1.565566  1 O  px         
    10     -1.163768  1 O  s                 16      0.549645  1 O  py         
    33     -0.432457  3 H  s                 31      0.224156  3 H  s          
    12     -0.171730  1 O  py         

 Vector   14  Occ=0.000000D+00  E= 4.824490D-01
              MO Center=  1.3D+00, -7.9D-01,  1.5D-12, r^2= 4.3D+00
   Bfn.  Coefficient  Atom+Function         Bfn.  Coefficient  Atom+Function  
  ----- ------------  ---------------      ----- ------------  ---------------
    32      4.483138  3 H  s                 31     -1.533234  3 H  s          
    14     -1.515216  1 O  s                 33     -1.470257  3 H  s          
    15     -0.659570  1 O  px                26      0.494650  2 H  s          
    25     -0.238434  2 H  s                 10     -0.208729  1 O  s          
    16      0.162835  1 O  py         

 Vector   15  Occ=0.000000D+00  E= 5.140227D-01
              MO Center= -1.5D-01,  1.9D+00,  1.5D-12, r^2= 4.2D+00
   Bfn.  Coefficient  Atom+Function         Bfn.  Coefficient  Atom+Function  
  ----- ------------  ---------------      ----- ------------  ---------------
    25      2.970234  2 H  s                 24     -1.584773  2 H  s          
    26     -1.487106  2 H  s                 10     -0.399394  1 O  s          
    33      0.325097  3 H  s                 12     -0.281391  1 O  py         


 center of mass
 --------------
 x =  -0.07599894 y =  -0.11757643 z =   0.00000000

 moments of inertia (a.u.)
 ------------------
          11.118729569564           1.387761125363           0.000000000000
           1.387761125363           2.833002082974           0.000000000000
           0.000000000000           0.000000000000          13.951731652538

  Mulliken analysis of the total density
  --------------------------------------

    Atom       Charge   Shell Charges
 -----------   ------   -------------------------------------------------------
    1 O    8     8.41   1.08  0.91  0.89  1.05  1.93  0.86  1.53 -0.02  0.17  0.01
    2 H    1     0.83   0.14  0.43  0.25  0.01  0.00
    3 H    1     0.76   0.26  0.41  0.02  0.01  0.06

       Multipole analysis of the density wrt the origin
       ------------------------------------------------

     L   x y z        total         open         nuclear
     -   - - -        -----         ----         -------
     0   0 0 0     -0.000000      0.000000     10.000000

     1   1 0 0      0.625205      0.000000     -0.000000
     1   0 1 0      0.326894      0.000000      0.000000
     1   0 0 1     -0.000000      0.000000      0.000000

     2   2 0 0     -4.644864      0.000000      2.679864
     2   1 1 0     -0.861001      0.000000     -1.579874
     2   1 0 1      0.000000      0.000000      0.000000
     2   0 2 0     -2.905124      0.000000     10.718518
     2   0 1 1      0.000000      0.000000      0.000000
     2   0 0 2     -6.193049      0.000000      0.000000


 Parallel integral file used       3 records with       0 large values

 ------------------------------------
     Number of active orbitals      8
     Number of active alpha electrons      5
     Number of active beta electrons       5
 ------------------------------------
                   NWChem Extensible Many-Electron Theory Module
                   ---------------------------------------------

              ======================================================
                   This portion of the program was automatically
                  generated by a Tensor Contraction Engine (TCE).
                  The development of this portion of the program
                 and TCE was supported by US Department of Energy,
                Office of Science, Office of Basic Energy Science.
                      TCE is a product of Battelle and PNNL.
              Please cite: S.Hirata, J.Phys.Chem.A 107, 9887 (2003).
              ======================================================

                                        H2O


            General Information
            -------------------
      Number of processors :     1
         Wavefunction type : Restricted Hartree-Fock
          No. of electrons :    10
           Alpha electrons :     5
            Beta electrons :     5
           No. of orbitals :    72
            Alpha orbitals :    36
             Beta orbitals :    36
        Alpha frozen cores :     0
         Beta frozen cores :     0
     Alpha frozen virtuals :    28
      Beta frozen virtuals :    28
         Spin multiplicity : singlet 
    Number of AO functions :    36
       Number of AO shells :    20
        Use of symmetry is : off
      Symmetry adaption is : off
         Schwarz screening : 0.10D-09

          Correlation Information
          -----------------------
          Calculation type : Coupled-cluster singles & doubles                           
   Perturbative correction : none                                                        
            Max iterations :      300
        Residual threshold : 0.10D-06
     T(0) DIIS level shift : 0.00D+00
     L(0) DIIS level shift : 0.00D+00
     T(1) DIIS level shift : 0.00D+00
     L(1) DIIS level shift : 0.00D+00
     T(R) DIIS level shift : 0.00D+00
     T(I) DIIS level shift : 0.00D+00
   CC-T/L Amplitude update :  5-th order DIIS
                I/O scheme : Global Array Library
        L-threshold :  0.10D-06
        EOM-threshold :  0.10D-06
 no EOMCCSD initial starts read in
 TCE RESTART OPTIONS
 READ_INT:   F
 WRITE_INT:  F
 READ_TA:    F
 WRITE_TA:   F
 READ_XA:    F
 WRITE_XA:   F
 READ_IN3:   F
 WRITE_IN3:  F
 SLICE:      F
 D4D5:       F
 quantumc:   T
 qrotation:  F
 pwtce:      F
 qducc:      F
 nacto:                         0
 nrotv:                         0
 nrot:                          0

            Memory Information
            ------------------
          Available GA space size is    1610611440 doubles
          Available MA space size is    1610610740 doubles

 Maximum block size supplied by input
 Maximum block size         1 doubles

 tile_dim =      1

 Block   Spin    Irrep     Size     Offset   Alpha
 -------------------------------------------------
   1    alpha     a      1 doubles       0       1
   2    alpha     a      1 doubles       1       2
   3    alpha     a      1 doubles       2       3
   4    alpha     a      1 doubles       3       4
   5    alpha     a      1 doubles       4       5
   6    beta      a      1 doubles       5       1
   7    beta      a      1 doubles       6       2
   8    beta      a      1 doubles       7       3
   9    beta      a      1 doubles       8       4
  10    beta      a      1 doubles       9       5
  11    alpha     a      1 doubles      10      11
  12    alpha     a      1 doubles      11      12
  13    alpha     a      1 doubles      12      13
  14    beta      a      1 doubles      13      11
  15    beta      a      1 doubles      14      12
  16    beta      a      1 doubles      15      13

 Global array virtual files algorithm will be used

 Parallel file system coherency ......... OK

 Integral file          = ./H2O.aoints.0
 Record size in doubles =  65536        No. of integs per rec  =  43688
 Max. records in memory =     10        Max. records in file   = 232559
 No. of bits per label  =      8        No. of bits per value  =     64


 #quartets = 2.215D+04 #integrals = 1.002D+05 #direct =  0.0% #cached =100.0%


 Fock matrix recomputed
 1-e file size   =               64
 1-e file name   = ./H2O.f1
 Cpu & wall time / sec            0.0            0.0
 4-electron integrals stored in orbital form

 v2    file size   =              666
 4-index algorithm nr.  13 is used
 imaxsize =       30
 imaxsize ichop =        0
 begin_one_electron_integrals
    1    1       -32.7657482606
    2    1        -0.6224048901
    4    1         0.1189917737
    5    1        -0.0168413047
    6    1        -0.0956413266
    7    1        -0.1985580318
    1    2        -0.6224048901
    2    2        -7.6815643613
    4    2        -0.2654730621
    5    2         0.0859536246
    6    2         0.2610052649
    7    2         0.1070097944
    3    3        -6.8437594967
    8    3         2.1738682169
    1    4         0.1189917737
    2    4        -0.2654730621
    4    4        -6.6696254033
    5    4        -0.0601174859
    6    4        -0.0053274353
    7    4         1.9659497802
    1    5        -0.0168413047
    2    5         0.0859536246
    4    5        -0.0601174859
    5    5        -5.3295598422
    6    5         2.1396583053
    7    5        -0.0079734868
    1    6        -0.0956413266
    2    6         0.2610052649
    4    6        -0.0053274353
    5    6         2.1396583053
    6    6        -5.1772981158
    7    6         0.0263646329
    1    7        -0.1985580318
    2    7         0.1070097944
    4    7         1.9659497802
    5    7        -0.0079734868
    6    7         0.0263646329
    7    7        -5.9218866559
    3    8         2.1738682169
    8    8        -5.1453706918
 end_one_electron_integrals
 begin_two_electron_integrals
    1    1    1    1        4.8131030741
    2    1    1    1       -0.2811123555
    2    1    2    1        0.0375446086
    3    1    3    1        0.0284237280
    4    1    1    1       -0.0857840700
    4    1    2    1        0.0033196272
    4    1    4    1        0.0214617542
    4    1    2    2       -0.0142151640
    4    1    3    3       -0.0021591075
    5    1    1    1        0.0084595227
    5    1    2    1       -0.0021468278
    5    1    4    1        0.0007168238
    5    1    5    1        0.0150049981
    5    1    2    2       -0.0017092540
    5    1    4    2        0.0005646589
    5    1    3    3        0.0010384285
    5    1    4    4        0.0010766444
    6    1    1    1        0.0674829886
    6    1    2    1       -0.0057601023
    6    1    4    1       -0.0014257774
    6    1    5    1       -0.0177095199
    6    1    6    1        0.0228913806
    6    1    2    2        0.0057725675
    6    1    4    2        0.0007825684
    6    1    5    2       -0.0179301404
    6    1    3    3        0.0028988627
    6    1    4    4        0.0030065244
    6    1    5    4       -0.0031777166
    6    1    5    5       -0.0005238955
    7    1    1    1        0.1614902526
    7    1    2    1       -0.0090400653
    7    1    4    1       -0.0329262036
    7    1    5    1       -0.0000216972
    7    1    6    1        0.0017656634
    7    1    7    1        0.0511255648
    7    1    2    2        0.0220566563
    7    1    4    2       -0.0265526059
    7    1    5    2       -0.0004294251
    7    1    6    2       -0.0032859765
    7    1    3    3        0.0034283573
    7    1    4    4       -0.0148132369
    7    1    5    4        0.0003829956
    7    1    6    4        0.0025058355
    7    1    5    5        0.0025990332
    7    1    6    5       -0.0014738429
    7    1    6    6        0.0034860060
    8    1    3    1       -0.0379521783
    8    1    8    1        0.0509539238
    8    1    3    2       -0.0366517569
    8    1    4    3       -0.0068529294
    8    1    5    3       -0.0000228671
    8    1    6    3        0.0043508160
    8    1    7    3        0.0094492859
    2    2    1    1        1.0859363103
    2    2    2    1        0.0042479248
    2    2    2    2        0.8231794612
    3    2    3    1        0.0264776731
    3    2    3    2        0.1411306667
    4    2    1    1       -0.0039527869
    4    2    2    1       -0.0046285291
    4    2    4    1        0.0173660118
    4    2    2    2       -0.0547443769
    4    2    4    2        0.0924283282
    4    2    3    3        0.0096215265
    5    2    1    1       -0.0365825415
    5    2    2    1       -0.0011368661
    5    2    4    1        0.0009547173
    5    2    5    1        0.0141595934
    5    2    2    2       -0.0321292647
    5    2    4    2        0.0004698274
    5    2    5    2        0.0868043306
    5    2    3    3       -0.0155992137
    5    2    4    4       -0.0167003826
    6    2    1    1       -0.0546519496
    6    2    2    1        0.0009461817
    6    2    4    1        0.0014505971
    6    2    5    1       -0.0149676112
    6    2    6    1        0.0179931671
    6    2    2    2       -0.0202182329
    6    2    4    2        0.0068642744
    6    2    5    2       -0.0735154057
    6    2    6    2        0.0727100588
    6    2    3    3       -0.0275450932
    6    2    4    4       -0.0167322301
    6    2    5    4       -0.0112226405
    6    2    5    5       -0.0236878795
    7    2    1    1       -0.0241684502
    7    2    2    1        0.0053252605
    7    2    4    1       -0.0165550853
    7    2    5    1        0.0003538015
    7    2    6    1       -0.0020995456
    7    2    7    1        0.0241192583
    7    2    2    2        0.0277379555
    7    2    4    2       -0.0600583251
    7    2    5    2        0.0041392681
    7    2    6    2       -0.0089048842
    7    2    7    2        0.0520973816
    7    2    3    3       -0.0164623156
    7    2    4    4       -0.0342742276
    7    2    5    4        0.0006659492
    7    2    6    4        0.0053559271
    7    2    5    5       -0.0075479178
    7    2    6    5        0.0116383007
    7    2    6    6       -0.0084905904
    8    2    3    1       -0.0204157388
    8    2    8    1        0.0256746002
    8    2    3    2       -0.0537565185
    8    2    8    2        0.0437921788
    8    2    4    3       -0.0056980899
    8    2    5    3        0.0009269291
    8    2    6    3        0.0075585009
    8    2    7    3        0.0117094207
    3    3    1    1        1.0348001464
    3    3    2    1        0.0023545372
    3    3    2    2        0.7320227802
    3    3    3    3        0.7440114630
    4    3    3    1        0.0052080897
    4    3    3    2        0.0211963097
    4    3    4    3        0.0351273050
    5    3    3    1       -0.0000524258
    5    3    3    2        0.0001275454
    5    3    4    3        0.0010565045
    5    3    5    3        0.0217193899
    6    3    3    1       -0.0033416609
    6    3    3    2       -0.0122724152
    6    3    4    3       -0.0018386392
    6    3    5    3       -0.0189826244
    6    3    6    3        0.0204311085
    7    3    3    1       -0.0075559421
    7    3    3    2       -0.0202437448
    7    3    4    3       -0.0202220599
    7    3    5    3        0.0003810957
    7    3    6    3        0.0018361871
    7    3    7    3        0.0245389157
    8    3    1    1       -0.5325122110
    8    3    2    1        0.0003361345
    8    3    4    1        0.0033625237
    8    3    5    1       -0.0009176635
    8    3    6    1       -0.0025018350
    8    3    7    1       -0.0057990809
    8    3    2    2       -0.2218548013
    8    3    4    2        0.0030133630
    8    3    5    2        0.0080733427
    8    3    6    2        0.0170953344
    8    3    7    2        0.0083945466
    8    3    3    3       -0.2175575961
    8    3    8    3        0.1629782357
    8    3    4    4       -0.1547973408
    8    3    5    4       -0.0041599812
    8    3    6    4        0.0006390516
    8    3    7    4        0.1232254549
    8    3    5    5       -0.1153089287
    8    3    6    5        0.1047621315
    8    3    7    5       -0.0000938761
    8    3    6    6       -0.1290953144
    8    3    7    6        0.0023646716
    8    3    7    7       -0.1759943909
    4    4    1    1        0.9063866931
    4    4    2    1       -0.0002139841
    4    4    4    1        0.0091960554
    4    4    2    2        0.6366605801
    4    4    4    2        0.0806249507
    4    4    3    3        0.6283928092
    4    4    4    4        0.7666615339
    5    4    1    1        0.0153031052
    5    4    2    1       -0.0000964826
    5    4    4    1       -0.0000959977
    5    4    5    1        0.0027304974
    5    4    2    2        0.0057917704
    5    4    4    2       -0.0022464147
    5    4    5    2        0.0097483090
    5    4    3    3        0.0068587885
    5    4    4    4        0.0038160400
    5    4    5    4        0.0201954866
    6    4    1    1       -0.0002199470
    6    4    2    1        0.0008803680
    6    4    4    1       -0.0019397954
    6    4    5    1       -0.0030984097
    6    4    6    1        0.0036485709
    6    4    2    2        0.0079773926
    6    4    4    2       -0.0042252796
    6    4    5    2       -0.0135861103
    6    4    6    2        0.0111899693
    6    4    3    3        0.0008362117
    6    4    4    4        0.0025138339
    6    4    5    4       -0.0180403950
    6    4    6    4        0.0191987607
    6    4    5    5       -0.0075866603
    7    4    1    1       -0.4767902279
    7    4    2    1        0.0019311712
    7    4    4    1       -0.0040166625
    7    4    5    1       -0.0010275269
    7    4    6    1       -0.0022668162
    7    4    7    1        0.0030887511
    7    4    2    2       -0.2133163678
    7    4    4    2        0.0124405842
    7    4    5    2        0.0045399172
    7    4    6    2        0.0164779877
    7    4    7    2        0.0175880026
    7    4    3    3       -0.1844439172
    7    4    4    4       -0.1051779019
    7    4    5    4       -0.0059979342
    7    4    6    4        0.0057697061
    7    4    7    4        0.2099605971
    7    4    5    5       -0.1167712858
    7    4    6    5        0.0932293775
    7    4    6    6       -0.1290389602
    8    4    3    1       -0.0027829505
    8    4    8    1        0.0031388647
    8    4    3    2       -0.0005553805
    8    4    8    2        0.0031690446
    8    4    4    3       -0.0051826063
    8    4    5    3       -0.0003831683
    8    4    6    3        0.0009349294
    8    4    7    3        0.0160486028
    8    4    8    4        0.0155893918
    5    5    1    1        0.7129017520
    5    5    2    1        0.0014195816
    5    5    4    1       -0.0015018305
    5    5    5    1        0.0013851803
    5    5    2    2        0.5484890587
    5    5    4    2       -0.0001665391
    5    5    5    2        0.0202436588
    5    5    3    3        0.5083627907
    5    5    4    4        0.4744859081
    5    5    5    4        0.0045814177
    5    5    5    5        0.5214857782
    6    5    1    1       -0.4292403383
    6    5    2    1       -0.0011196901
    6    5    4    1        0.0010065155
    6    5    5    1       -0.0018449585
    6    5    6    1       -0.0012899592
    6    5    2    2       -0.2436913200
    6    5    4    2       -0.0099928933
    6    5    5    2        0.0269155091
    6    5    6    2        0.0115594281
    6    5    3    3       -0.2176518995
    6    5    4    4       -0.2006551581
    6    5    5    4       -0.0065275059
    6    5    6    4       -0.0056310434
    6    5    5    5       -0.0695753072
    6    5    6    5        0.2203374467
    7    5    1    1        0.0008901584
    7    5    2    1        0.0003582940
    7    5    4    1       -0.0002131840
    7    5    5    1       -0.0042203033
    7    5    6    1        0.0050735385
    7    5    7    1        0.0000941425
    7    5    2    2        0.0042501100
    7    5    4    2       -0.0000815587
    7    5    5    2       -0.0130405512
    7    5    6    2        0.0125978804
    7    5    7    2       -0.0012577120
    7    5    3    3        0.0013718203
    7    5    4    4       -0.0018952547
    7    5    5    4       -0.0109837049
    7    5    6    4        0.0127066512
    7    5    7    4       -0.0009255493
    7    5    5    5       -0.0025043708
    7    5    6    5       -0.0028882105
    7    5    7    5        0.0140685439
    7    5    6    6       -0.0049899625
    8    5    3    1        0.0002238691
    8    5    8    1       -0.0004406771
    8    5    3    2        0.0039848935
    8    5    8    2       -0.0001326745
    8    5    4    3        0.0000480600
    8    5    5    3       -0.0048294244
    8    5    6    3        0.0083383604
    8    5    7    3        0.0000385637
    8    5    8    4        0.0006176623
    8    5    8    5        0.0110751773
    6    6    1    1        0.7595890820
    6    6    2    1        0.0007778984
    6    6    4    1       -0.0018677342
    6    6    5    1        0.0044125074
    6    6    6    1       -0.0036426833
    6    6    2    2        0.5403181808
    6    6    4    2        0.0001774594
    6    6    5    2        0.0286209665
    6    6    6    2       -0.0327254413
    6    6    3    3        0.5031272881
    6    6    4    4        0.4660220286
    6    6    5    4        0.0035889942
    6    6    6    4       -0.0092965125
    6    6    5    5        0.5325482667
    6    6    6    5       -0.0445520768
    6    6    6    6        0.5677606960
    7    6    1    1       -0.0079731337
    7    6    2    1       -0.0013137493
    7    6    4    1        0.0026663582
    7    6    5    1        0.0048902575
    7    6    6    1       -0.0056242110
    7    6    7    1       -0.0037483292
    7    6    2    2       -0.0144849967
    7    6    4    2        0.0111878442
    7    6    5    2        0.0143762707
    7    6    6    2       -0.0135912396
    7    6    7    2       -0.0063212358
    7    6    3    3       -0.0022533626
    7    6    4    4        0.0092230504
    7    6    5    4        0.0139727472
    7    6    6    4       -0.0152899147
    7    6    7    4        0.0064012351
    7    6    5    5       -0.0034650918
    7    6    6    5       -0.0025453940
    7    6    7    5       -0.0148278576
    7    6    6    6       -0.0034683080
    7    6    7    6        0.0186016818
    8    6    3    1        0.0032477249
    8    6    8    1       -0.0044470914
    8    6    3    2        0.0137442663
    8    6    8    2       -0.0050867691
    8    6    4    3        0.0025465517
    8    6    5    3        0.0110132829
    8    6    6    3       -0.0120776512
    8    6    7    3       -0.0014592466
    8    6    8    4        0.0000644989
    8    6    8    5       -0.0068762767
    8    6    8    6        0.0121171528
    7    7    1    1        1.0404522438
    7    7    2    1       -0.0043310577
    7    7    4    1        0.0091087003
    7    7    5    1        0.0013931649
    7    7    6    1        0.0044875061
    7    7    7    1       -0.0137441550
    7    7    2    2        0.6266123624
    7    7    4    2        0.0716435793
    7    7    5    2       -0.0170107574
    7    7    6    2       -0.0185800803
    7    7    7    2       -0.0332756966
    7    7    3    3        0.6229017203
    7    7    4    4        0.7450960779
    7    7    5    4        0.0035349214
    7    7    6    4        0.0042993448
    7    7    7    4       -0.1022722775
    7    7    5    5        0.4655779921
    7    7    6    5       -0.2059554551
    7    7    7    5       -0.0016180343
    7    7    6    6        0.4637069482
    7    7    7    6        0.0093837158
    7    7    7    7        0.7791732923
    8    7    3    1        0.0071472730
    8    7    8    1       -0.0093392174
    8    7    3    2        0.0236883399
    8    7    8    2       -0.0078301006
    8    7    4    3        0.0263717858
    8    7    5    3        0.0005620198
    8    7    6    3       -0.0016221214
    8    7    7    3       -0.0169323507
    8    7    8    4       -0.0052964834
    8    7    8    5        0.0006868225
    8    7    8    6        0.0027569216
    8    7    8    7        0.0273563829
    8    8    1    1        0.9834388034
    8    8    2    1       -0.0022707105
    8    8    4    1       -0.0042064852
    8    8    5    1        0.0011919389
    8    8    6    1        0.0033850922
    8    8    7    1        0.0068516972
    8    8    2    2        0.6119948397
    8    8    4    2        0.0053424334
    8    8    5    2       -0.0117183032
    8    8    6    2       -0.0215040976
    8    8    7    2       -0.0097465201
    8    8    3    3        0.6227007513
    8    8    8    3       -0.1767347378
    8    8    4    4        0.5412296055
    8    8    5    4        0.0054962144
    8    8    6    4        0.0010532508
    8    8    7    4       -0.1445722147
    8    8    5    5        0.4447251283
    8    8    6    5       -0.1715396410
    8    8    7    5        0.0006905938
    8    8    6    6        0.4428652844
    8    8    7    6       -0.0014693182
    8    8    7    7        0.5525817877
    8    8    8    8        0.5606575783
 end_two_electron_integrals
 enrep_tce =    6.9817943680755548     
  EHF(A)             =       -75.85620493
  EHF(total)         =       -75.85620493
  Shift (HFtot-HFA)  =        -0.00000000
 Cpu & wall time / sec            0.3            0.3
 T1-number-of-tasks                   15

 t1 file size   =               15
 t1 file name   = ./H2O.t1
 t1 file handle =       -998
 T2-number-of-boxes                  315

 t2 file size   =              315
 t2 file name   = ./H2O.t2
 t2 file handle =       -996
CCSD iterations
 ---------------------------------------------------------
 Iter          Residuum       Correlation     Cpu    Wall 
 ---------------------------------------------------------
NEW TASK SCHEDULING
CCSD_T1_NTS --- OK
CCSD_T2_NTS --- OK
    1   0.6071619782971  -0.2552517613905     2.3     3.1
    2   0.8770746053113   0.0238687676676     2.3     3.1
    3   1.2876823169005  -0.3968636933720     2.4     3.1
    4   1.8857570495698   0.2057033414217     2.3     3.2
    5   2.7389840044025  -0.6500316516063     2.3     3.2
 MICROCYCLE DIIS UPDATE:                    5                    5
    6   0.0199695958212  -0.1502540821181     2.4     3.2
    7   0.0226693498689  -0.1494711006955     2.4     3.2
    8   0.0315275388357  -0.1517341357047     2.3     3.2
    9   0.0502185154339  -0.1499827797037     2.4     3.2
   10   0.0852454001550  -0.1518871977387     2.4     3.2
 MICROCYCLE DIIS UPDATE:                   10                    5
   11   0.0011913290548  -0.1511480209659     2.2     3.2
   12   0.0008188052247  -0.1510760496955     2.3     3.2
   13   0.0008673509572  -0.1510010171081     2.4     3.2
   14   0.0011736646574  -0.1511046358662     2.3     3.2
   15   0.0017584604887  -0.1509414515340     2.2     3.2
 MICROCYCLE DIIS UPDATE:                   15                    5
   16   0.0001136854014  -0.1510341865252     2.3     3.2
   17   0.0001067112784  -0.1510357856952     2.4     3.2
   18   0.0001598885861  -0.1510573421820     2.3     3.2
   19   0.0002680444850  -0.1510329983197     2.4     3.2
   20   0.0004608925298  -0.1510713531532     2.4     3.2
 MICROCYCLE DIIS UPDATE:                   20                    5
   21   0.0000095817809  -0.1510494736210     2.4     3.2
   22   0.0000073585865  -0.1510498910138     2.3     3.2
   23   0.0000087279717  -0.1510480753268     2.5     3.2
   24   0.0000127678662  -0.1510506775497     2.5     3.2
   25   0.0000200212816  -0.1510467541075     2.5     3.2
 MICROCYCLE DIIS UPDATE:                   25                    5
   26   0.0000010395544  -0.1510490487278     2.2     3.2
   27   0.0000009088976  -0.1510490534899     2.4     3.2
   28   0.0000013407519  -0.1510492727648     2.4     3.2
   29   0.0000022204923  -0.1510490257428     2.3     3.2
   30   0.0000037725344  -0.1510494030703     2.2     3.2
 MICROCYCLE DIIS UPDATE:                   30                    5
   31   0.0000000917303  -0.1510491882817     2.1     3.2
 -----------------------------------------------------------------
 Iterations converged
 CCSD correlation energy / hartree =        -0.151049188281684
 CCSD total energy / hartree       =       -76.007254114552921

 Singles contributions

 Doubles contributions
     6a   (alpha)     8a   (alpha) ---     3a   (alpha)     5a   (alpha)        0.0238485057
     6a   (alpha)     6a   (beta ) ---     5a   (alpha)     5a   (beta )       -0.3528377623
     6a   (alpha)     7a   (beta ) ---     5a   (alpha)     4a   (beta )       -0.0326546582
     6a   (alpha)     8a   (beta ) ---     5a   (alpha)     3a   (beta )       -0.0369058046
     7a   (alpha)     8a   (alpha) ---     3a   (alpha)     4a   (alpha)        0.0319561525
     7a   (alpha)     6a   (beta ) ---     4a   (alpha)     5a   (beta )       -0.0326546582
     7a   (alpha)     7a   (beta ) ---     4a   (alpha)     4a   (beta )       -0.0912445743
     7a   (alpha)     8a   (beta ) ---     4a   (alpha)     3a   (beta )       -0.0425550523
     8a   (alpha)     6a   (beta ) ---     3a   (alpha)     5a   (beta )       -0.0369058046
     8a   (alpha)     7a   (beta ) ---     3a   (alpha)     4a   (beta )       -0.0425550523
     8a   (alpha)     8a   (beta ) ---     3a   (alpha)     3a   (beta )       -0.0624161114
 Ground state specification:
 exp(T)|Ref>~(1+T)|Ref>
 ------- a(p)+/a(q) strings ----------

 singles norm

 doubles norm

 Reference string
  0.94302093642031259      :(1a)+ (2a)+ (3a)+ (4a)+ (5a)+ (1b)+ (2b)+ (3b)+ (4b)+ (5b)+ |0>

 Singles strings

 Doubles strings
 -0.33273339699067905      :(6a)+ (6b)+ (5b)  (5a)  (1a)+ (2a)+ (3a)+ (4a)+ (5a)+ (1b)+ (2b)+ (3b)+ (4b)+ (5b)+ |0>
 -------------------------------------

 Parallel integral file used       3 records with       0 large values


 Task  times  cpu:       73.5s     wall:       99.8s


                                NWChem Input Module
                                -------------------


 Summary of allocated global arrays
-----------------------------------
  No active global arrays


MA_summarize_allocated_blocks: starting scan ...
MA_summarize_allocated_blocks: scan completed: 0 heap blocks, 0 stack blocks
MA usage statistics:

	allocation statistics:
					      heap	     stack
					      ----	     -----
	current number of blocks	         0	         0
	maximum number of blocks	        18	        42
	current total bytes		         0	         0
	maximum total bytes		   5323032	  24073272
	maximum total K-bytes		      5324	     24074
	maximum total M-bytes		         6	        25


                                     CITATION
                                     --------
                Please cite the following reference when publishing
                           results obtained with NWChem:

          E. Apra, E. J. Bylaska, W. A. de Jong, N. Govind, K. Kowalski,
       T. P. Straatsma, M. Valiev, H. J. J. van Dam, Y. Alexeev, J. Anchell,
       V. Anisimov, F. W. Aquino, R. Atta-Fynn, J. Autschbach, N. P. Bauman,
     J. C. Becca, D. E. Bernholdt, K. Bhaskaran-Nair, S. Bogatko, P. Borowski,
         J. Boschen, J. Brabec, A. Bruner, E. Cauet, Y. Chen, G. N. Chuev,
      C. J. Cramer, J. Daily, M. J. O. Deegan, T. H. Dunning Jr., M. Dupuis,
   K. G. Dyall, G. I. Fann, S. A. Fischer, A. Fonari, H. Fruchtl, L. Gagliardi,
      J. Garza, N. Gawande, S. Ghosh, K. Glaesemann, A. W. Gotz, J. Hammond,
       V. Helms, E. D. Hermes, K. Hirao, S. Hirata, M. Jacquelin, L. Jensen,
   B. G. Johnson, H. Jonsson, R. A. Kendall, M. Klemm, R. Kobayashi, V. Konkov,
      S. Krishnamoorthy, M. Krishnan, Z. Lin, R. D. Lins, R. J. Littlefield,
      A. J. Logsdail, K. Lopata, W. Ma, A. V. Marenich, J. Martin del Campo,
   D. Mejia-Rodriguez, J. E. Moore, J. M. Mullin, T. Nakajima, D. R. Nascimento,
    J. A. Nichols, P. J. Nichols, J. Nieplocha, A. Otero-de-la-Roza, B. Palmer,
    A. Panyala, T. Pirojsirikul, B. Peng, R. Peverati, J. Pittner, L. Pollack,
   R. M. Richard, P. Sadayappan, G. C. Schatz, W. A. Shelton, D. W. Silverstein,
   D. M. A. Smith, T. A. Soares, D. Song, M. Swart, H. L. Taylor, G. S. Thomas,
            V. Tipparaju, D. G. Truhlar, K. Tsemekhman, T. Van Voorhis,
      A. Vazquez-Mayagoitia, P. Verma, O. Villa, A. Vishnu, K. D. Vogiatzis,
        D. Wang, J. H. Weare, M. J. Williamson, T. L. Windus, K. Wolinski,
        A. T. Wong, Q. Wu, C. Yang, Q. Yu, M. Zacharias, Z. Zhang, Y. Zhao,
                                and R. J. Harrison
                        "NWChem: Past, present, and future
                         J. Chem. Phys. 152, 184102 (2020)
                               doi:10.1063/5.0004997

                                      AUTHORS
                                      -------
  E. Apra, E. J. Bylaska, N. Govind, K. Kowalski, M. Valiev, D. Mejia-Rodriguez,
       A. Kunitsa, N. P. Bauman, A. Panyala, W. A. de Jong, T. P. Straatsma,
        H. J. J. van Dam, D. Wang, T. L. Windus, J. Hammond, J. Autschbach,
    K. Bhaskaran-Nair, J. Brabec, K. Lopata, S. A. Fischer, S. Krishnamoorthy,
     M. Jacquelin, W. Ma, M. Klemm, O. Villa, Y. Chen, V. Anisimov, F. Aquino,
    S. Hirata, M. T. Hackler, Eric Hermes, L. Jensen, J. E. Moore, J. C. Becca,
      V. Konjkov, T. Risthaus, M. Malagoli, A. Marenich, A. Otero-de-la-Roza,
        J. Mullin, P. Nichols, R. Peverati, J. Pittner, Y. Zhao, P.-D. Fan,
        A. Fonari, M. J. Williamson, R. J. Harrison, J. R. Rehr, M. Dupuis,
     D. Silverstein, D. M. A. Smith, J. Nieplocha, V. Tipparaju, M. Krishnan,
     B. E. Van Kuiken, A. Vazquez-Mayagoitia, M. Swart, Q. Wu, T. Van Voorhis,
     A. A. Auer, M. Nooijen, L. D. Crosby, E. Brown, G. Cisneros, G. I. Fann,
   H. Fruchtl, J. Garza, K. Hirao, R. A. Kendall, J. A. Nichols, K. Tsemekhman,
    K. Wolinski, J. Anchell, D. E. Bernholdt, P. Borowski, T. Clark, D. Clerc,
   H. Dachsel, M. J. O. Deegan, K. Dyall, D. Elwood, E. Glendening, M. Gutowski,
   A. C. Hess, J. Jaffe, B. G. Johnson, J. Ju, R. Kobayashi, R. Kutteh, Z. Lin,
   R. Littlefield, X. Long, B. Meng, T. Nakajima, S. Niu, L. Pollack, M. Rosing,
   K. Glaesemann, G. Sandrone, M. Stave, H. Taylor, G. Thomas, J. H. van Lenthe,
                               A. T. Wong, Z. Zhang.

 Total times  cpu:       79.5s     wall:      110.6s
