 argument  1 = input.nw
  NWChem w/ OpenMP: maximum threads =    1



============================== echo of input deck ==============================
 echo
 start H2O
 title "H2O"

 memory total 24 gb

 geometry units bohr
 symmetry c1
        O  0.00000000  0.00000000  0.00000000
        H  0.00000000  5.2538325  0.00000000
        H  1.72558000 -0.64860000  0.00000000
 end

 basis spherical
   * library 6-311++G**
 end

 mcscf
   active  8
   actelec 10
   multiplicity 1
   maxiter 40
   vectors input h2o.mos
   vectors output h2o.mos
 end

 task mcscf

 scf
   vectors input h2o.mos
   vectors output h2o-trash.mos
   noscf
 end

 tce
   2eorb
   2emet 13
   ccsd
   maxiter 300
 end

 set tce:print_integrals T
 set tce:qorb 8
 set tce:qela 5
 set tce:qelb 5

# set tce:qducc T
# set tce:nactv 3
# set tce:nonhf T
# set tce:ducc_model 6

 set tce:printtol 0.02

 task tce
================================================================================


                                         
                                         


             Northwest Computational Chemistry Package (NWChem) 7.0.1
             --------------------------------------------------------


                    Environmental Molecular Sciences Laboratory
                       Pacific Northwest National Laboratory
                                Richland, WA 99352

                              Copyright (c) 1994-2020
                       Pacific Northwest National Laboratory
                            Battelle Memorial Institute

             NWChem is an open-source computational chemistry package
                        distributed under the terms of the
                      Educational Community License (ECL) 2.0
             A copy of the license is included with this distribution
                              in the LICENSE.TXT file

                                  ACKNOWLEDGMENT
                                  --------------

            This software and its documentation were developed at the
            EMSL at Pacific Northwest National Laboratory, a multiprogram
            national laboratory, operated for the U.S. Department of Energy
            by Battelle under Contract Number DE-AC05-76RL01830. Support
            for this work was provided by the Department of Energy Office
            of Biological and Environmental Research, Office of Basic
            Energy Sciences, and the Office of Advanced Scientific Computing.


           Job information
           ---------------

    hostname        = WE46210
    program         = /home/baum612/code/nwchem/bin/LINUX64/nwchem
    date            = Thu Sep  5 10:31:33 2024

    compiled        = Wed_Sep_04_02:00:17_2024
    source          = /home/baum612/code/nwchem
    nwchem branch   = 7.0.0
    nwchem revision = nwchem_on_git-4191-g39d87d64de
    ga revision     = 5.8.1
    use scalapack   = F
    input           = input.nw
    prefix          = H2O.
    data base       = ./H2O.db
    status          = startup
    nproc           =        1
    time left       =     -1s



           Memory information
           ------------------

    heap     =  805306366 doubles =   6144.0 Mbytes
    stack    =  805306363 doubles =   6144.0 Mbytes
    global   = 1610612736 doubles =  12288.0 Mbytes (distinct from heap & stack)
    total    = 3221225465 doubles =  24576.0 Mbytes
    verify   = yes
    hardfail = no 


           Directory information
           ---------------------

  0 permanent = .
  0 scratch   = .




                                NWChem Input Module
                                -------------------


                                        H2O
                                        ---
 Turning off AUTOSYM since
 SYMMETRY directive was detected!


          ------
          auto-z
          ------
  autoz: The atoms group into disjoint clusters
 cluster   1:    1    3
 cluster   2:    2
 Connecting clusters   1   2 via atoms    1    2 r = 2.78
  autoz: regenerating connections with new bonds
  no constraints, skipping    0.0000000000000000     
  no constraints, skipping    0.0000000000000000     


                             Geometry "geometry" -> ""
                             -------------------------

 Output coordinates in a.u. (scale by  1.000000000 to convert to a.u.)

  No.       Tag          Charge          X              Y              Z
 ---- ---------------- ---------- -------------- -------------- --------------
    1 O                    8.0000    -0.17255800    -0.46052325     0.00000000
    2 H                    1.0000    -0.17255800     4.79330925     0.00000000
    3 H                    1.0000     1.55302200    -1.10912325     0.00000000

      Atomic Mass 
      ----------- 

      O                 15.994910
      H                  1.007825


 Effective nuclear repulsion energy (a.u.)       6.0250017505

            Nuclear Dipole moment (a.u.) 
            ----------------------------
        X                 Y               Z
 ---------------- ---------------- ----------------
    -0.0000000000     0.0000000000     0.0000000000



                                Z-matrix (autoz)
                                -------- 

 Units are Angstrom for bonds and degrees for angles

      Type          Name      I     J     K     L     M      Value
      ----------- --------  ----- ----- ----- ----- ----- ----------
    1 Stretch                  1     2                       2.78021
    2 Stretch                  1     3                       0.97551
    3 Bend                     2     1     3               110.59992


            XYZ format geometry
            -------------------
     3
 geometry
 O                    -0.09131377    -0.24369843     0.00000000
 H                    -0.09131377     2.53651020     0.00000000
 H                     0.82182391    -0.58692279     0.00000000

 ==============================================================================
                                internuclear distances
 ------------------------------------------------------------------------------
       center one      |      center two      | atomic units |       a.u.
 ------------------------------------------------------------------------------
    3 H                |   1 O                |     1.84345  |     1.84345
 ------------------------------------------------------------------------------
                         number of included internuclear distances:          1
 ==============================================================================





 Summary of "ao basis" -> "" (spherical)
 ------------------------------------------------------------------------------
       Tag                 Description            Shells   Functions and Types
 ---------------- ------------------------------  ------  ---------------------
 *                         6-311++G**                 on all atoms 


                      Basis "ao basis" -> "ao basis" (spherical)
                      -----
  O (Oxygen)
  ----------
            Exponent  Coefficients 
       -------------- ---------------------------------------------------------
  1 S  8.58850000E+03  0.001895
  1 S  1.29723000E+03  0.014386
  1 S  2.99296000E+02  0.070732
  1 S  8.73771000E+01  0.240001
  1 S  2.56789000E+01  0.594797
  1 S  3.74004000E+00  0.280802

  2 S  4.21175000E+01  0.113889
  2 S  9.62837000E+00  0.920811
  2 S  2.85332000E+00 -0.003274

  3 P  4.21175000E+01  0.036511
  3 P  9.62837000E+00  0.237153
  3 P  2.85332000E+00  0.819702

  4 S  9.05661000E-01  1.000000

  5 P  9.05661000E-01  1.000000

  6 S  2.55611000E-01  1.000000

  7 P  2.55611000E-01  1.000000

  8 S  8.45000000E-02  1.000000

  9 P  8.45000000E-02  1.000000

 10 D  1.29200000E+00  1.000000

  H (Hydrogen)
  ------------
            Exponent  Coefficients 
       -------------- ---------------------------------------------------------
  1 S  3.38650000E+01  0.025494
  1 S  5.09479000E+00  0.190373
  1 S  1.15879000E+00  0.852161

  2 S  3.25840000E-01  1.000000

  3 S  1.02741000E-01  1.000000

  4 S  3.60000000E-02  1.000000

  5 P  7.50000000E-01  1.000000



 Summary of "ao basis" -> "ao basis" (spherical)
 ------------------------------------------------------------------------------
       Tag                 Description            Shells   Functions and Types
 ---------------- ------------------------------  ------  ---------------------
 O                         6-311++G**               10       22   5s4p1d
 H                         6-311++G**                5        7   4s1p



                            NWChem Direct MCSCF Module
                            --------------------------


                                        H2O


     -----------------------------------
       Basis functions:             36
       Inactive shells:              0
       Active shells:                8
       Active electrons:            10
       Symmetry:                    a       
       Multiplicity:                 1
       Orbital rotations:          224
     -----------------------------------

     -----------------------------------
       E2 extrapolation:             F
       Conjugacy:                    T
       Micro CI relax:               T
       Canonical orbitals:           T
       Maximum iterations:          40
       Converge threshold:    1.00E-04
       Conjugacy resets:            20
       Initial levelshift:        0.10
     -----------------------------------

 Loading old vectors from job with title :

H2O


   input molecular orbitals = ./h2o.mos
  output molecular orbtials = ./h2o.mos

       No. of determinants:          3136


  Starting Orbital Energies
   -20.623061    -1.316643    -0.680474    -0.554980    -0.350713    -0.225508
    -0.026326    -0.013355     0.070829     0.096986     0.238356     0.275125
     0.305119     0.454587     0.558564     0.586902     1.080527     1.245063
     1.524729     1.562061     1.564956     1.566385     1.574371     1.671743
     2.215808     2.697832     2.764144     3.148053     3.151461     3.447199
     3.464607     4.147501     5.266185     5.445568     5.910408    51.453568

  Orbital Symmetry Irreps
a    a    a    a    a    a    a    a    a    a    a    a    a    a    a   
a    a    a    a    a    a    a    a    a    a    a    a    a    a    a   
a    a    a    a    a    a   

 Integral file          = ./H2O.aoints.0
 Record size in doubles =  65536        No. of integs per rec  =  43688
 Max. records in memory =     10        Max. records in file   = 232548
 No. of bits per label  =      8        No. of bits per value  =     64


 #quartets = 2.123D+04 #integrals = 9.350D+04 #direct =  0.0% #cached =100.0%




          %%%%% MacroIteration   1 %%%%%


          Number of sigma calls:       22
                       o<<<<< (aa):             0.01
                       o<<<<< (bb):             0.01
                       o<<<<< (ab):             0.11
                       o<<<<< (total)           0.12
                       o<<<<< (aa) ff           0.00
                       o<<<<< (aa) gop          0.00
                       o<<<<< (aa) dot          0.00
                       o<<<<< (ab) str          0.00
                       o<<<<< (ab) gath         0.00
                       o<<<<< (ab) dotab        0.00
                       o<<<<< (ab) scat         0.00
                       o<<<<< (ab) sync         0.00
                       o<<<<< Density           0.01
                       o<<<<< Density one       0.00
                       o<<<<< Density two       0.00
                       o<<<<< Density ab        0.00
                       o<<<<< Spin adapt        0.48
                       o<<<<< Symm adapt        0.00

                       o<<<<< (ab) max sync:      0.00

           >>>| Valence CI:            -81.989708811824
           >>>| MCSCF energy:          -75.964707061363
           >>>| Gradient norm:          0.400697156D-02
     --- Warning:    3 Hessian diagonals < 0.05 ---

                              ----- Line search ------

        step       energy         lsg     num-lsg   num-lsh   lsrat    time
      ------- ---------------- --------- --------- --------- ------- --------
       0.0000     -75.96470706 -4.05D-06  0.00D+00  0.00D+00 0.0D+00      0.9

          Number of sigma calls:       24
                       o<<<<< (aa):             0.00
                       o<<<<< (bb):             0.01
                       o<<<<< (ab):             0.11
                       o<<<<< (total)           0.12
                       o<<<<< (aa) ff           0.00
                       o<<<<< (aa) gop          0.00
                       o<<<<< (aa) dot          0.00
                       o<<<<< (ab) str          0.00
                       o<<<<< (ab) gath         0.00
                       o<<<<< (ab) dotab        0.00
                       o<<<<< (ab) scat         0.00
                       o<<<<< (ab) sync         0.00
                       o<<<<< Density           0.01
                       o<<<<< Density one       0.00
                       o<<<<< Density two       0.00
                       o<<<<< Density ab        0.01
                       o<<<<< Spin adapt        0.58
                       o<<<<< Symm adapt        0.00

                       o<<<<< (ab) max sync:      0.00
       1.0000     -75.96470934 -4.97D-07 -4.97D-07  3.55D-06 1.2D-01      1.7

          Number of sigma calls:       18
                       o<<<<< (aa):             0.00
                       o<<<<< (bb):             0.00
                       o<<<<< (ab):             0.09
                       o<<<<< (total)           0.10
                       o<<<<< (aa) ff           0.00
                       o<<<<< (aa) gop          0.00
                       o<<<<< (aa) dot          0.00
                       o<<<<< (ab) str          0.00
                       o<<<<< (ab) gath         0.00
                       o<<<<< (ab) dotab        0.00
                       o<<<<< (ab) scat         0.00
                       o<<<<< (ab) sync         0.00
                       o<<<<< Density           0.00
                       o<<<<< Density one       0.00
                       o<<<<< Density two       0.00
                       o<<<<< Density ab        0.00
                       o<<<<< Spin adapt        0.51
                       o<<<<< Symm adapt        0.00

                       o<<<<< (ab) max sync:      0.00
       1.1397     -75.96470937  2.34D-10  2.32D-10  3.56D-06 5.8D-05      2.4
     --- Orbitals canonicalized ---



          %%%%% MacroIteration   2 %%%%%


          Number of sigma calls:       20
                       o<<<<< (aa):             0.00
                       o<<<<< (bb):             0.01
                       o<<<<< (ab):             0.09
                       o<<<<< (total)           0.10
                       o<<<<< (aa) ff           0.00
                       o<<<<< (aa) gop          0.00
                       o<<<<< (aa) dot          0.00
                       o<<<<< (ab) str          0.00
                       o<<<<< (ab) gath         0.00
                       o<<<<< (ab) dotab        0.00
                       o<<<<< (ab) scat         0.00
                       o<<<<< (ab) sync         0.00
                       o<<<<< Density           0.01
                       o<<<<< Density one       0.00
                       o<<<<< Density two       0.00
                       o<<<<< Density ab        0.01
                       o<<<<< Spin adapt        0.47
                       o<<<<< Symm adapt        0.00

                       o<<<<< (ab) max sync:      0.00

           >>>| Valence CI:            -81.989711120283
           >>>| MCSCF energy:          -75.964709369821
           >>>| Gradient norm:          0.503797166D-03
     --- Warning:    6 Hessian diagonals < 0.05 ---
     --- Conjugacy reset ---

                              ----- Line search ------

        step       energy         lsg     num-lsg   num-lsh   lsrat    time
      ------- ---------------- --------- --------- --------- ------- --------
       0.0000     -75.96470937 -6.42D-08  0.00D+00  0.00D+00 0.0D+00      3.1

          Number of sigma calls:       14
                       o<<<<< (aa):             0.00
                       o<<<<< (bb):             0.00
                       o<<<<< (ab):             0.07
                       o<<<<< (total)           0.08
                       o<<<<< (aa) ff           0.00
                       o<<<<< (aa) gop          0.00
                       o<<<<< (aa) dot          0.00
                       o<<<<< (ab) str          0.00
                       o<<<<< (ab) gath         0.00
                       o<<<<< (ab) dotab        0.00
                       o<<<<< (ab) scat         0.00
                       o<<<<< (ab) sync         0.00
                       o<<<<< Density           0.01
                       o<<<<< Density one       0.00
                       o<<<<< Density two       0.00
                       o<<<<< Density ab        0.00
                       o<<<<< Spin adapt        0.28
                       o<<<<< Symm adapt        0.00

                       o<<<<< (ab) max sync:      0.00
       1.0000     -75.96470941 -9.00D-09 -9.02D-09  5.52D-08 1.4D-01      3.5

          Number of sigma calls:       11
                       o<<<<< (aa):             0.00
                       o<<<<< (bb):             0.00
                       o<<<<< (ab):             0.05
                       o<<<<< (total)           0.05
                       o<<<<< (aa) ff           0.00
                       o<<<<< (aa) gop          0.00
                       o<<<<< (aa) dot          0.00
                       o<<<<< (ab) str          0.00
                       o<<<<< (ab) gath         0.00
                       o<<<<< (ab) dotab        0.00
                       o<<<<< (ab) scat         0.00
                       o<<<<< (ab) sync         0.00
                       o<<<<< Density           0.01
                       o<<<<< Density one       0.00
                       o<<<<< Density two       0.00
                       o<<<<< Density ab        0.01
                       o<<<<< Spin adapt        0.15
                       o<<<<< Symm adapt        0.00

                       o<<<<< (ab) max sync:      0.00
       1.1632     -75.96470941  5.22D-12  4.65D-12  5.52D-08 8.1D-05      3.8



          %%%%% MacroIteration   3 %%%%%


          Number of sigma calls:        1
                       o<<<<< (aa):             0.00
                       o<<<<< (bb):             0.00
                       o<<<<< (ab):             0.01
                       o<<<<< (total)           0.01
                       o<<<<< (aa) ff           0.00
                       o<<<<< (aa) gop          0.00
                       o<<<<< (aa) dot          0.00
                       o<<<<< (ab) str          0.00
                       o<<<<< (ab) gath         0.00
                       o<<<<< (ab) dotab        0.00
                       o<<<<< (ab) scat         0.00
                       o<<<<< (ab) sync         0.00
                       o<<<<< Density           0.02
                       o<<<<< Density one       0.00
                       o<<<<< Density two       0.00
                       o<<<<< Density ab        0.01
                       o<<<<< Spin adapt        0.00
                       o<<<<< Symm adapt        0.00

                       o<<<<< (ab) max sync:      0.00

           >>>| Valence CI:            -81.989711157615
           >>>| MCSCF energy:          -75.964709407153
           >>>| Gradient norm:          0.896862854D-04




     ==============================
            MCSCF Converged
     ==============================



          Canonical Eigenvalues

              1      
    1  -20.6230
    2   -1.3167
    3   -0.6805
    4   -0.5550
    5   -0.3481
    6   -0.2282
    7   -0.0263
    8   -0.0133
    9    0.0706
   10    0.0971
   11    0.2385
   12    0.2743
   13    0.3042
   14    0.4543
   15    0.5578
   16    0.5864
   17    1.0805
   18    1.2450
   19    1.5220
   20    1.5614
   21    1.5661
   22    1.5667
   23    1.5735
   24    1.6707
   25    2.2156
   26    2.6981
   27    2.7643
   28    3.1480
   29    3.1513
   30    3.4470
   31    3.4645
   32    4.1474
   33    5.2658
   34    5.4455
   35    5.9103
   36   51.4535


          Converged CI vector

   Index           Coefficient          Config. Occupation
         1         -0.57127078          1  2  3  4  5  1  2  3  4  5
         2         -0.47734174          1  2  3  4  5  1  2  3  4  6
        23          0.03421346          1  2  3  4  5  1  2  3  5  8
        27          0.02737438          1  2  3  4  5  1  2  3  6  8
         9         -0.02203915          1  2  3  4  5  1  2  4  5  7
        57         -0.47734174          1  2  3  4  6  1  2  3  4  5
        58          0.43417732          1  2  3  4  6  1  2  3  4  6
        83         -0.02947219          1  2  3  4  6  1  2  3  6  8
      1233          0.03421346          1  2  3  5  8  1  2  3  4  5
      1255          0.03424044          1  2  3  5  8  1  2  3  5  8
      1259          0.02931109          1  2  3  5  8  1  2  3  6  8
      1241         -0.02076798          1  2  3  5  8  1  2  4  5  7
      1457          0.02737438          1  2  3  6  8  1  2  3  4  5
      1458         -0.02947219          1  2  3  6  8  1  2  3  4  6
      1479          0.02931109          1  2  3  6  8  1  2  3  5  8
      1483         -0.02713139          1  2  3  6  8  1  2  3  6  8
       449         -0.02203915          1  2  4  5  7  1  2  3  4  5
       471         -0.02076798          1  2  4  5  7  1  2  3  5  8
       457          0.04379122          1  2  4  5  7  1  2  4  5  7
       461          0.03706627          1  2  4  5  7  1  2  4  6  7
       681          0.03706627          1  2  4  6  7  1  2  4  5  7
       685         -0.03392521          1  2  4  6  7  1  2  4  6  7

          Number of sigma calls:        1
                       o<<<<< (aa):             0.00
                       o<<<<< (bb):             0.00
                       o<<<<< (ab):             0.01
                       o<<<<< (total)           0.01
                       o<<<<< (aa) ff           0.00
                       o<<<<< (aa) gop          0.00
                       o<<<<< (aa) dot          0.00
                       o<<<<< (ab) str          0.00
                       o<<<<< (ab) gath         0.00
                       o<<<<< (ab) dotab        0.00
                       o<<<<< (ab) scat         0.00
                       o<<<<< (ab) sync         0.00
                       o<<<<< Density           0.01
                       o<<<<< Density one       0.01
                       o<<<<< Density two       0.00
                       o<<<<< Density ab        0.00
                       o<<<<< Spin adapt        0.00
                       o<<<<< Symm adapt        0.00

                       o<<<<< (ab) max sync:      0.00



          Natural orbital occupation numbers

              1      
    1    2.0000
    2    1.9989
    3    1.9845
    4    1.9744
    5    1.1943
    6    0.8058
    7    0.0267
    8    0.0154


          Number of sigma calls:       22
                       o<<<<< (aa):             0.00
                       o<<<<< (bb):             0.01
                       o<<<<< (ab):             0.12
                       o<<<<< (total)           0.13
                       o<<<<< (aa) ff           0.00
                       o<<<<< (aa) gop          0.00
                       o<<<<< (aa) dot          0.00
                       o<<<<< (ab) str          0.00
                       o<<<<< (ab) gath         0.00
                       o<<<<< (ab) dotab        0.00
                       o<<<<< (ab) scat         0.00
                       o<<<<< (ab) sync         0.00
                       o<<<<< Density           0.00
                       o<<<<< Density one       0.00
                       o<<<<< Density two       0.00
                       o<<<<< Density ab        0.00
                       o<<<<< Spin adapt        0.50
                       o<<<<< Symm adapt        0.00

                       o<<<<< (ab) max sync:      0.00


       Final MCSCF results 
       ------------------- 

       Total MCSCF energy =    -75.964709407152
            Gradient norm =      9.0D-05

    CPU time for solution =      4.6s
   Wall time for solution =      8.3s



                        Analysis of MCSCF natural orbitals
                        ----------------------------------

 Vector    1  Occ=1.999993D+00  E=-2.062300D+01  Symmetry=a
              MO Center= -9.1D-02, -2.4D-01,  7.1D-14, r^2= 1.5D-02
   Bfn.  Coefficient  Atom+Function         Bfn.  Coefficient  Atom+Function  
  ----- ------------  ---------------      ----- ------------  ---------------
     1      0.558554  1 O  s                  2      0.484794  1 O  s          

 Vector    2  Occ=1.998923D+00  E=-1.316667D+00  Symmetry=a
              MO Center= -2.6D-01, -1.8D-01, -3.0D-11, r^2= 4.3D-01
   Bfn.  Coefficient  Atom+Function         Bfn.  Coefficient  Atom+Function  
  ----- ------------  ---------------      ----- ------------  ---------------
     6      0.600856  1 O  s                 10      0.507606  1 O  s          
     2     -0.171352  1 O  s          

 Vector    3  Occ=1.984478D+00  E=-6.804937D-01  Symmetry=a
              MO Center= -7.2D-02, -2.5D-01,  2.9D-11, r^2= 6.6D-01
   Bfn.  Coefficient  Atom+Function         Bfn.  Coefficient  Atom+Function  
  ----- ------------  ---------------      ----- ------------  ---------------
     9      0.450963  1 O  pz                13      0.408025  1 O  pz         
     5      0.298204  1 O  pz         

 Vector    4  Occ=1.974396D+00  E=-5.550261D-01  Symmetry=a
              MO Center=  3.3D-01, -4.0D-01,  1.6D-12, r^2= 5.8D-01
   Bfn.  Coefficient  Atom+Function         Bfn.  Coefficient  Atom+Function  
  ----- ------------  ---------------      ----- ------------  ---------------
     7      0.335068  1 O  px                31      0.297722  3 H  s          
     3      0.222276  1 O  px                11      0.204233  1 O  px         
    30      0.196341  3 H  s          

 Vector    5  Occ=1.194322D+00  E=-3.481425D-01  Symmetry=a
              MO Center= -7.9D-02,  1.1D+00,  2.0D-13, r^2= 2.6D+00
   Bfn.  Coefficient  Atom+Function         Bfn.  Coefficient  Atom+Function  
  ----- ------------  ---------------      ----- ------------  ---------------
    24      0.344292  2 H  s                  8      0.312816  1 O  py         
    12      0.256646  1 O  py                25      0.255298  2 H  s          
     4      0.199009  1 O  py                23      0.161003  2 H  s          

 Vector    6  Occ=8.057851D-01  E=-2.282383D-01  Symmetry=a
              MO Center= -8.4D-02,  1.2D+00, -1.0D-13, r^2= 2.7D+00
   Bfn.  Coefficient  Atom+Function         Bfn.  Coefficient  Atom+Function  
  ----- ------------  ---------------      ----- ------------  ---------------
    24      0.370214  2 H  s                  8     -0.336071  1 O  py         
    25      0.276656  2 H  s                 12     -0.263443  1 O  py         
     4     -0.213219  1 O  py                23      0.175129  2 H  s          

 Vector    7  Occ=2.671251D-02  E=-2.632125D-02  Symmetry=a
              MO Center=  5.1D-01, -4.7D-01,  3.0D-12, r^2= 6.0D-01
   Bfn.  Coefficient  Atom+Function         Bfn.  Coefficient  Atom+Function  
  ----- ------------  ---------------      ----- ------------  ---------------
    31      0.679436  3 H  s                  7     -0.486481  1 O  px         
     6     -0.387052  1 O  s                  3     -0.383222  1 O  px         
    30      0.346004  3 H  s                 10     -0.190145  1 O  s          
     8      0.180885  1 O  py         

 Vector    8  Occ=1.539130D-02  E=-1.334094D-02  Symmetry=a
              MO Center= -2.3D-02, -2.7D-01,  3.8D-11, r^2= 1.4D+00
   Bfn.  Coefficient  Atom+Function         Bfn.  Coefficient  Atom+Function  
  ----- ------------  ---------------      ----- ------------  ---------------
    13      0.705230  1 O  pz                 5     -0.517184  1 O  pz         
     9     -0.439294  1 O  pz                17      0.234271  1 O  pz         

 Vector    9  Occ=0.000000D+00  E= 7.063222D-02  Symmetry=a
              MO Center=  1.3D+00, -9.2D-01, -2.7D-11, r^2= 9.5D+00
   Bfn.  Coefficient  Atom+Function         Bfn.  Coefficient  Atom+Function  
  ----- ------------  ---------------      ----- ------------  ---------------
    33      1.811536  3 H  s                 14     -0.676836  1 O  s          
    32     -0.564568  3 H  s                 25     -0.257151  2 H  s          
    10      0.206075  1 O  s          

 Vector   10  Occ=0.000000D+00  E= 9.709116D-02  Symmetry=a
              MO Center= -1.5D-01,  3.1D+00,  5.0D-12, r^2= 1.1D+01
   Bfn.  Coefficient  Atom+Function         Bfn.  Coefficient  Atom+Function  
  ----- ------------  ---------------      ----- ------------  ---------------
    26      2.011696  2 H  s                 25     -1.144462  2 H  s          
    33     -0.850005  3 H  s                 16     -0.182241  1 O  py         
    32      0.152401  3 H  s          

 Vector   11  Occ=0.000000D+00  E= 2.384858D-01  Symmetry=a
              MO Center= -8.5D-01, -2.9D-01, -2.1D-11, r^2= 4.8D+00
   Bfn.  Coefficient  Atom+Function         Bfn.  Coefficient  Atom+Function  
  ----- ------------  ---------------      ----- ------------  ---------------
    15      1.603426  1 O  px                32     -1.540379  3 H  s          
    10      0.483747  1 O  s                 11     -0.415498  1 O  px         
    33      0.382115  3 H  s                 14      0.256851  1 O  s          
    16      0.236284  1 O  py                12     -0.198605  1 O  py         
    25     -0.189058  2 H  s          

 Vector   12  Occ=0.000000D+00  E= 2.743273D-01  Symmetry=a
              MO Center= -4.7D-01, -1.5D-01, -1.1D-13, r^2= 6.0D+00
   Bfn.  Coefficient  Atom+Function         Bfn.  Coefficient  Atom+Function  
  ----- ------------  ---------------      ----- ------------  ---------------
    32      2.876942  3 H  s                 14     -2.241595  1 O  s          
    16      1.797243  1 O  py                15     -1.492977  1 O  px         
    12     -0.517588  1 O  py                25     -0.444265  2 H  s          
    33      0.301708  3 H  s                 31     -0.227417  3 H  s          
    26     -0.212504  2 H  s          

 Vector   13  Occ=0.000000D+00  E= 3.041997D-01  Symmetry=a
              MO Center=  5.5D-01,  7.9D-02, -3.6D-11, r^2= 5.1D+00
   Bfn.  Coefficient  Atom+Function         Bfn.  Coefficient  Atom+Function  
  ----- ------------  ---------------      ----- ------------  ---------------
    14      5.364562  1 O  s                 32     -4.221420  3 H  s          
    15      2.103037  1 O  px                10     -1.112458  1 O  s          
    33     -0.665935  3 H  s                 25     -0.388109  2 H  s          
    31      0.274430  3 H  s                 16     -0.266720  1 O  py         
    12     -0.166251  1 O  py         

 Vector   14  Occ=0.000000D+00  E= 4.542762D-01  Symmetry=a
              MO Center=  1.2D+00, -7.5D-01,  5.1D-12, r^2= 4.9D+00
   Bfn.  Coefficient  Atom+Function         Bfn.  Coefficient  Atom+Function  
  ----- ------------  ---------------      ----- ------------  ---------------
    32      4.626885  3 H  s                 14     -1.697852  1 O  s          
    31     -1.459103  3 H  s                 33     -1.292861  3 H  s          
    15     -0.841441  1 O  px                25      0.555567  2 H  s          
    24     -0.304494  2 H  s                 10     -0.218573  1 O  s          

 Vector   15  Occ=0.000000D+00  E= 5.577933D-01  Symmetry=a
              MO Center= -5.9D-02,  2.5D+00, -1.2D-11, r^2= 4.7D+00
   Bfn.  Coefficient  Atom+Function         Bfn.  Coefficient  Atom+Function  
  ----- ------------  ---------------      ----- ------------  ---------------
    25      2.758021  2 H  s                 24     -1.629261  2 H  s          
    26     -1.283217  2 H  s                 32     -0.637418  3 H  s          
    33      0.503253  3 H  s                 31      0.334339  3 H  s          
    14     -0.161904  1 O  s                 10      0.154292  1 O  s          

 Vector   16  Occ=0.000000D+00  E= 5.863836D-01  Symmetry=a
              MO Center= -8.0D-02, -2.4D-01,  7.2D-11, r^2= 5.5D+00
   Bfn.  Coefficient  Atom+Function         Bfn.  Coefficient  Atom+Function  
  ----- ------------  ---------------      ----- ------------  ---------------
    17     -1.450576  1 O  pz                13      1.362898  1 O  pz         
     9     -0.404321  1 O  pz         

 Vector   17  Occ=0.000000D+00  E= 1.080486D+00  Symmetry=a
              MO Center= -4.5D-01, -7.9D-02,  3.3D-12, r^2= 2.3D+00
   Bfn.  Coefficient  Atom+Function         Bfn.  Coefficient  Atom+Function  
  ----- ------------  ---------------      ----- ------------  ---------------
    11      2.402360  1 O  px                32      2.245520  3 H  s          
    31     -2.164396  3 H  s                 14     -1.937149  1 O  s          
    15     -1.598793  1 O  px                10      1.458412  1 O  s          
    12     -0.791041  1 O  py                16      0.594046  1 O  py         
     7     -0.493785  1 O  px                34      0.241621  3 H  px         

 Vector   18  Occ=0.000000D+00  E= 1.245030D+00  Symmetry=a
              MO Center= -8.2D-02, -3.0D-01, -1.9D-13, r^2= 2.1D+00
   Bfn.  Coefficient  Atom+Function         Bfn.  Coefficient  Atom+Function  
  ----- ------------  ---------------      ----- ------------  ---------------
    12      1.664984  1 O  py                16     -0.880433  1 O  py         
     8     -0.827165  1 O  py                11      0.351703  1 O  px         
     7     -0.269405  1 O  px                26      0.235110  2 H  s          
    10     -0.229115  1 O  s                  4     -0.219509  1 O  py         
    33     -0.198720  3 H  s                 31      0.191506  3 H  s          


 Wrote Lagrangian and 1- and 2-particle density matrices to ./H2O.mcpdm


     Multipole analysis of the density
     ---------------------------------

     L   x y z        total        nuclear
     -   - - -        -----        -------
     0   0 0 0     -0.000000     10.000000

     1   1 0 0      0.649249     -0.000000
     1   0 1 0     -0.224287      0.000000
     1   0 0 1     -0.000000      0.000000

     2   2 0 0     -4.551517      2.679864
     2   1 1 0     -0.577191     -1.913881
     2   1 0 1      0.000000      0.000000
     2   0 2 0     -4.550438     25.902621
     2   0 1 1      0.000000      0.000000
     2   0 0 2     -6.130178      0.000000


  Mulliken analysis of the total density
  --------------------------------------

    Atom       Charge   Shell Charges
 -----------   ------   -------------------------------------------------------
    1 O    8     8.22   1.08  0.91  0.90  1.06  1.93  0.86  1.37 -0.03  0.12  0.01
    2 H    1     1.00   0.17  0.49  0.33  0.01  0.00
    3 H    1     0.78   0.26  0.42  0.02  0.01  0.06

    Mulliken analysis of the active space density
    ---------------------------------------------

    Atom       Charge   Shell Charges
 -----------   ------   -------------------------------------------------------
    1 O    8     8.22   1.08  0.91  0.90  1.06  1.93  0.86  1.37 -0.03  0.12  0.01
    2 H    1     1.00   0.17  0.49  0.33  0.01  0.00
    3 H    1     0.78   0.26  0.42  0.02  0.01  0.06

 Parallel integral file used       3 records with       0 large values


 Task  times  cpu:        4.6s     wall:        8.3s


                                NWChem Input Module
                                -------------------


                                 NWChem SCF Module
                                 -----------------


                                        H2O



  ao basis        = "ao basis"
  functions       =    36
  atoms           =     3
  closed shells   =     5
  open shells     =     0
  charge          =   0.00
  wavefunction    = RHF 
  input vectors   = ./h2o.mos
  output vectors  = ./h2o-trash.mos
  use symmetry    = F
  symmetry adapt  = F


 Summary of "ao basis" -> "ao basis" (spherical)
 ------------------------------------------------------------------------------
       Tag                 Description            Shells   Functions and Types
 ---------------- ------------------------------  ------  ---------------------
 O                         6-311++G**               10       22   5s4p1d
 H                         6-311++G**                5        7   4s1p



 Forming initial guess at       8.3s


 Loading old vectors from job with title :

H2O


 Starting SCF solution at       8.3s



 ----------------------------------------------
         Quadratically convergent ROHF

 Convergence threshold     :          1.000E-04
 Maximum no. of iterations :           30
 Final Fock-matrix accuracy:          1.000E-07
 ----------------------------------------------


 Integral file          = ./H2O.aoints.0
 Record size in doubles =  65536        No. of integs per rec  =  43688
 Max. records in memory =     10        Max. records in file   = 232555
 No. of bits per label  =      8        No. of bits per value  =     64


 #quartets = 2.055D+04 #integrals = 8.870D+04 #direct =  0.0% #cached =100.0%



       Final RHF  results 
       ------------------ 

         Total SCF energy =    -75.691689077809
      One-electron energy =   -116.422337120801
      Two-electron energy =     34.705646292529
 Nuclear repulsion energy =      6.025001750462

        Time for solution =      0.0s


             Final eigenvalues
             -----------------

              1      
    1  -20.6230
    2   -1.3167
    3   -0.6805
    4   -0.5550
    5   -0.3481
    6   -0.2282
    7   -0.0263
    8   -0.0133
    9    0.0706
   10    0.0971
   11    0.2385
   12    0.2743
   13    0.3042
   14    0.4543
   15    0.5578

                       ROHF Final Molecular Orbital Analysis
                       -------------------------------------

 Vector    2  Occ=2.000000D+00  E=-1.316667D+00
              MO Center= -2.6D-01, -1.8D-01, -3.0D-11, r^2= 4.3D-01
   Bfn.  Coefficient  Atom+Function         Bfn.  Coefficient  Atom+Function  
  ----- ------------  ---------------      ----- ------------  ---------------
     6      0.600856  1 O  s                 10      0.507606  1 O  s          
     2     -0.171352  1 O  s          

 Vector    3  Occ=2.000000D+00  E=-6.804937D-01
              MO Center= -7.2D-02, -2.5D-01,  2.9D-11, r^2= 6.6D-01
   Bfn.  Coefficient  Atom+Function         Bfn.  Coefficient  Atom+Function  
  ----- ------------  ---------------      ----- ------------  ---------------
     9      0.450963  1 O  pz                13      0.408025  1 O  pz         
     5      0.298204  1 O  pz         

 Vector    4  Occ=2.000000D+00  E=-5.550261D-01
              MO Center=  3.3D-01, -4.0D-01,  1.6D-12, r^2= 5.8D-01
   Bfn.  Coefficient  Atom+Function         Bfn.  Coefficient  Atom+Function  
  ----- ------------  ---------------      ----- ------------  ---------------
     7      0.335068  1 O  px                31      0.297722  3 H  s          
     3      0.222276  1 O  px                11      0.204233  1 O  px         
    30      0.196341  3 H  s          

 Vector    5  Occ=2.000000D+00  E=-3.481425D-01
              MO Center= -7.9D-02,  1.1D+00,  2.0D-13, r^2= 2.6D+00
   Bfn.  Coefficient  Atom+Function         Bfn.  Coefficient  Atom+Function  
  ----- ------------  ---------------      ----- ------------  ---------------
    24      0.344292  2 H  s                  8      0.312816  1 O  py         
    12      0.256646  1 O  py                25      0.255298  2 H  s          
     4      0.199009  1 O  py                23      0.161003  2 H  s          

 Vector    6  Occ=0.000000D+00  E=-2.282383D-01
              MO Center= -8.4D-02,  1.2D+00, -1.0D-13, r^2= 2.7D+00
   Bfn.  Coefficient  Atom+Function         Bfn.  Coefficient  Atom+Function  
  ----- ------------  ---------------      ----- ------------  ---------------
    24      0.370214  2 H  s                  8     -0.336071  1 O  py         
    25      0.276656  2 H  s                 12     -0.263443  1 O  py         
     4     -0.213219  1 O  py                23      0.175129  2 H  s          

 Vector    7  Occ=0.000000D+00  E=-2.632125D-02
              MO Center=  5.1D-01, -4.7D-01,  3.0D-12, r^2= 6.0D-01
   Bfn.  Coefficient  Atom+Function         Bfn.  Coefficient  Atom+Function  
  ----- ------------  ---------------      ----- ------------  ---------------
    31      0.679436  3 H  s                  7     -0.486481  1 O  px         
     6     -0.387052  1 O  s                  3     -0.383222  1 O  px         
    30      0.346004  3 H  s                 10     -0.190145  1 O  s          
     8      0.180885  1 O  py         

 Vector    8  Occ=0.000000D+00  E=-1.334094D-02
              MO Center= -2.3D-02, -2.7D-01,  3.8D-11, r^2= 1.4D+00
   Bfn.  Coefficient  Atom+Function         Bfn.  Coefficient  Atom+Function  
  ----- ------------  ---------------      ----- ------------  ---------------
    13      0.705230  1 O  pz                 5     -0.517184  1 O  pz         
     9     -0.439294  1 O  pz                17      0.234271  1 O  pz         

 Vector    9  Occ=0.000000D+00  E= 7.063222D-02
              MO Center=  1.3D+00, -9.2D-01, -2.7D-11, r^2= 9.5D+00
   Bfn.  Coefficient  Atom+Function         Bfn.  Coefficient  Atom+Function  
  ----- ------------  ---------------      ----- ------------  ---------------
    33      1.811536  3 H  s                 14     -0.676836  1 O  s          
    32     -0.564568  3 H  s                 25     -0.257151  2 H  s          
    10      0.206075  1 O  s          

 Vector   10  Occ=0.000000D+00  E= 9.709116D-02
              MO Center= -1.5D-01,  3.1D+00,  5.0D-12, r^2= 1.1D+01
   Bfn.  Coefficient  Atom+Function         Bfn.  Coefficient  Atom+Function  
  ----- ------------  ---------------      ----- ------------  ---------------
    26      2.011696  2 H  s                 25     -1.144462  2 H  s          
    33     -0.850005  3 H  s                 16     -0.182241  1 O  py         
    32      0.152401  3 H  s          

 Vector   11  Occ=0.000000D+00  E= 2.384858D-01
              MO Center= -8.5D-01, -2.9D-01, -2.1D-11, r^2= 4.8D+00
   Bfn.  Coefficient  Atom+Function         Bfn.  Coefficient  Atom+Function  
  ----- ------------  ---------------      ----- ------------  ---------------
    15      1.603426  1 O  px                32     -1.540379  3 H  s          
    10      0.483747  1 O  s                 11     -0.415498  1 O  px         
    33      0.382115  3 H  s                 14      0.256851  1 O  s          
    16      0.236284  1 O  py                12     -0.198605  1 O  py         
    25     -0.189058  2 H  s          

 Vector   12  Occ=0.000000D+00  E= 2.743273D-01
              MO Center= -4.7D-01, -1.5D-01, -1.1D-13, r^2= 6.0D+00
   Bfn.  Coefficient  Atom+Function         Bfn.  Coefficient  Atom+Function  
  ----- ------------  ---------------      ----- ------------  ---------------
    32      2.876942  3 H  s                 14     -2.241595  1 O  s          
    16      1.797243  1 O  py                15     -1.492977  1 O  px         
    12     -0.517588  1 O  py                25     -0.444265  2 H  s          
    33      0.301708  3 H  s                 31     -0.227417  3 H  s          
    26     -0.212504  2 H  s          

 Vector   13  Occ=0.000000D+00  E= 3.041997D-01
              MO Center=  5.5D-01,  7.9D-02, -3.6D-11, r^2= 5.1D+00
   Bfn.  Coefficient  Atom+Function         Bfn.  Coefficient  Atom+Function  
  ----- ------------  ---------------      ----- ------------  ---------------
    14      5.364562  1 O  s                 32     -4.221420  3 H  s          
    15      2.103037  1 O  px                10     -1.112458  1 O  s          
    33     -0.665935  3 H  s                 25     -0.388109  2 H  s          
    31      0.274430  3 H  s                 16     -0.266720  1 O  py         
    12     -0.166251  1 O  py         

 Vector   14  Occ=0.000000D+00  E= 4.542762D-01
              MO Center=  1.2D+00, -7.5D-01,  5.1D-12, r^2= 4.9D+00
   Bfn.  Coefficient  Atom+Function         Bfn.  Coefficient  Atom+Function  
  ----- ------------  ---------------      ----- ------------  ---------------
    32      4.626885  3 H  s                 14     -1.697852  1 O  s          
    31     -1.459103  3 H  s                 33     -1.292861  3 H  s          
    15     -0.841441  1 O  px                25      0.555567  2 H  s          
    24     -0.304494  2 H  s                 10     -0.218573  1 O  s          

 Vector   15  Occ=0.000000D+00  E= 5.577933D-01
              MO Center= -5.9D-02,  2.5D+00, -1.2D-11, r^2= 4.7D+00
   Bfn.  Coefficient  Atom+Function         Bfn.  Coefficient  Atom+Function  
  ----- ------------  ---------------      ----- ------------  ---------------
    25      2.758021  2 H  s                 24     -1.629261  2 H  s          
    26     -1.283217  2 H  s                 32     -0.637418  3 H  s          
    33      0.503253  3 H  s                 31      0.334339  3 H  s          
    14     -0.161904  1 O  s                 10      0.154292  1 O  s          


 center of mass
 --------------
 x =  -0.07599894 y =  -0.20282619 z =   0.00000000

 moments of inertia (a.u.)
 ------------------
          27.046680045357           1.576125513076           0.000000000000
           1.576125513076           2.833002082974           0.000000000000
           0.000000000000           0.000000000000          29.879682128331

  Mulliken analysis of the total density
  --------------------------------------

    Atom       Charge   Shell Charges
 -----------   ------   -------------------------------------------------------
    1 O    8     8.24   1.08  0.91  0.89  1.06  1.92  0.86  1.40 -0.03  0.13  0.01
    2 H    1     0.98   0.16  0.47  0.34  0.01  0.00
    3 H    1     0.78   0.26  0.42  0.02  0.01  0.07

       Multipole analysis of the density wrt the origin
       ------------------------------------------------

     L   x y z        total         open         nuclear
     -   - - -        -----         ----         -------
     0   0 0 0     -0.000000      0.000000     10.000000

     1   1 0 0      0.653087      0.000000     -0.000000
     1   0 1 0     -0.130250      0.000000      0.000000
     1   0 0 1     -0.000000      0.000000      0.000000

     2   2 0 0     -4.589055      0.000000      2.679864
     2   1 1 0     -0.654910      0.000000     -1.913881
     2   1 0 1      0.000000      0.000000      0.000000
     2   0 2 0     -3.782016      0.000000     25.902621
     2   0 1 1      0.000000      0.000000      0.000000
     2   0 0 2     -6.164968      0.000000      0.000000


 Parallel integral file used       3 records with       0 large values

 ------------------------------------
     Number of active orbitals      8
     Number of active alpha electrons      5
     Number of active beta electrons       5
 ------------------------------------
                   NWChem Extensible Many-Electron Theory Module
                   ---------------------------------------------

              ======================================================
                   This portion of the program was automatically
                  generated by a Tensor Contraction Engine (TCE).
                  The development of this portion of the program
                 and TCE was supported by US Department of Energy,
                Office of Science, Office of Basic Energy Science.
                      TCE is a product of Battelle and PNNL.
              Please cite: S.Hirata, J.Phys.Chem.A 107, 9887 (2003).
              ======================================================

                                        H2O


            General Information
            -------------------
      Number of processors :     1
         Wavefunction type : Restricted Hartree-Fock
          No. of electrons :    10
           Alpha electrons :     5
            Beta electrons :     5
           No. of orbitals :    72
            Alpha orbitals :    36
             Beta orbitals :    36
        Alpha frozen cores :     0
         Beta frozen cores :     0
     Alpha frozen virtuals :    28
      Beta frozen virtuals :    28
         Spin multiplicity : singlet 
    Number of AO functions :    36
       Number of AO shells :    20
        Use of symmetry is : off
      Symmetry adaption is : off
         Schwarz screening : 0.10D-09

          Correlation Information
          -----------------------
          Calculation type : Coupled-cluster singles & doubles                           
   Perturbative correction : none                                                        
            Max iterations :      300
        Residual threshold : 0.10D-06
     T(0) DIIS level shift : 0.00D+00
     L(0) DIIS level shift : 0.00D+00
     T(1) DIIS level shift : 0.00D+00
     L(1) DIIS level shift : 0.00D+00
     T(R) DIIS level shift : 0.00D+00
     T(I) DIIS level shift : 0.00D+00
   CC-T/L Amplitude update :  5-th order DIIS
                I/O scheme : Global Array Library
        L-threshold :  0.10D-06
        EOM-threshold :  0.10D-06
 no EOMCCSD initial starts read in
 TCE RESTART OPTIONS
 READ_INT:   F
 WRITE_INT:  F
 READ_TA:    F
 WRITE_TA:   F
 READ_XA:    F
 WRITE_XA:   F
 READ_IN3:   F
 WRITE_IN3:  F
 SLICE:      F
 D4D5:       F
 quantumc:   T
 qrotation:  F
 pwtce:      F
 qducc:      F
 nacto:                         0
 nrotv:                         0
 nrot:                          0

            Memory Information
            ------------------
          Available GA space size is    1610611440 doubles
          Available MA space size is    1610610740 doubles

 Maximum block size supplied by input
 Maximum block size         1 doubles

 tile_dim =      1

 Block   Spin    Irrep     Size     Offset   Alpha
 -------------------------------------------------
   1    alpha     a      1 doubles       0       1
   2    alpha     a      1 doubles       1       2
   3    alpha     a      1 doubles       2       3
   4    alpha     a      1 doubles       3       4
   5    alpha     a      1 doubles       4       5
   6    beta      a      1 doubles       5       1
   7    beta      a      1 doubles       6       2
   8    beta      a      1 doubles       7       3
   9    beta      a      1 doubles       8       4
  10    beta      a      1 doubles       9       5
  11    alpha     a      1 doubles      10      11
  12    alpha     a      1 doubles      11      12
  13    alpha     a      1 doubles      12      13
  14    beta      a      1 doubles      13      11
  15    beta      a      1 doubles      14      12
  16    beta      a      1 doubles      15      13

 Global array virtual files algorithm will be used

 Parallel file system coherency ......... OK

 Integral file          = ./H2O.aoints.0
 Record size in doubles =  65536        No. of integs per rec  =  43688
 Max. records in memory =     10        Max. records in file   = 232555
 No. of bits per label  =      8        No. of bits per value  =     64


 #quartets = 2.125D+04 #integrals = 9.542D+04 #direct =  0.0% #cached =100.0%


 Fock matrix recomputed
 1-e file size   =               64
 1-e file name   = ./H2O.f1
 Cpu & wall time / sec            0.0            0.0
 4-electron integrals stored in orbital form

 v2    file size   =              666
 4-index algorithm nr.  13 is used
 imaxsize =       30
 imaxsize ichop =        0
 begin_one_electron_integrals
    1    1       -32.6197568717
    2    1        -1.1237581959
    4    1         0.1346263606
    5    1        -0.0166538389
    6    1        -0.0186649139
    7    1        -0.2068465855
    1    2        -1.1237581959
    2    2        -7.6183995486
    4    2        -0.2684201397
    5    2         0.0512121320
    6    2         0.0862062638
    7    2         0.1167056026
    3    3        -6.7860001743
    8    3         2.1526498714
    1    4         0.1346263606
    2    4        -0.2684201397
    4    4        -6.5956334295
    5    4        -0.0274667992
    6    4        -0.0227520567
    7    4         1.9157595402
    1    5        -0.0166538389
    2    5         0.0512121320
    4    5        -0.0274667992
    5    5        -4.5913785362
    6    5         2.4204140134
    7    5         0.0103098149
    1    6        -0.0186649139
    2    6         0.0862062638
    4    6        -0.0227520567
    5    6         2.4204140134
    6    6        -4.6178679303
    7    6         0.0068917323
    1    7        -0.2068465855
    2    7         0.1167056026
    4    7         1.9157595402
    5    7         0.0103098149
    6    7         0.0068917323
    7    7        -5.8489714627
    3    8         2.1526498714
    8    8        -5.1432198151
 end_one_electron_integrals
 begin_two_electron_integrals
    1    1    1    1        4.8331035761
    2    1    1    1       -0.2090086808
    2    1    2    1        0.0277015213
    3    1    3    1        0.0277953487
    4    1    1    1       -0.0892568309
    4    1    2    1        0.0021550158
    4    1    4    1        0.0209489827
    4    1    2    2       -0.0134959416
    4    1    3    3       -0.0025673082
    5    1    1    1        0.0096897261
    5    1    2    1       -0.0008736486
    5    1    4    1        0.0000236926
    5    1    5    1        0.0144403114
    5    1    2    2        0.0005744615
    5    1    4    2        0.0002347065
    5    1    3    3        0.0007856878
    5    1    4    4        0.0007888175
    6    1    1    1        0.0115610868
    6    1    2    1       -0.0009491736
    6    1    4    1       -0.0000620682
    6    1    5    1       -0.0151542255
    6    1    6    1        0.0160560752
    6    1    2    2        0.0008206339
    6    1    4    2        0.0002241229
    6    1    5    2       -0.0136692407
    6    1    3    3        0.0008569469
    6    1    4    4        0.0008565903
    6    1    5    4       -0.0027067351
    6    1    5    5        0.0004351111
    7    1    1    1        0.1674642871
    7    1    2    1       -0.0066930306
    7    1    4    1       -0.0321972541
    7    1    5    1        0.0000950886
    7    1    6    1        0.0001999402
    7    1    7    1        0.0501204287
    7    1    2    2        0.0217485669
    7    1    4    2       -0.0255745539
    7    1    5    2       -0.0005945275
    7    1    6    2       -0.0006380820
    7    1    3    3        0.0039700706
    7    1    4    4       -0.0141244780
    7    1    5    4        0.0003002293
    7    1    6    4        0.0003593898
    7    1    5    5        0.0024435241
    7    1    6    5       -0.0018048562
    7    1    6    6        0.0025366392
    8    1    3    1       -0.0386002196
    8    1    8    1        0.0541371616
    8    1    3    2       -0.0380341077
    8    1    4    3       -0.0071611597
    8    1    5    3        0.0005350366
    8    1    6    3        0.0006940363
    8    1    7    3        0.0099817164
    2    2    1    1        1.0790530559
    2    2    2    1        0.0105921847
    2    2    2    2        0.8266557416
    3    2    3    1        0.0246270291
    3    2    3    2        0.1442360056
    4    2    1    1       -0.0052136901
    4    2    2    1       -0.0036371012
    4    2    4    1        0.0159447534
    4    2    2    2       -0.0563934517
    4    2    4    2        0.0912975771
    4    2    3    3        0.0098861060
    5    2    1    1       -0.0149104713
    5    2    2    1       -0.0002294884
    5    2    4    1        0.0003951512
    5    2    5    1        0.0127603051
    5    2    2    2       -0.0098121883
    5    2    4    2        0.0013222210
    5    2    5    2        0.0753902262
    5    2    3    3       -0.0077717173
    5    2    4    4       -0.0060268645
    6    2    1    1       -0.0154265628
    6    2    2    1       -0.0001766762
    6    2    4    1        0.0003921123
    6    2    5    1       -0.0132719166
    6    2    6    1        0.0141368151
    6    2    2    2       -0.0093891800
    6    2    4    2        0.0015238906
    6    2    5    2       -0.0753391751
    6    2    6    2        0.0762799593
    6    2    3    3       -0.0082206110
    6    2    4    4       -0.0059083791
    6    2    5    4       -0.0111432699
    6    2    5    5       -0.0093655884
    7    2    1    1       -0.0236534292
    7    2    2    1        0.0042467416
    7    2    4    1       -0.0159065526
    7    2    5    1       -0.0002342497
    7    2    6    1       -0.0002955317
    7    2    7    1        0.0237397735
    7    2    2    2        0.0296055942
    7    2    4    2       -0.0616305234
    7    2    5    2       -0.0006815933
    7    2    6    2       -0.0012257252
    7    2    7    2        0.0537768371
    7    2    3    3       -0.0182450257
    7    2    4    4       -0.0362324697
    7    2    5    4        0.0006929502
    7    2    6    4        0.0008981354
    7    2    5    5       -0.0094292962
    7    2    6    5        0.0115659014
    7    2    6    6       -0.0104347507
    8    2    3    1       -0.0205336329
    8    2    8    1        0.0271125635
    8    2    3    2       -0.0546996445
    8    2    8    2        0.0458184600
    8    2    4    3       -0.0047297655
    8    2    5    3        0.0010542446
    8    2    6    3        0.0014096490
    8    2    7    3        0.0118021150
    3    3    1    1        1.0437362036
    3    3    2    1        0.0084322501
    3    3    2    2        0.7384918164
    3    3    3    3        0.7537415903
    4    3    3    1        0.0049774475
    4    3    3    2        0.0221034768
    4    3    4    3        0.0357151034
    5    3    3    1       -0.0003839837
    5    3    3    2       -0.0017844075
    5    3    4    3       -0.0000147904
    5    3    5    3        0.0189958993
    6    3    3    1       -0.0004879230
    6    3    3    2       -0.0022650262
    6    3    4    3       -0.0001298536
    6    3    5    3       -0.0190697666
    6    3    6    3        0.0194217162
    7    3    3    1       -0.0075338130
    7    3    3    2       -0.0222639711
    7    3    4    3       -0.0210560323
    7    3    5    3        0.0002423786
    7    3    6    3        0.0003057970
    7    3    7    3        0.0252589746
    8    3    1    1       -0.5394062475
    8    3    2    1       -0.0058309492
    8    3    4    1        0.0039971252
    8    3    5    1       -0.0005927136
    8    3    6    1       -0.0006023553
    8    3    7    1       -0.0069648201
    8    3    2    2       -0.2221948265
    8    3    4    2        0.0058170531
    8    3    5    2        0.0038038587
    8    3    6    2        0.0043994388
    8    3    7    2        0.0074512739
    8    3    3    3       -0.2175391659
    8    3    8    3        0.1659700494
    8    3    4    4       -0.1495936853
    8    3    5    4       -0.0012518991
    8    3    6    4       -0.0009780754
    8    3    7    4        0.1236265332
    8    3    5    5       -0.1028554790
    8    3    6    5        0.1013756563
    8    3    7    5        0.0008338135
    8    3    6    6       -0.1091686659
    8    3    7    6        0.0007454285
    8    3    7    7       -0.1719423029
    4    4    1    1        0.9081412531
    4    4    2    1        0.0050814010
    4    4    4    1        0.0078080608
    4    4    2    2        0.6362463915
    4    4    4    2        0.0809277353
    4    4    3    3        0.6334230086
    4    4    4    4        0.7735773880
    5    4    1    1        0.0053381316
    5    4    2    1        0.0001203231
    5    4    4    1       -0.0002069164
    5    4    5    1        0.0025646010
    5    4    2    2        0.0037001567
    5    4    4    2       -0.0006734341
    5    4    5    2        0.0106675039
    5    4    3    3        0.0029207664
    5    4    4    4        0.0031010062
    5    4    5    4        0.0179700032
    6    4    1    1        0.0047124814
    6    4    2    1        0.0001389240
    6    4    4    1       -0.0002619212
    6    4    5    1       -0.0026785338
    6    4    6    1        0.0028472222
    6    4    2    2        0.0037655310
    6    4    4    2       -0.0006437125
    6    4    5    2       -0.0117921054
    6    4    6    2        0.0118517328
    6    4    3    3        0.0027343082
    6    4    4    4        0.0033456535
    6    4    5    4       -0.0181615822
    6    4    6    4        0.0186695572
    6    4    5    5       -0.0011551379
    7    4    1    1       -0.4719486688
    7    4    2    1       -0.0031312793
    7    4    4    1       -0.0038632877
    7    4    5    1       -0.0005835175
    7    4    6    1       -0.0005985450
    7    4    7    1        0.0022245445
    7    4    2    2       -0.2130297526
    7    4    4    2        0.0141547517
    7    4    5    2        0.0032530535
    7    4    6    2        0.0039109601
    7    4    7    2        0.0162874392
    7    4    3    3       -0.1837574115
    7    4    4    4       -0.0960066497
    7    4    5    4       -0.0006684144
    7    4    6    4        0.0000266432
    7    4    7    4        0.2132261118
    7    4    5    5       -0.1020847815
    7    4    6    5        0.0926735263
    7    4    6    6       -0.1073164387
    8    4    3    1       -0.0024809886
    8    4    8    1        0.0025509926
    8    4    3    2        0.0024404707
    8    4    8    2        0.0025101644
    8    4    4    3       -0.0031257562
    8    4    5    3       -0.0000376164
    8    4    6    3        0.0000378099
    8    4    7    3        0.0154983847
    8    4    8    4        0.0170589105
    5    5    1    1        0.6337365418
    5    5    2    1        0.0043426808
    5    5    4    1       -0.0014699022
    5    5    5    1        0.0001234323
    5    5    2    2        0.4771453125
    5    5    4    2        0.0014077811
    5    5    5    2        0.0050073637
    5    5    3    3        0.4428248245
    5    5    4    4        0.4127581279
    5    5    5    4        0.0012578022
    5    5    5    5        0.4453238081
    6    5    1    1       -0.4530056655
    6    5    2    1       -0.0045869454
    6    5    4    1        0.0012959448
    6    5    5    1       -0.0004055178
    6    5    6    1       -0.0007291070
    6    5    2    2       -0.2850517061
    6    5    4    2       -0.0079809559
    6    5    5    2        0.0131356687
    6    5    6    2       -0.0019916669
    6    5    3    3       -0.2583308212
    6    5    4    4       -0.2373566467
    6    5    5    4       -0.0019611089
    6    5    6    4       -0.0037473274
    6    5    5    5       -0.0482998536
    6    5    6    5        0.2609978623
    7    5    1    1       -0.0027074481
    7    5    2    1       -0.0001006737
    7    5    4    1        0.0002260201
    7    5    5    1       -0.0042559910
    7    5    6    1        0.0045039577
    7    5    7    1       -0.0003759691
    7    5    2    2       -0.0018565356
    7    5    4    2        0.0013868699
    7    5    5    2       -0.0139905511
    7    5    6    2        0.0144127230
    7    5    7    2       -0.0008981262
    7    5    3    3       -0.0007712721
    7    5    4    4        0.0004804672
    7    5    5    4       -0.0116180714
    7    5    6    4        0.0121465306
    7    5    7    4        0.0016448750
    7    5    5    5       -0.0012642442
    7    5    6    5       -0.0004939822
    7    5    7    5        0.0140018777
    7    5    6    6       -0.0016473973
    8    5    3    1        0.0003401937
    8    5    8    1       -0.0005400721
    8    5    3    2        0.0020422463
    8    5    8    2       -0.0005530770
    8    5    4    3        0.0001898976
    8    5    5    3       -0.0063038882
    8    5    6    3        0.0069086338
    8    5    7    3       -0.0000978803
    8    5    8    4        0.0002077787
    8    5    8    5        0.0088288996
    6    6    1    1        0.6539937858
    6    6    2    1        0.0046745742
    6    6    4    1       -0.0015418454
    6    6    5    1        0.0009140750
    6    6    6    1       -0.0003330727
    6    6    2    2        0.4817630687
    6    6    4    2        0.0024065725
    6    6    5    2        0.0067907367
    6    6    6    2       -0.0116701365
    6    6    3    3        0.4471526098
    6    6    4    4        0.4163869119
    6    6    5    4        0.0010685672
    6    6    6    4       -0.0009642751
    6    6    5    5        0.4546905653
    6    6    6    5       -0.0434194778
    6    6    6    6        0.4664063384
    7    6    1    1       -0.0024244855
    7    6    2    1       -0.0001498365
    7    6    4    1        0.0003373848
    7    6    5    1        0.0044715942
    7    6    6    1       -0.0047191783
    7    6    7    1       -0.0005489856
    7    6    2    2       -0.0024063555
    7    6    4    2        0.0019814261
    7    6    5    2        0.0146757324
    7    6    6    2       -0.0149920657
    7    6    7    2       -0.0012058413
    7    6    3    3       -0.0006550466
    7    6    4    4        0.0013923030
    7    6    5    4        0.0123301411
    7    6    6    4       -0.0128701259
    7    6    7    4        0.0018949955
    7    6    5    5       -0.0005088332
    7    6    6    5        0.0003423273
    7    6    7    5       -0.0144573897
    7    6    6    6       -0.0001436409
    7    6    7    6        0.0151593889
    8    6    3    1        0.0004772092
    8    6    8    1       -0.0007470178
    8    6    3    2        0.0026186931
    8    6    8    2       -0.0008714416
    8    6    4    3        0.0003410962
    8    6    5    3        0.0073294340
    8    6    6    3       -0.0078557701
    8    6    7    3       -0.0002197559
    8    6    8    4        0.0001913148
    8    6    8    5       -0.0085009099
    8    6    8    6        0.0087968815
    7    7    1    1        1.0408925522
    7    7    2    1        0.0037930439
    7    7    4    1        0.0075289899
    7    7    5    1        0.0010455544
    7    7    6    1        0.0010994779
    7    7    7    1       -0.0125813255
    7    7    2    2        0.6285034663
    7    7    4    2        0.0714283449
    7    7    5    2       -0.0061872555
    7    7    6    2       -0.0063131849
    7    7    7    2       -0.0348035055
    7    7    3    3        0.6292480847
    7    7    4    4        0.7555766058
    7    7    5    4        0.0033625160
    7    7    6    4        0.0036119208
    7    7    7    4       -0.0891471985
    7    7    5    5        0.4086052228
    7    7    6    5       -0.2391152347
    7    7    7    5        0.0005888804
    7    7    6    6        0.4135405545
    7    7    7    6        0.0016346704
    7    7    7    7        0.7937568353
    8    7    3    1        0.0067282598
    8    7    8    1       -0.0094160345
    8    7    3    2        0.0233199557
    8    7    8    2       -0.0069607047
    8    7    4    3        0.0265017557
    8    7    5    3       -0.0000566651
    8    7    6    3       -0.0001892747
    8    7    7    3       -0.0169651330
    8    7    8    4       -0.0034165862
    8    7    8    5        0.0003115800
    8    7    8    6        0.0004542420
    8    7    8    7        0.0280278978
    8    8    1    1        1.0229728615
    8    8    2    1        0.0051833166
    8    8    4    1       -0.0052707356
    8    8    5    1        0.0008770812
    8    8    6    1        0.0008957836
    8    8    7    1        0.0083089082
    8    8    2    2        0.6292670207
    8    8    4    2        0.0056516567
    8    8    5    2       -0.0061099685
    8    8    6    2       -0.0066602318
    8    8    7    2       -0.0104071636
    8    8    3    3        0.6423617335
    8    8    8    3       -0.1843306481
    8    8    4    4        0.5582406588
    8    8    5    4        0.0025447440
    8    8    6    4        0.0024010672
    8    8    7    4       -0.1457226807
    8    8    5    5        0.3945492756
    8    8    6    5       -0.2141618430
    8    8    7    5       -0.0006680338
    8    8    6    6        0.3977921984
    8    8    7    6       -0.0004613906
    8    8    7    7        0.5716289357
    8    8    8    8        0.5891726282
 end_two_electron_integrals
 enrep_tce =    6.0250017504620246     
  EHF(A)             =       -75.69168908
  EHF(total)         =       -75.69168908
  Shift (HFtot-HFA)  =         0.00000000
 Cpu & wall time / sec            0.3            0.3
 T1-number-of-tasks                   15

 t1 file size   =               15
 t1 file name   = ./H2O.t1
 t1 file handle =       -998
 T2-number-of-boxes                  315

 t2 file size   =              315
 t2 file name   = ./H2O.t2
 t2 file handle =       -996
CCSD iterations
 ---------------------------------------------------------
 Iter          Residuum       Correlation     Cpu    Wall 
 ---------------------------------------------------------
NEW TASK SCHEDULING
CCSD_T1_NTS --- OK
CCSD_T2_NTS --- OK
    1   0.9366212390967  -0.4993665554650     2.8     3.9
    2   1.3053612153149   0.7116677607797     2.8     3.8
    3   2.1893451540045   0.0976822987226     2.8     3.8
    4  60.7871247095064   6.7229627953699     2.7     3.8
    5******************4435.6247958807371     2.8     3.9
 MICROCYCLE DIIS UPDATE:                    5                    5
    6   0.3369239557948  -0.0458962802788     2.8     3.8
    7   0.7412097911579  -0.3049219684499     2.7     3.8
    8   1.7645978912148   1.6046232692586     2.9     3.8
    9******************  66.6526570115923     2.8     3.8
   10************************************     2.7     3.9
 MICROCYCLE DIIS UPDATE:                   10                    5
   11   0.2179482617210  -0.1389996484711     2.7     3.8
   12   0.5775114707683  -0.3620823484472     2.9     3.8
   13   1.1834652768136   1.2673217732921     2.8     3.9
   145987.4494438856873  33.8030934999463     2.8     3.8
   15************************************     2.7     3.8
 MICROCYCLE DIIS UPDATE:                   15                    5
   16   0.1738510586194  -0.1678823424001     2.8     3.8
   17   0.4746380574885  -0.3536703486409     2.9     3.8
   18   0.8278238549069   1.0230537448778     2.7     3.8
   191059.3324092913019  13.6301369148508     2.8     3.8
   20************************************     2.9     3.8
 MICROCYCLE DIIS UPDATE:                   20                    5
   21   0.1398185418632  -0.1912705777997     2.7     3.9
   22   0.3744467622860  -0.3470994191352     2.8     3.9
   23   0.5635808395936   0.6881405975044     2.7     3.8
   24  34.5152716812765   2.2680709634455     2.8     3.8
   25******************1427.3285934985506     2.8     3.8
 MICROCYCLE DIIS UPDATE:                   25                    5
   26   0.1117238955667  -0.2096717400034     2.8     3.8
   27   0.2888195628636  -0.3381913127988     2.8     3.8
   28   0.4326914575937   0.4070047656692     2.7     3.8
   29   0.4792738391817   0.0061110149085     2.7     3.8
   30   0.5442940031367   0.1737650268472     2.7     3.8
 MICROCYCLE DIIS UPDATE:                   30                    5
   31   0.1087419186307  -0.2081997687082     2.9     3.8
   32   0.3486572757846  -0.3248771447494     2.8     3.8
   33   0.6820103670063   0.8284919628932     2.8     3.8
   34 202.1290559226313   5.6050690862684     2.8     3.9
   35************************************     2.8     3.8
 MICROCYCLE DIIS UPDATE:                   35                    5
   36   0.0935816710383  -0.2194953537414     2.9     3.8
   37   0.2858720489001  -0.3255900524603     2.7     3.8
   38   0.4931061858487   0.5456810764971     2.9     3.8
   39   2.6889160714422   0.6017722921243     2.6     3.8
   403938.3716392264705  32.8319845438366     2.9     3.8
 MICROCYCLE DIIS UPDATE:                   40                    5
   41   0.0818717813095  -0.2264963152525     2.9     3.8
   42   0.2642763174608  -0.3190395303811     2.9     3.8
   43   0.4779265348433   0.5090439007904     2.8     3.8
   44   1.1241129573688   0.3937422763798     2.7     3.8
   45 298.6096984629282   9.9798423982539     2.8     3.8
 MICROCYCLE DIIS UPDATE:                   45                    5
   46   0.0716072543644  -0.2330230291411     2.9     3.8
   47   0.2390885850169  -0.3148665899901     2.8     3.8
   48   0.4408599105665   0.4320548992427     2.8     3.8
   49   0.5291960236378   0.0651665691084     2.8     3.8
   50   0.7363768012180   0.4240627263217     2.6     3.8
 MICROCYCLE DIIS UPDATE:                   50                    5
   51   0.0741749436199  -0.2325603086842     2.8     3.8
   52   0.2526143582084  -0.3161429183406     2.9     3.8
   53   0.4622693231990   0.4798205485783     2.7     3.8
   54   0.5550729768239   0.2312135968416     2.6     3.8
   55   9.2681563726577   2.6421219682553     2.9     3.8
 MICROCYCLE DIIS UPDATE:                   55                    5
   56   0.0652716590522  -0.2379113942315     2.8     3.8
   57   0.2267346597631  -0.3129757447927     2.6     3.8
   58   0.4196698149100   0.3886036839548     2.8     3.8
   59   0.5037594557504  -0.0287703226661     2.8     3.8
   60   0.5147524874578   0.1138743333390     2.9     3.8
 MICROCYCLE DIIS UPDATE:                   60                    5
   61   0.0652708903545  -0.2386482465390     2.7     3.8
   62   0.2222366829248  -0.3145556581549     2.9     3.8
   63   0.4021446221393   0.3520817937035     2.9     3.8
   64   0.5032650949596  -0.0613967222081     2.9     3.8
   65   0.4757724148448  -0.0082302268872     2.8     3.8
 MICROCYCLE DIIS UPDATE:                   65                    5
   66   0.0644277757048  -0.2392714237608     2.7     3.8
   67   0.2215247359738  -0.3142145420380     2.6     3.8
   68   0.4017516760634   0.3506114120922     2.8     3.8
   69   0.5036987933908  -0.0619397513353     2.7     3.8
   70   0.4757872904830  -0.0104264584509     2.8     3.8
 MICROCYCLE DIIS UPDATE:                   70                    5
   71   0.0620194842660  -0.2408111418973     3.0     3.8
   72   0.2118921687335  -0.3137275447947     2.8     3.8
   73   0.3839679391960   0.3107577882530     2.8     3.8
   74   0.5316694635013  -0.0589523834956     2.9     3.8
   75   0.5447757895451   0.1750826359841     2.7     3.8
 MICROCYCLE DIIS UPDATE:                   75                    5
   76   0.0574831967697  -0.2436156166170     2.7     3.8
   77   0.1933849372217  -0.3126168808022     2.9     3.8
   78   0.3513728209369   0.2349203892748     2.6     3.8
   79   0.5135431366405   0.0154581894137     2.8     3.8
   80   1.3269174185119   1.0775469020904     2.8     3.8
 MICROCYCLE DIIS UPDATE:                   80                    5
   81   0.0517219646093  -0.2473621529558     2.9     3.8
   82   0.1642416923400  -0.3115115471122     3.0     3.8
   83   0.3008024874269   0.1066168930174     2.8     3.8
   84   0.4417705871960   0.1924917394692     2.8     3.8
   85   0.6631003612513   0.7192615708120     2.7     3.8
 MICROCYCLE DIIS UPDATE:                   85                    5
   86   0.0439831694842  -0.2526667721526     2.7     3.8
   87   0.1153018144169  -0.3070179748943     2.8     3.8
   88   0.2383457479654  -0.0910746835565     2.9     3.8
   89   0.5439559530039   0.0326977171076     2.7     3.9
   90   0.6152761019990   0.8530317021727     2.7     3.8
 MICROCYCLE DIIS UPDATE:                   90                    5
   91   0.0263438420720  -0.2616305189262     2.7     3.8
   92   0.0526162173226  -0.2899688628180     2.7     3.8
   93   0.1255414034202  -0.2247916109796     2.7     3.8
   94   0.3766296260385  -0.3482394347075     2.8     3.8
   95   0.5342500908154   0.6399650785474     2.9     3.8
 MICROCYCLE DIIS UPDATE:                   95                    5
   96   0.0130102558040  -0.2676959771288     2.8     3.8
   97   0.0263022632043  -0.2811119099986     2.7     3.8
   98   0.0654526876547  -0.2489528612765     2.8     3.8
   99   0.1898475151972  -0.3217792975964     2.7     3.8
  100   0.3400333022448   0.0757091510559     2.7     3.8
 MICROCYCLE DIIS UPDATE:                  100                    5
  101   0.0073686190731  -0.2754504510099     2.9     3.8
  102   0.0164197619398  -0.2661012420235     2.8     3.9
  103   0.0494494811761  -0.2874199016391     2.8     3.8
  104   0.1284247221453  -0.1955681617525     2.8     3.8
  105   0.4769905661891  -0.1638438393825     2.8     3.8
 MICROCYCLE DIIS UPDATE:                  105                    5
  106   0.0015336452291  -0.2719200381797     2.7     3.8
  107   0.0030968975179  -0.2733760449201     2.8     3.8
  108   0.0090728148953  -0.2690926469108     2.8     3.8
  109   0.0305233045281  -0.2813890191861     2.9     3.8
  110   0.0895774165351  -0.2215438733929     2.7     3.8
 MICROCYCLE DIIS UPDATE:                  110                    5
  111   0.0004130746400  -0.2722932734075     2.7     3.8
  112   0.0007065453598  -0.2725419556356     2.7     3.8
  113   0.0017195657601  -0.2718042449309     2.7     3.8
  114   0.0044912143215  -0.2738450047278     2.6     3.8
  115   0.0122297617367  -0.2680202712610     2.7     3.8
 MICROCYCLE DIIS UPDATE:                  115                    5
  116   0.0000566753524  -0.2723412020710     2.8     3.8
  117   0.0000658956463  -0.2723675661942     2.8     3.8
  118   0.0001650255342  -0.2722968209119     2.8     3.8
  119   0.0004989361618  -0.2725174076316     2.8     3.9
  120   0.0016085321547  -0.2717943299608     2.9     3.8
 MICROCYCLE DIIS UPDATE:                  120                    5
  121   0.0000059859556  -0.2723499534511     2.8     3.8
  122   0.0000054747906  -0.2723492229963     2.7     3.8
  123   0.0000097673927  -0.2723491535319     2.8     3.8
  124   0.0000272056312  -0.2723544638707     3.0     3.8
  125   0.0000935753340  -0.2723250772132     2.7     3.8
 MICROCYCLE DIIS UPDATE:                  125                    5
  126   0.0000009975779  -0.2723495406315     2.8     3.8
  127   0.0000013613373  -0.2723498613885     2.7     3.8
  128   0.0000033560274  -0.2723487821524     2.7     3.8
  129   0.0000093420557  -0.2723521128145     2.9     3.8
  130   0.0000275203809  -0.2723418001073     2.8     3.9
 MICROCYCLE DIIS UPDATE:                  130                    5
  131   0.0000001349545  -0.2723496026821     2.8     3.8
  132   0.0000001227206  -0.2723496067339     3.0     3.8
  133   0.0000002547928  -0.2723495673817     2.9     3.8
  134   0.0000007388210  -0.2723497629379     2.9     3.9
  135   0.0000023924981  -0.2723489537773     2.9     3.9
 MICROCYCLE DIIS UPDATE:                  135                    5
  136   0.0000000299622  -0.2723496017433     2.9     3.8
 -----------------------------------------------------------------
 Iterations converged
 CCSD correlation energy / hartree =        -0.272349601743298
 CCSD total energy / hartree       =       -75.964038679552587

 Singles contributions

 Doubles contributions
     6a   (alpha)     6a   (beta ) ---     5a   (alpha)     5a   (beta )       -0.8185982902
     6a   (alpha)     7a   (beta ) ---     4a   (alpha)     5a   (beta )       -0.0246227269
     7a   (alpha)     8a   (alpha) ---     3a   (alpha)     4a   (alpha)        0.0334420189
     7a   (alpha)     6a   (beta ) ---     5a   (alpha)     4a   (beta )       -0.0246227269
     7a   (alpha)     7a   (beta ) ---     4a   (alpha)     4a   (beta )       -0.0944616662
     7a   (alpha)     8a   (beta ) ---     4a   (alpha)     3a   (beta )       -0.0432968581
     8a   (alpha)     7a   (beta ) ---     3a   (alpha)     4a   (beta )       -0.0432968581
     8a   (alpha)     8a   (beta ) ---     3a   (alpha)     3a   (beta )       -0.0624297488
 Ground state specification:
 exp(T)|Ref>~(1+T)|Ref>
 ------- a(p)+/a(q) strings ----------

 singles norm

 doubles norm

 Reference string
  0.77379933298988557      :(1a)+ (2a)+ (3a)+ (4a)+ (5a)+ (1b)+ (2b)+ (3b)+ (4b)+ (5b)+ |0>

 Singles strings

 Doubles strings
 -0.63343081095286813      :(6a)+ (6b)+ (5b)  (5a)  (1a)+ (2a)+ (3a)+ (4a)+ (5a)+ (1b)+ (2b)+ (3b)+ (4b)+ (5b)+ |0>
 -------------------------------------

 Parallel integral file used       3 records with       0 large values


 Task  times  cpu:      381.7s     wall:      526.9s


                                NWChem Input Module
                                -------------------


 Summary of allocated global arrays
-----------------------------------
  No active global arrays


MA_summarize_allocated_blocks: starting scan ...
MA_summarize_allocated_blocks: scan completed: 0 heap blocks, 0 stack blocks
MA usage statistics:

	allocation statistics:
					      heap	     stack
					      ----	     -----
	current number of blocks	         0	         0
	maximum number of blocks	        18	        42
	current total bytes		         0	         0
	maximum total bytes		   5323032	  24073272
	maximum total K-bytes		      5324	     24074
	maximum total M-bytes		         6	        25


                                     CITATION
                                     --------
                Please cite the following reference when publishing
                           results obtained with NWChem:

          E. Apra, E. J. Bylaska, W. A. de Jong, N. Govind, K. Kowalski,
       T. P. Straatsma, M. Valiev, H. J. J. van Dam, Y. Alexeev, J. Anchell,
       V. Anisimov, F. W. Aquino, R. Atta-Fynn, J. Autschbach, N. P. Bauman,
     J. C. Becca, D. E. Bernholdt, K. Bhaskaran-Nair, S. Bogatko, P. Borowski,
         J. Boschen, J. Brabec, A. Bruner, E. Cauet, Y. Chen, G. N. Chuev,
      C. J. Cramer, J. Daily, M. J. O. Deegan, T. H. Dunning Jr., M. Dupuis,
   K. G. Dyall, G. I. Fann, S. A. Fischer, A. Fonari, H. Fruchtl, L. Gagliardi,
      J. Garza, N. Gawande, S. Ghosh, K. Glaesemann, A. W. Gotz, J. Hammond,
       V. Helms, E. D. Hermes, K. Hirao, S. Hirata, M. Jacquelin, L. Jensen,
   B. G. Johnson, H. Jonsson, R. A. Kendall, M. Klemm, R. Kobayashi, V. Konkov,
      S. Krishnamoorthy, M. Krishnan, Z. Lin, R. D. Lins, R. J. Littlefield,
      A. J. Logsdail, K. Lopata, W. Ma, A. V. Marenich, J. Martin del Campo,
   D. Mejia-Rodriguez, J. E. Moore, J. M. Mullin, T. Nakajima, D. R. Nascimento,
    J. A. Nichols, P. J. Nichols, J. Nieplocha, A. Otero-de-la-Roza, B. Palmer,
    A. Panyala, T. Pirojsirikul, B. Peng, R. Peverati, J. Pittner, L. Pollack,
   R. M. Richard, P. Sadayappan, G. C. Schatz, W. A. Shelton, D. W. Silverstein,
   D. M. A. Smith, T. A. Soares, D. Song, M. Swart, H. L. Taylor, G. S. Thomas,
            V. Tipparaju, D. G. Truhlar, K. Tsemekhman, T. Van Voorhis,
      A. Vazquez-Mayagoitia, P. Verma, O. Villa, A. Vishnu, K. D. Vogiatzis,
        D. Wang, J. H. Weare, M. J. Williamson, T. L. Windus, K. Wolinski,
        A. T. Wong, Q. Wu, C. Yang, Q. Yu, M. Zacharias, Z. Zhang, Y. Zhao,
                                and R. J. Harrison
                        "NWChem: Past, present, and future
                         J. Chem. Phys. 152, 184102 (2020)
                               doi:10.1063/5.0004997

                                      AUTHORS
                                      -------
  E. Apra, E. J. Bylaska, N. Govind, K. Kowalski, M. Valiev, D. Mejia-Rodriguez,
       A. Kunitsa, N. P. Bauman, A. Panyala, W. A. de Jong, T. P. Straatsma,
        H. J. J. van Dam, D. Wang, T. L. Windus, J. Hammond, J. Autschbach,
    K. Bhaskaran-Nair, J. Brabec, K. Lopata, S. A. Fischer, S. Krishnamoorthy,
     M. Jacquelin, W. Ma, M. Klemm, O. Villa, Y. Chen, V. Anisimov, F. Aquino,
    S. Hirata, M. T. Hackler, Eric Hermes, L. Jensen, J. E. Moore, J. C. Becca,
      V. Konjkov, T. Risthaus, M. Malagoli, A. Marenich, A. Otero-de-la-Roza,
        J. Mullin, P. Nichols, R. Peverati, J. Pittner, Y. Zhao, P.-D. Fan,
        A. Fonari, M. J. Williamson, R. J. Harrison, J. R. Rehr, M. Dupuis,
     D. Silverstein, D. M. A. Smith, J. Nieplocha, V. Tipparaju, M. Krishnan,
     B. E. Van Kuiken, A. Vazquez-Mayagoitia, M. Swart, Q. Wu, T. Van Voorhis,
     A. A. Auer, M. Nooijen, L. D. Crosby, E. Brown, G. Cisneros, G. I. Fann,
   H. Fruchtl, J. Garza, K. Hirao, R. A. Kendall, J. A. Nichols, K. Tsemekhman,
    K. Wolinski, J. Anchell, D. E. Bernholdt, P. Borowski, T. Clark, D. Clerc,
   H. Dachsel, M. J. O. Deegan, K. Dyall, D. Elwood, E. Glendening, M. Gutowski,
   A. C. Hess, J. Jaffe, B. G. Johnson, J. Ju, R. Kobayashi, R. Kutteh, Z. Lin,
   R. Littlefield, X. Long, B. Meng, T. Nakajima, S. Niu, L. Pollack, M. Rosing,
   K. Glaesemann, G. Sandrone, M. Stave, H. Taylor, G. Thomas, J. H. van Lenthe,
                               A. T. Wong, Z. Zhang.

 Total times  cpu:      386.3s     wall:      535.2s
