 argument  1 = input.nw
  NWChem w/ OpenMP: maximum threads =    1



============================== echo of input deck ==============================
 echo
 start H2O
 title "H2O"

 memory total 24 gb

 geometry units bohr
 symmetry c1
        O  0.00000000  0.00000000  0.00000000
        H  0.00000000  1.806581  0.00000000
        H  1.72558000 -0.64860000  0.00000000
 end

 basis spherical
   * library cc-pVTZ
 end

 scf
   vectors input h2o.mos
   vectors output h2o.mos
 end

 tce
   2eorb
   2emet 13
   ccsd
 end

# set tce:print_integrals T
# set tce:qorb
# set tce:qela
# set tce:qelb

# set tce:qducc T
# set tce:nactv
# set tce:nonhf F
# set tce:ducc_model 3

 set tce:printtol 0.02

 task tce

 tce
   2eorb
   2emet 13
   ccsd
   freeze virtual 50
 end

 set tce:printtol 0.02

 task tce

================================================================================


                                         
                                         


             Northwest Computational Chemistry Package (NWChem) 7.0.1
             --------------------------------------------------------


                    Environmental Molecular Sciences Laboratory
                       Pacific Northwest National Laboratory
                                Richland, WA 99352

                              Copyright (c) 1994-2020
                       Pacific Northwest National Laboratory
                            Battelle Memorial Institute

             NWChem is an open-source computational chemistry package
                        distributed under the terms of the
                      Educational Community License (ECL) 2.0
             A copy of the license is included with this distribution
                              in the LICENSE.TXT file

                                  ACKNOWLEDGMENT
                                  --------------

            This software and its documentation were developed at the
            EMSL at Pacific Northwest National Laboratory, a multiprogram
            national laboratory, operated for the U.S. Department of Energy
            by Battelle under Contract Number DE-AC05-76RL01830. Support
            for this work was provided by the Department of Energy Office
            of Biological and Environmental Research, Office of Basic
            Energy Sciences, and the Office of Advanced Scientific Computing.


           Job information
           ---------------

    hostname        = WE46210
    program         = /home/baum612/code/nwchem/bin/LINUX64/nwchem
    date            = Fri Nov  3 18:36:36 2023

    compiled        = Mon_Sep_25_14:29:55_2023
    source          = /home/baum612/code/nwchem
    nwchem branch   = 7.0.0
    nwchem revision = nwchem_on_git-4191-g39d87d64de
    ga revision     = 5.8.1
    use scalapack   = F
    input           = input.nw
    prefix          = H2O.
    data base       = ./H2O.db
    status          = startup
    nproc           =        1
    time left       =     -1s



           Memory information
           ------------------

    heap     =  805306366 doubles =   6144.0 Mbytes
    stack    =  805306363 doubles =   6144.0 Mbytes
    global   = 1610612736 doubles =  12288.0 Mbytes (distinct from heap & stack)
    total    = 3221225465 doubles =  24576.0 Mbytes
    verify   = yes
    hardfail = no 


           Directory information
           ---------------------

  0 permanent = .
  0 scratch   = .




                                NWChem Input Module
                                -------------------


                                        H2O
                                        ---
 Turning off AUTOSYM since
 SYMMETRY directive was detected!


          ------
          auto-z
          ------
  no constraints, skipping    0.0000000000000000     
  no constraints, skipping    0.0000000000000000     


                             Geometry "geometry" -> ""
                             -------------------------

 Output coordinates in a.u. (scale by  1.000000000 to convert to a.u.)

  No.       Tag          Charge          X              Y              Z
 ---- ---------------- ---------- -------------- -------------- --------------
    1 O                    8.0000    -0.17255800    -0.11579810     0.00000000
    2 H                    1.0000    -0.17255800     1.69078290     0.00000000
    3 H                    1.0000     1.55302200    -0.76439810     0.00000000

      Atomic Mass 
      ----------- 

      O                 15.994910
      H                  1.007825


 Effective nuclear repulsion energy (a.u.)       9.1011739597

            Nuclear Dipole moment (a.u.) 
            ----------------------------
        X                 Y               Z
 ---------------- ---------------- ----------------
    -0.0000000000     0.0000000000     0.0000000000



                                Z-matrix (autoz)
                                -------- 

 Units are Angstrom for bonds and degrees for angles

      Type          Name      I     J     K     L     M      Value
      ----------- --------  ----- ----- ----- ----- ----- ----------
    1 Stretch                  1     2                       0.95600
    2 Stretch                  1     3                       0.97551
    3 Bend                     2     1     3               110.59992


            XYZ format geometry
            -------------------
     3
 geometry
 O                    -0.09131377    -0.06127772     0.00000000
 H                    -0.09131377     0.89472384     0.00000000
 H                     0.82182391    -0.40450208     0.00000000

 ==============================================================================
                                internuclear distances
 ------------------------------------------------------------------------------
       center one      |      center two      | atomic units |       a.u.
 ------------------------------------------------------------------------------
    2 H                |   1 O                |     1.80658  |     1.80658
    3 H                |   1 O                |     1.84345  |     1.84345
 ------------------------------------------------------------------------------
                         number of included internuclear distances:          2
 ==============================================================================



 ==============================================================================
                                 internuclear angles
 ------------------------------------------------------------------------------
        center 1       |       center 2       |       center 3       |  degrees
 ------------------------------------------------------------------------------
    2 H                |   1 O                |   3 H                |   110.60
 ------------------------------------------------------------------------------
                            number of included internuclear angles:          1
 ==============================================================================





 Summary of "ao basis" -> "" (spherical)
 ------------------------------------------------------------------------------
       Tag                 Description            Shells   Functions and Types
 ---------------- ------------------------------  ------  ---------------------
 *                          cc-pVTZ                   on all atoms 


                      Basis "ao basis" -> "ao basis" (spherical)
                      -----
  O (Oxygen)
  ----------
            Exponent  Coefficients 
       -------------- ---------------------------------------------------------
  1 S  1.53300000E+04  0.000508
  1 S  2.29900000E+03  0.003929
  1 S  5.22400000E+02  0.020243
  1 S  1.47300000E+02  0.079181
  1 S  4.75500000E+01  0.230687
  1 S  1.67600000E+01  0.433118
  1 S  6.20700000E+00  0.350260
  1 S  6.88200000E-01 -0.008154

  2 S  1.53300000E+04 -0.000115
  2 S  2.29900000E+03 -0.000895
  2 S  5.22400000E+02 -0.004636
  2 S  1.47300000E+02 -0.018724
  2 S  4.75500000E+01 -0.058463
  2 S  1.67600000E+01 -0.136463
  2 S  6.20700000E+00 -0.175740
  2 S  6.88200000E-01  0.603418

  3 S  1.75200000E+00  1.000000

  4 S  2.38400000E-01  1.000000

  5 P  3.44600000E+01  0.015928
  5 P  7.74900000E+00  0.099740
  5 P  2.28000000E+00  0.310492

  6 P  7.15600000E-01  1.000000

  7 P  2.14000000E-01  1.000000

  8 D  2.31400000E+00  1.000000

  9 D  6.45000000E-01  1.000000

 10 F  1.42800000E+00  1.000000

  H (Hydrogen)
  ------------
            Exponent  Coefficients 
       -------------- ---------------------------------------------------------
  1 S  3.38700000E+01  0.006068
  1 S  5.09500000E+00  0.045308
  1 S  1.15900000E+00  0.202822

  2 S  3.25800000E-01  1.000000

  3 S  1.02700000E-01  1.000000

  4 P  1.40700000E+00  1.000000

  5 P  3.88000000E-01  1.000000

  6 D  1.05700000E+00  1.000000



 Summary of "ao basis" -> "ao basis" (spherical)
 ------------------------------------------------------------------------------
       Tag                 Description            Shells   Functions and Types
 ---------------- ------------------------------  ------  ---------------------
 O                          cc-pVTZ                 10       30   4s3p2d1f
 H                          cc-pVTZ                  6       14   3s2p1d


                                 NWChem SCF Module
                                 -----------------


                                        H2O



  ao basis        = "ao basis"
  functions       =    58
  atoms           =     3
  closed shells   =     5
  open shells     =     0
  charge          =   0.00
  wavefunction    = RHF 
  input vectors   = ./h2o.mos
  output vectors  = ./h2o.mos
  use symmetry    = F
  symmetry adapt  = F


 Summary of "ao basis" -> "ao basis" (spherical)
 ------------------------------------------------------------------------------
       Tag                 Description            Shells   Functions and Types
 ---------------- ------------------------------  ------  ---------------------
 O                          cc-pVTZ                 10       30   4s3p2d1f
 H                          cc-pVTZ                  6       14   3s2p1d



 Forming initial guess at       0.0s


 Loading old vectors from job with title :

H2O


 Starting SCF solution at       0.0s



 ----------------------------------------------
         Quadratically convergent ROHF

 Convergence threshold     :          1.000E-04
 Maximum no. of iterations :           30
 Final Fock-matrix accuracy:          1.000E-07
 ----------------------------------------------


 Integral file          = ./H2O.aoints.0
 Record size in doubles =  65536        No. of integs per rec  =  43688
 Max. records in memory =     49        Max. records in file   = 280310
 No. of bits per label  =      8        No. of bits per value  =     64


 #quartets = 3.213D+04 #integrals = 6.608D+05 #direct =  0.0% #cached =100.0%


              iter       energy          gnorm     gmax       time
             ----- ------------------- --------- --------- --------
                 1      -76.0554719925  2.45D-02  6.23D-03      0.2
                 2      -76.0555009074  4.99D-04  1.47D-04      0.2
                 3      -76.0555009392  2.09D-06  7.84D-07      0.2


       Final RHF  results 
       ------------------ 

         Total SCF energy =    -76.055500939220
      One-electron energy =   -122.969747809684
      Two-electron energy =     37.813072910733
 Nuclear repulsion energy =      9.101173959731

        Time for solution =      0.2s


             Final eigenvalues
             -----------------

              1      
    1  -20.5530
    2   -1.3369
    3   -0.7161
    4   -0.5641
    5   -0.5017
    6    0.1422
    7    0.2021
    8    0.5510
    9    0.5755
   10    0.6759
   11    0.7884
   12    0.8012
   13    0.8338
   14    0.8470
   15    0.9800

                       ROHF Final Molecular Orbital Analysis
                       -------------------------------------

 Vector    2  Occ=2.000000D+00  E=-1.336926D+00
              MO Center=  3.2D-02,  3.2D-02, -2.7D-16, r^2= 5.1D-01
   Bfn.  Coefficient  Atom+Function         Bfn.  Coefficient  Atom+Function  
  ----- ------------  ---------------      ----- ------------  ---------------
     2      0.506619  1 O  s                  4      0.289300  1 O  s          

 Vector    3  Occ=2.000000D+00  E=-7.160754D-01
              MO Center=  8.1D-02,  4.8D-02, -3.0D-15, r^2= 7.8D-01
   Bfn.  Coefficient  Atom+Function         Bfn.  Coefficient  Atom+Function  
  ----- ------------  ---------------      ----- ------------  ---------------
     9      0.280764  1 O  py                 6      0.233312  1 O  py         
    32      0.220483  2 H  s                 46     -0.216344  3 H  s          
     8     -0.187924  1 O  px                 5     -0.155080  1 O  px         

 Vector    4  Occ=2.000000D+00  E=-5.641183D-01
              MO Center= -1.2D-01, -8.9D-02, -4.3D-15, r^2= 7.0D-01
   Bfn.  Coefficient  Atom+Function         Bfn.  Coefficient  Atom+Function  
  ----- ------------  ---------------      ----- ------------  ---------------
     8      0.322373  1 O  px                 5      0.261980  1 O  px         
     4     -0.259226  1 O  s                 11      0.241521  1 O  px         
     9      0.217221  1 O  py                 6      0.177549  1 O  py         
     2     -0.167768  1 O  s                 12      0.163878  1 O  py         

 Vector    5  Occ=2.000000D+00  E=-5.016690D-01
              MO Center= -6.6D-02, -4.3D-02,  1.2D-14, r^2= 6.4D-01
   Bfn.  Coefficient  Atom+Function         Bfn.  Coefficient  Atom+Function  
  ----- ------------  ---------------      ----- ------------  ---------------
    10      0.443951  1 O  pz                13      0.377917  1 O  pz         
     7      0.356854  1 O  pz         

 Vector    6  Occ=0.000000D+00  E= 1.421591D-01
              MO Center=  5.0D-01,  2.9D-01,  3.3D-15, r^2= 3.8D+00
   Bfn.  Coefficient  Atom+Function         Bfn.  Coefficient  Atom+Function  
  ----- ------------  ---------------      ----- ------------  ---------------
     4      1.572316  1 O  s                 47     -0.946442  3 H  s          
    33     -0.898865  2 H  s                 11      0.377651  1 O  px         
    32     -0.308040  2 H  s                 46     -0.289653  3 H  s          
    12      0.247222  1 O  py                38      0.189188  2 H  py         
    51      0.169319  3 H  px                 8      0.155666  1 O  px         

 Vector    7  Occ=0.000000D+00  E= 2.020503D-01
              MO Center=  5.1D-01,  4.1D-01, -6.1D-16, r^2= 4.7D+00
   Bfn.  Coefficient  Atom+Function         Bfn.  Coefficient  Atom+Function  
  ----- ------------  ---------------      ----- ------------  ---------------
    33      1.738568  2 H  s                 47     -1.685388  3 H  s          
    12     -0.718504  1 O  py                11      0.485415  1 O  px         
    38     -0.179551  2 H  py                 9     -0.169416  1 O  py         
    32      0.157369  2 H  s                 51      0.156835  3 H  px         

 Vector    8  Occ=0.000000D+00  E= 5.509685D-01
              MO Center=  1.7D-01, -1.5D-01, -1.8D-15, r^2= 2.2D+00
   Bfn.  Coefficient  Atom+Function         Bfn.  Coefficient  Atom+Function  
  ----- ------------  ---------------      ----- ------------  ---------------
    46      1.721769  3 H  s                 32     -1.331691  2 H  s          
    12      1.000912  1 O  py                11     -0.743368  1 O  px         
    47     -0.703174  3 H  s                 33      0.426657  2 H  s          
     9      0.214053  1 O  py                 8     -0.175411  1 O  px         

 Vector    9  Occ=0.000000D+00  E= 5.755023D-01
              MO Center=  3.1D-01,  4.0D-01, -8.7D-17, r^2= 2.1D+00
   Bfn.  Coefficient  Atom+Function         Bfn.  Coefficient  Atom+Function  
  ----- ------------  ---------------      ----- ------------  ---------------
    32      1.634384  2 H  s                 46      0.932878  3 H  s          
    33     -0.646353  2 H  s                  4     -0.590450  1 O  s          
    12     -0.553148  1 O  py                47     -0.490394  3 H  s          
    52     -0.251463  3 H  py                11     -0.230762  1 O  px         
     2     -0.183604  1 O  s                 37     -0.179821  2 H  px         

 Vector   10  Occ=0.000000D+00  E= 6.758663D-01
              MO Center= -2.5D-01, -1.5D-01,  2.8D-15, r^2= 2.4D+00
   Bfn.  Coefficient  Atom+Function         Bfn.  Coefficient  Atom+Function  
  ----- ------------  ---------------      ----- ------------  ---------------
     4      4.575392  1 O  s                 32     -2.275157  2 H  s          
    46     -2.215923  3 H  s                 11      2.081795  1 O  px         
    12      1.461962  1 O  py                38      1.171816  2 H  py         
    51      1.020112  3 H  px                33     -0.500553  2 H  s          
    52     -0.496187  3 H  py                47     -0.439412  3 H  s          

 Vector   11  Occ=0.000000D+00  E= 7.883759D-01
              MO Center= -4.2D-02, -8.4D-02, -1.8D-14, r^2= 1.7D+00
   Bfn.  Coefficient  Atom+Function         Bfn.  Coefficient  Atom+Function  
  ----- ------------  ---------------      ----- ------------  ---------------
    13      1.163087  1 O  pz                10     -0.773154  1 O  pz         
     7     -0.258403  1 O  pz         

 Vector   12  Occ=0.000000D+00  E= 8.012117D-01
              MO Center= -7.1D-02, -1.2D-02,  3.2D-14, r^2= 3.1D+00
   Bfn.  Coefficient  Atom+Function         Bfn.  Coefficient  Atom+Function  
  ----- ------------  ---------------      ----- ------------  ---------------
    12      2.483610  1 O  py                11     -1.727487  1 O  px         
    32     -1.630842  2 H  s                 46      1.599288  3 H  s          
    33     -1.449305  2 H  s                 47      1.424217  3 H  s          
    38      1.163384  2 H  py                51     -1.095134  3 H  px         
    23     -0.403999  1 O  d  2              52      0.372955  3 H  py         

 Vector   13  Occ=0.000000D+00  E= 8.337581D-01
              MO Center=  1.0D-01,  6.9D-02,  4.2D-16, r^2= 2.1D+00
   Bfn.  Coefficient  Atom+Function         Bfn.  Coefficient  Atom+Function  
  ----- ------------  ---------------      ----- ------------  ---------------
    11      1.154111  1 O  px                32     -0.978742  2 H  s          
    46     -0.951930  3 H  s                 37     -0.915870  2 H  px         
    52     -0.856512  3 H  py                12      0.788323  1 O  py         
     4      0.568052  1 O  s                 51     -0.306256  3 H  px         
    33      0.299184  2 H  s                 47      0.259436  3 H  s          

 Vector   14  Occ=0.000000D+00  E= 8.469972D-01
              MO Center=  3.4D-01,  2.6D-01, -2.4D-14, r^2= 1.7D+00
   Bfn.  Coefficient  Atom+Function         Bfn.  Coefficient  Atom+Function  
  ----- ------------  ---------------      ----- ------------  ---------------
    53     -0.843189  3 H  pz                39      0.823722  2 H  pz         

 Vector   15  Occ=0.000000D+00  E= 9.800170D-01
              MO Center=  1.6D-01,  1.3D-01, -5.4D-15, r^2= 2.0D+00
   Bfn.  Coefficient  Atom+Function         Bfn.  Coefficient  Atom+Function  
  ----- ------------  ---------------      ----- ------------  ---------------
    13      1.152685  1 O  pz                39     -1.038753  2 H  pz         
    53     -0.997705  3 H  pz         


 center of mass
 --------------
 x =  -0.07599894 y =  -0.05100044 z =   0.00000000

 moments of inertia (a.u.)
 ------------------
           3.637625824038           1.240657508291           0.000000000000
           1.240657508291           2.833002082974           0.000000000000
           0.000000000000           0.000000000000           6.470627907012

  Mulliken analysis of the total density
  --------------------------------------

    Atom       Charge   Shell Charges
 -----------   ------   -------------------------------------------------------
    1 O    8     8.50   1.95  0.99  0.23  0.60  1.26  2.15  1.30  0.00  0.02  0.00
    2 H    1     0.75   0.25  0.37  0.04  0.02  0.06  0.01
    3 H    1     0.75   0.24  0.37  0.04  0.02  0.06  0.01

       Multipole analysis of the density wrt the origin
       ------------------------------------------------

     L   x y z        total         open         nuclear
     -   - - -        -----         ----         -------
     0   0 0 0     -0.000000      0.000000     10.000000

     1   1 0 0      0.628792      0.000000     -0.000000
     1   0 1 0      0.426471      0.000000      0.000000
     1   0 0 1     -0.000000      0.000000      0.000000

     2   2 0 0     -4.045049      0.000000      2.679864
     2   1 1 0     -0.831001      0.000000     -1.319030
     2   1 0 1      0.000000      0.000000      0.000000
     2   0 2 0     -3.463286      0.000000      3.550325
     2   0 1 1     -0.000000      0.000000      0.000000
     2   0 0 2     -5.442937      0.000000      0.000000


 Parallel integral file used      16 records with       0 large values

                   NWChem Extensible Many-Electron Theory Module
                   ---------------------------------------------

              ======================================================
                   This portion of the program was automatically
                  generated by a Tensor Contraction Engine (TCE).
                  The development of this portion of the program
                 and TCE was supported by US Department of Energy,
                Office of Science, Office of Basic Energy Science.
                      TCE is a product of Battelle and PNNL.
              Please cite: S.Hirata, J.Phys.Chem.A 107, 9887 (2003).
              ======================================================

                                        H2O


            General Information
            -------------------
      Number of processors :     1
         Wavefunction type : Restricted Hartree-Fock
          No. of electrons :    10
           Alpha electrons :     5
            Beta electrons :     5
           No. of orbitals :   116
            Alpha orbitals :    58
             Beta orbitals :    58
        Alpha frozen cores :     0
         Beta frozen cores :     0
     Alpha frozen virtuals :     0
      Beta frozen virtuals :     0
         Spin multiplicity : singlet 
    Number of AO functions :    58
       Number of AO shells :    22
        Use of symmetry is : off
      Symmetry adaption is : off
         Schwarz screening : 0.10D-09

          Correlation Information
          -----------------------
          Calculation type : Coupled-cluster singles & doubles                           
   Perturbative correction : none                                                        
            Max iterations :      100
        Residual threshold : 0.10D-06
     T(0) DIIS level shift : 0.00D+00
     L(0) DIIS level shift : 0.00D+00
     T(1) DIIS level shift : 0.00D+00
     L(1) DIIS level shift : 0.00D+00
     T(R) DIIS level shift : 0.00D+00
     T(I) DIIS level shift : 0.00D+00
   CC-T/L Amplitude update :  5-th order DIIS
                I/O scheme : Global Array Library
        L-threshold :  0.10D-06
        EOM-threshold :  0.10D-06
 no EOMCCSD initial starts read in
 TCE RESTART OPTIONS
 READ_INT:   F
 WRITE_INT:  F
 READ_TA:    F
 WRITE_TA:   F
 READ_XA:    F
 WRITE_XA:   F
 READ_IN3:   F
 WRITE_IN3:  F
 SLICE:      F
 D4D5:       F
 quantumc:   F
 qrotation:  F
 pwtce:      F
 qducc:      F
 nacto:                         0
 nrotv:                         0
 nrot:                          0

            Memory Information
            ------------------
          Available GA space size is    1610609372 doubles
          Available MA space size is    1610609780 doubles

 Maximum block size        32 doubles

 tile_dim =     27

 Block   Spin    Irrep     Size     Offset   Alpha
 -------------------------------------------------
   1    alpha     a      5 doubles       0       1
   2    beta      a      5 doubles       5       1
   3    alpha     a     26 doubles      10       3
   4    alpha     a     27 doubles      36       4
   5    beta      a     26 doubles      63       3
   6    beta      a     27 doubles      89       4

 Global array virtual files algorithm will be used

 Parallel file system coherency ......... OK

 Integral file          = ./H2O.aoints.0
 Record size in doubles =  65536        No. of integs per rec  =  43688
 Max. records in memory =     49        Max. records in file   = 280310
 No. of bits per label  =      8        No. of bits per value  =     64


 #quartets = 3.213D+04 #integrals = 6.608D+05 #direct =  0.0% #cached =100.0%


 Fock matrix recomputed
 1-e file size   =             3364
 1-e file name   = ./H2O.f1
 Cpu & wall time / sec            0.1            0.1
 4-electron integrals stored in orbital form

 v2    file size   =          3631290
 4-index algorithm nr.  13 is used
 imaxsize =       30
 imaxsize ichop =        0
 Cpu & wall time / sec            1.2            1.2
 T1-number-of-tasks                    2

 t1 file size   =              265
 t1 file name   = ./H2O.t1
 t1 file handle =       -998
 T2-number-of-boxes                    7

 t2 file size   =           122900
 t2 file name   = ./H2O.t2
 t2 file handle =       -996
CCSD iterations
 ---------------------------------------------------------
 Iter          Residuum       Correlation     Cpu    Wall 
 ---------------------------------------------------------
NEW TASK SCHEDULING
CCSD_T1_NTS --- OK
CCSD_T2_NTS --- OK
    1   0.1381273296171  -0.2751567080963     0.2     0.2
    2   0.0302236404122  -0.2764690695227     0.2     0.2
    3   0.0102089024704  -0.2801313665279     0.2     0.2
    4   0.0040217995571  -0.2805577420269     0.2     0.2
    5   0.0016647338022  -0.2808143019524     0.2     0.2
 MICROCYCLE DIIS UPDATE:                    5                    5
    6   0.0003303869806  -0.2809324408315     0.2     0.2
    7   0.0001333027886  -0.2809446877947     0.2     0.2
    8   0.0000533851587  -0.2809440287719     0.2     0.2
    9   0.0000302298237  -0.2809442232720     0.2     0.2
   10   0.0000154840849  -0.2809444696243     0.2     0.2
 MICROCYCLE DIIS UPDATE:                   10                    5
   11   0.0000029490658  -0.2809449630281     0.2     0.2
   12   0.0000013112525  -0.2809447582691     0.2     0.2
   13   0.0000006091185  -0.2809447794052     0.2     0.2
   14   0.0000003574782  -0.2809447679119     0.2     0.2
   15   0.0000001938607  -0.2809447663982     0.2     0.2
 MICROCYCLE DIIS UPDATE:                   15                    5
   16   0.0000000332726  -0.2809447617762     0.2     0.2
 -----------------------------------------------------------------
 Iterations converged
 CCSD correlation energy / hartree =        -0.280944761776243
 CCSD total energy / hartree       =       -76.336445700996720

 Singles contributions

 Doubles contributions
     8a   (alpha)     8a   (beta ) ---     3a   (alpha)     3a   (beta )       -0.0263316513
     8a   (alpha)     8a   (beta ) ---     4a   (alpha)     4a   (beta )       -0.0214928439
     9a   (alpha)     9a   (beta ) ---     3a   (alpha)     3a   (beta )       -0.0270509589
    10a   (alpha)    10a   (beta ) ---     4a   (alpha)     4a   (beta )       -0.0308432036
    10a   (alpha)    11a   (beta ) ---     4a   (alpha)     5a   (beta )       -0.0264327870
    11a   (alpha)    10a   (beta ) ---     5a   (alpha)     4a   (beta )       -0.0264327870
    11a   (alpha)    11a   (beta ) ---     5a   (alpha)     5a   (beta )       -0.0476521418
    11a   (alpha)    12a   (beta ) ---     5a   (alpha)     3a   (beta )       -0.0220888613
    12a   (alpha)    11a   (beta ) ---     3a   (alpha)     5a   (beta )       -0.0220888613
    12a   (alpha)    12a   (beta ) ---     3a   (alpha)     3a   (beta )       -0.0225668135

 Parallel integral file used      16 records with       0 large values


 Task  times  cpu:        4.4s     wall:        4.6s


                                NWChem Input Module
                                -------------------


                                 NWChem SCF Module
                                 -----------------


                                        H2O



  ao basis        = "ao basis"
  functions       =    58
  atoms           =     3
  closed shells   =     5
  open shells     =     0
  charge          =   0.00
  wavefunction    = RHF 
  input vectors   = ./h2o.mos
  output vectors  = ./h2o.mos
  use symmetry    = F
  symmetry adapt  = F


 Summary of "ao basis" -> "ao basis" (spherical)
 ------------------------------------------------------------------------------
       Tag                 Description            Shells   Functions and Types
 ---------------- ------------------------------  ------  ---------------------
 O                          cc-pVTZ                 10       30   4s3p2d1f
 H                          cc-pVTZ                  6       14   3s2p1d



  The SCF is already converged 

         Total SCF energy =    -76.055500939220

                   NWChem Extensible Many-Electron Theory Module
                   ---------------------------------------------

              ======================================================
                   This portion of the program was automatically
                  generated by a Tensor Contraction Engine (TCE).
                  The development of this portion of the program
                 and TCE was supported by US Department of Energy,
                Office of Science, Office of Basic Energy Science.
                      TCE is a product of Battelle and PNNL.
              Please cite: S.Hirata, J.Phys.Chem.A 107, 9887 (2003).
              ======================================================

                                        H2O


            General Information
            -------------------
      Number of processors :     1
         Wavefunction type : Restricted Hartree-Fock
          No. of electrons :    10
           Alpha electrons :     5
            Beta electrons :     5
           No. of orbitals :   116
            Alpha orbitals :    58
             Beta orbitals :    58
        Alpha frozen cores :     0
         Beta frozen cores :     0
     Alpha frozen virtuals :    50
      Beta frozen virtuals :    50
         Spin multiplicity : singlet 
    Number of AO functions :    58
       Number of AO shells :    22
        Use of symmetry is : off
      Symmetry adaption is : off
         Schwarz screening : 0.10D-09

          Correlation Information
          -----------------------
          Calculation type : Coupled-cluster singles & doubles                           
   Perturbative correction : none                                                        
            Max iterations :      100
        Residual threshold : 0.10D-06
     T(0) DIIS level shift : 0.00D+00
     L(0) DIIS level shift : 0.00D+00
     T(1) DIIS level shift : 0.00D+00
     L(1) DIIS level shift : 0.00D+00
     T(R) DIIS level shift : 0.00D+00
     T(I) DIIS level shift : 0.00D+00
   CC-T/L Amplitude update :  5-th order DIIS
                I/O scheme : Global Array Library
        L-threshold :  0.10D-06
        EOM-threshold :  0.10D-06
 no EOMCCSD initial starts read in
 TCE RESTART OPTIONS
 READ_INT:   F
 WRITE_INT:  F
 READ_TA:    F
 WRITE_TA:   F
 READ_XA:    F
 WRITE_XA:   F
 READ_IN3:   F
 WRITE_IN3:  F
 SLICE:      F
 D4D5:       F
 quantumc:   F
 qrotation:  F
 pwtce:      F
 qducc:      F
 nacto:                         0
 nrotv:                         0
 nrot:                          0

            Memory Information
            ------------------
          Available GA space size is    1610609372 doubles
          Available MA space size is    1610609780 doubles

 Maximum block size        32 doubles

 tile_dim =      5

 Block   Spin    Irrep     Size     Offset   Alpha
 -------------------------------------------------
   1    alpha     a      5 doubles       0       1
   2    beta      a      5 doubles       5       1
   3    alpha     a      3 doubles      10       3
   4    beta      a      3 doubles      13       3

 Global array virtual files algorithm will be used

 Parallel file system coherency ......... OK

 Integral file          = ./H2O.aoints.0
 Record size in doubles =  65536        No. of integs per rec  =  43688
 Max. records in memory =     49        Max. records in file   = 280310
 No. of bits per label  =      8        No. of bits per value  =     64


 #quartets = 3.213D+04 #integrals = 6.608D+05 #direct =  0.0% #cached =100.0%


 Fock matrix recomputed
 1-e file size   =               64
 1-e file name   = ./H2O.f1
 Cpu & wall time / sec            0.1            0.1
 4-electron integrals stored in orbital form

 v2    file size   =             1666
 4-index algorithm nr.  13 is used
 imaxsize =       30
 imaxsize ichop =        0
 Cpu & wall time / sec            0.7            0.7
 T1-number-of-tasks                    1

 t1 file size   =               15
 t1 file name   = ./H2O.t1
 t1 file handle =       -998
 T2-number-of-boxes                    2

 t2 file size   =              450
 t2 file name   = ./H2O.t2
 t2 file handle =       -996
CCSD iterations
 ---------------------------------------------------------
 Iter          Residuum       Correlation     Cpu    Wall 
 ---------------------------------------------------------
NEW TASK SCHEDULING
CCSD_T1_NTS --- OK
CCSD_T2_NTS --- OK
    1   0.0245899555847  -0.0066468473496     0.0     0.0
    2   0.0065840677033  -0.0077939642275     0.0     0.0
    3   0.0020414677344  -0.0080674708203     0.0     0.0
    4   0.0006921954004  -0.0081479328283     0.0     0.0
    5   0.0002551778860  -0.0081744301948     0.0     0.0
 MICROCYCLE DIIS UPDATE:                    5                    5
    6   0.0000310277523  -0.0081896329735     0.0     0.0
    7   0.0000090592831  -0.0081892255609     0.0     0.0
    8   0.0000038003661  -0.0081892332162     0.0     0.0
    9   0.0000017185992  -0.0081892329879     0.0     0.0
   10   0.0000008054504  -0.0081892383693     0.0     0.0
 MICROCYCLE DIIS UPDATE:                   10                    5
   11   0.0000000890369  -0.0081892454550     0.0     0.0
 -----------------------------------------------------------------
 Iterations converged
 CCSD correlation energy / hartree =        -0.008189245455044
 CCSD total energy / hartree       =       -76.063690184675522

 Singles contributions

 Doubles contributions
     7a   (alpha)     7a   (beta ) ---     3a   (alpha)     3a   (beta )       -0.0219383189
     8a   (alpha)     8a   (beta ) ---     3a   (alpha)     3a   (beta )       -0.0292854910
     8a   (alpha)     8a   (beta ) ---     4a   (alpha)     4a   (beta )       -0.0240854890

 Parallel integral file used      16 records with       0 large values


 Task  times  cpu:        0.9s     wall:        0.9s


                                NWChem Input Module
                                -------------------


 Summary of allocated global arrays
-----------------------------------
  No active global arrays


MA_summarize_allocated_blocks: starting scan ...
MA_summarize_allocated_blocks: scan completed: 0 heap blocks, 0 stack blocks
MA usage statistics:

	allocation statistics:
					      heap	     stack
					      ----	     -----
	current number of blocks	         0	         0
	maximum number of blocks	        17	        42
	current total bytes		         0	         0
	maximum total bytes		  25710264	  45647544
	maximum total K-bytes		     25711	     45648
	maximum total M-bytes		        26	        46


                                     CITATION
                                     --------
                Please cite the following reference when publishing
                           results obtained with NWChem:

          E. Apra, E. J. Bylaska, W. A. de Jong, N. Govind, K. Kowalski,
       T. P. Straatsma, M. Valiev, H. J. J. van Dam, Y. Alexeev, J. Anchell,
       V. Anisimov, F. W. Aquino, R. Atta-Fynn, J. Autschbach, N. P. Bauman,
     J. C. Becca, D. E. Bernholdt, K. Bhaskaran-Nair, S. Bogatko, P. Borowski,
         J. Boschen, J. Brabec, A. Bruner, E. Cauet, Y. Chen, G. N. Chuev,
      C. J. Cramer, J. Daily, M. J. O. Deegan, T. H. Dunning Jr., M. Dupuis,
   K. G. Dyall, G. I. Fann, S. A. Fischer, A. Fonari, H. Fruchtl, L. Gagliardi,
      J. Garza, N. Gawande, S. Ghosh, K. Glaesemann, A. W. Gotz, J. Hammond,
       V. Helms, E. D. Hermes, K. Hirao, S. Hirata, M. Jacquelin, L. Jensen,
   B. G. Johnson, H. Jonsson, R. A. Kendall, M. Klemm, R. Kobayashi, V. Konkov,
      S. Krishnamoorthy, M. Krishnan, Z. Lin, R. D. Lins, R. J. Littlefield,
      A. J. Logsdail, K. Lopata, W. Ma, A. V. Marenich, J. Martin del Campo,
   D. Mejia-Rodriguez, J. E. Moore, J. M. Mullin, T. Nakajima, D. R. Nascimento,
    J. A. Nichols, P. J. Nichols, J. Nieplocha, A. Otero-de-la-Roza, B. Palmer,
    A. Panyala, T. Pirojsirikul, B. Peng, R. Peverati, J. Pittner, L. Pollack,
   R. M. Richard, P. Sadayappan, G. C. Schatz, W. A. Shelton, D. W. Silverstein,
   D. M. A. Smith, T. A. Soares, D. Song, M. Swart, H. L. Taylor, G. S. Thomas,
            V. Tipparaju, D. G. Truhlar, K. Tsemekhman, T. Van Voorhis,
      A. Vazquez-Mayagoitia, P. Verma, O. Villa, A. Vishnu, K. D. Vogiatzis,
        D. Wang, J. H. Weare, M. J. Williamson, T. L. Windus, K. Wolinski,
        A. T. Wong, Q. Wu, C. Yang, Q. Yu, M. Zacharias, Z. Zhang, Y. Zhao,
                                and R. J. Harrison
                        "NWChem: Past, present, and future
                         J. Chem. Phys. 152, 184102 (2020)
                               doi:10.1063/5.0004997

                                      AUTHORS
                                      -------
  E. Apra, E. J. Bylaska, N. Govind, K. Kowalski, M. Valiev, D. Mejia-Rodriguez,
       A. Kunitsa, N. P. Bauman, A. Panyala, W. A. de Jong, T. P. Straatsma,
        H. J. J. van Dam, D. Wang, T. L. Windus, J. Hammond, J. Autschbach,
    K. Bhaskaran-Nair, J. Brabec, K. Lopata, S. A. Fischer, S. Krishnamoorthy,
     M. Jacquelin, W. Ma, M. Klemm, O. Villa, Y. Chen, V. Anisimov, F. Aquino,
    S. Hirata, M. T. Hackler, Eric Hermes, L. Jensen, J. E. Moore, J. C. Becca,
      V. Konjkov, T. Risthaus, M. Malagoli, A. Marenich, A. Otero-de-la-Roza,
        J. Mullin, P. Nichols, R. Peverati, J. Pittner, Y. Zhao, P.-D. Fan,
        A. Fonari, M. J. Williamson, R. J. Harrison, J. R. Rehr, M. Dupuis,
     D. Silverstein, D. M. A. Smith, J. Nieplocha, V. Tipparaju, M. Krishnan,
     B. E. Van Kuiken, A. Vazquez-Mayagoitia, M. Swart, Q. Wu, T. Van Voorhis,
     A. A. Auer, M. Nooijen, L. D. Crosby, E. Brown, G. Cisneros, G. I. Fann,
   H. Fruchtl, J. Garza, K. Hirao, R. A. Kendall, J. A. Nichols, K. Tsemekhman,
    K. Wolinski, J. Anchell, D. E. Bernholdt, P. Borowski, T. Clark, D. Clerc,
   H. Dachsel, M. J. O. Deegan, K. Dyall, D. Elwood, E. Glendening, M. Gutowski,
   A. C. Hess, J. Jaffe, B. G. Johnson, J. Ju, R. Kobayashi, R. Kutteh, Z. Lin,
   R. Littlefield, X. Long, B. Meng, T. Nakajima, S. Niu, L. Pollack, M. Rosing,
   K. Glaesemann, G. Sandrone, M. Stave, H. Taylor, G. Thomas, J. H. van Lenthe,
                               A. T. Wong, Z. Zhang.

 Total times  cpu:        5.3s     wall:        5.5s
