 argument  1 = input.nw
  NWChem w/ OpenMP: maximum threads =    1



============================== echo of input deck ==============================

echo
start H4
title "H4"

memory total 12 gb

geometry units bohr
symmetry c1
H 0 0 0
H 0 0 2.47
H 0 0 4.94
H 0 0 7.41
end

basis spherical
  * library cc-pVTZ
end

scf
  vectors input H4.mos
  vectors output H4.mos
end

tce
  2eorb
  2emet 13
  ccsd
  maxiter 300
end

# set tce:print_integrals T
# set tce:qorb 4
# set tce:qela 2
# set tce:qelb 2

set tce:qducc T
set tce:nactv 2
set tce:nonhf T
set tce:ducc_model 6

set tce:printtol 0.02

task tce
================================================================================


                                         
                                         


             Northwest Computational Chemistry Package (NWChem) 7.0.1
             --------------------------------------------------------


                    Environmental Molecular Sciences Laboratory
                       Pacific Northwest National Laboratory
                                Richland, WA 99352

                              Copyright (c) 1994-2020
                       Pacific Northwest National Laboratory
                            Battelle Memorial Institute

             NWChem is an open-source computational chemistry package
                        distributed under the terms of the
                      Educational Community License (ECL) 2.0
             A copy of the license is included with this distribution
                              in the LICENSE.TXT file

                                  ACKNOWLEDGMENT
                                  --------------

            This software and its documentation were developed at the
            EMSL at Pacific Northwest National Laboratory, a multiprogram
            national laboratory, operated for the U.S. Department of Energy
            by Battelle under Contract Number DE-AC05-76RL01830. Support
            for this work was provided by the Department of Energy Office
            of Biological and Environmental Research, Office of Basic
            Energy Sciences, and the Office of Advanced Scientific Computing.


           Job information
           ---------------

    hostname        = WE46210
    program         = /home/baum612/code/nwchem/bin/LINUX64/nwchem
    date            = Fri Nov  1 11:39:29 2024

    compiled        = Wed_Sep_04_02:00:17_2024
    source          = /home/baum612/code/nwchem
    nwchem branch   = 7.0.0
    nwchem revision = nwchem_on_git-4191-g39d87d64de
    ga revision     = 5.8.1
    use scalapack   = F
    input           = input.nw
    prefix          = H4.
    data base       = ./H4.db
    status          = startup
    nproc           =        1
    time left       =     -1s



           Memory information
           ------------------

    heap     =  402653182 doubles =   3072.0 Mbytes
    stack    =  402653179 doubles =   3072.0 Mbytes
    global   =  805306368 doubles =   6144.0 Mbytes (distinct from heap & stack)
    total    = 1610612729 doubles =  12288.0 Mbytes
    verify   = yes
    hardfail = no 


           Directory information
           ---------------------

  0 permanent = .
  0 scratch   = .




                                NWChem Input Module
                                -------------------


                                        H4
                                        --
 Turning off AUTOSYM since
 SYMMETRY directive was detected!


          ------
          auto-z
          ------
     1 autoz failed with cvr_scaling = 1.2 changing to 1.3
     2 autoz failed with cvr_scaling = 1.3 changing to 1.4
     3 autoz failed with cvr_scaling = 1.4 changing to 1.5
     4 autoz failed with cvr_scaling = 1.5 changing to 1.6
     5 autoz failed with cvr_scaling = 1.6 changing to 1.7
  autoz: angle generation failed due to 4 colinear atoms                     1                    2                    3                    4

 AUTOZ failed to generate good internal coordinates.
 Cartesian coordinates will be used in optimizations.



                             Geometry "geometry" -> ""
                             -------------------------

 Output coordinates in a.u. (scale by  1.000000000 to convert to a.u.)

  No.       Tag          Charge          X              Y              Z
 ---- ---------------- ---------- -------------- -------------- --------------
    1 H                    1.0000     0.00000000     0.00000000    -3.70500000
    2 H                    1.0000     0.00000000     0.00000000    -1.23500000
    3 H                    1.0000     0.00000000     0.00000000     1.23500000
    4 H                    1.0000     0.00000000     0.00000000     3.70500000

      Atomic Mass 
      ----------- 

      H                  1.007825


 Effective nuclear repulsion energy (a.u.)       1.7543859649

            Nuclear Dipole moment (a.u.) 
            ----------------------------
        X                 Y               Z
 ---------------- ---------------- ----------------
     0.0000000000     0.0000000000    -0.0000000000


            XYZ format geometry
            -------------------
     4
 geometry
 H                     0.00000000     0.00000000    -1.96060171
 H                     0.00000000     0.00000000    -0.65353390
 H                     0.00000000     0.00000000     0.65353390
 H                     0.00000000     0.00000000     1.96060171



 Summary of "ao basis" -> "" (spherical)
 ------------------------------------------------------------------------------
       Tag                 Description            Shells   Functions and Types
 ---------------- ------------------------------  ------  ---------------------
 *                          cc-pVTZ                   on all atoms 


                      Basis "ao basis" -> "ao basis" (spherical)
                      -----
  H (Hydrogen)
  ------------
            Exponent  Coefficients 
       -------------- ---------------------------------------------------------
  1 S  3.38700000E+01  0.006068
  1 S  5.09500000E+00  0.045308
  1 S  1.15900000E+00  0.202822

  2 S  3.25800000E-01  1.000000

  3 S  1.02700000E-01  1.000000

  4 P  1.40700000E+00  1.000000

  5 P  3.88000000E-01  1.000000

  6 D  1.05700000E+00  1.000000



 Summary of "ao basis" -> "ao basis" (spherical)
 ------------------------------------------------------------------------------
       Tag                 Description            Shells   Functions and Types
 ---------------- ------------------------------  ------  ---------------------
 H                          cc-pVTZ                  6       14   3s2p1d


                                 NWChem SCF Module
                                 -----------------


                                        H4



  ao basis        = "ao basis"
  functions       =    56
  atoms           =     4
  closed shells   =     2
  open shells     =     0
  charge          =   0.00
  wavefunction    = RHF 
  input vectors   = ./H4.mos
  output vectors  = ./H4.mos
  use symmetry    = F
  symmetry adapt  = F


 Summary of "ao basis" -> "ao basis" (spherical)
 ------------------------------------------------------------------------------
       Tag                 Description            Shells   Functions and Types
 ---------------- ------------------------------  ------  ---------------------
 H                          cc-pVTZ                  6       14   3s2p1d



 Forming initial guess at       0.0s


 Loading old vectors from job with title :

H4


 Starting SCF solution at       0.0s



 ----------------------------------------------
         Quadratically convergent ROHF

 Convergence threshold     :          1.000E-04
 Maximum no. of iterations :           30
 Final Fock-matrix accuracy:          1.000E-07
 ----------------------------------------------


 Integral file          = ./H4.aoints.0
 Record size in doubles =  65536        No. of integs per rec  =  43688
 Max. records in memory =     43        Max. records in file   = 229910
 No. of bits per label  =      8        No. of bits per value  =     64


 #quartets = 4.110D+04 #integrals = 2.349D+05 #direct =  0.0% #cached =100.0%


              iter       energy          gnorm     gmax       time
             ----- ------------------- --------- --------- --------
                 1       -2.0763608420  6.11D-03  4.20D-03      0.1
                 2       -2.0763638707  8.70D-06  4.70D-06      0.1


       Final RHF  results 
       ------------------ 

         Total SCF energy =     -2.076363870667
      One-electron energy =     -5.731590523133
      Two-electron energy =      1.900840687554
 Nuclear repulsion energy =      1.754385964912

        Time for solution =      0.1s


             Final eigenvalues
             -----------------

              1      
    1   -0.5527
    2   -0.4123
    3    0.0065
    4    0.1955
    5    0.3479
    6    0.4345
    7    0.4592
    8    0.5826
    9    0.5963
   10    0.5963
   11    0.7052
   12    0.7052

                       ROHF Final Molecular Orbital Analysis
                       -------------------------------------

 Vector    1  Occ=2.000000D+00  E=-5.526917D-01
              MO Center= -6.4D-17,  1.3D-16,  1.5D-12, r^2= 2.1D+00
   Bfn.  Coefficient  Atom+Function         Bfn.  Coefficient  Atom+Function  
  ----- ------------  ---------------      ----- ------------  ---------------
    16      0.226652  2 H  s                 30      0.226652  3 H  s          
     2      0.159967  1 H  s                 44      0.159967  4 H  s          

 Vector    2  Occ=2.000000D+00  E=-4.122629D-01
              MO Center= -2.8D-16,  4.4D-16, -2.9D-12, r^2= 3.6D+00
   Bfn.  Coefficient  Atom+Function         Bfn.  Coefficient  Atom+Function  
  ----- ------------  ---------------      ----- ------------  ---------------
     2      0.227839  1 H  s                 44     -0.227839  4 H  s          
    17      0.223909  2 H  s                 31     -0.223909  3 H  s          
     3      0.198403  1 H  s                 45     -0.198403  4 H  s          
    16      0.173148  2 H  s                 30     -0.173148  3 H  s          

 Vector    3  Occ=0.000000D+00  E= 6.468779D-03
              MO Center=  4.1D-17, -5.0D-17,  7.7D-12, r^2= 4.8D+00
   Bfn.  Coefficient  Atom+Function         Bfn.  Coefficient  Atom+Function  
  ----- ------------  ---------------      ----- ------------  ---------------
     3      0.651615  1 H  s                 45      0.651615  4 H  s          
    17     -0.406344  2 H  s                 31     -0.406344  3 H  s          
     2      0.162845  1 H  s                 44      0.162845  4 H  s          
    16     -0.150103  2 H  s                 30     -0.150103  3 H  s          

 Vector    4  Occ=0.000000D+00  E= 1.955420D-01
              MO Center= -7.6D-18,  3.7D-17,  3.7D-11, r^2= 7.1D+00
   Bfn.  Coefficient  Atom+Function         Bfn.  Coefficient  Atom+Function  
  ----- ------------  ---------------      ----- ------------  ---------------
    17      2.042992  2 H  s                 31     -2.042992  3 H  s          
     3     -1.433492  1 H  s                 45      1.433492  4 H  s          
    16      0.164898  2 H  s                 30     -0.164898  3 H  s          

 Vector    5  Occ=0.000000D+00  E= 3.479128D-01
              MO Center= -5.7D-16, -4.8D-17, -9.0D-13, r^2= 5.2D+00
   Bfn.  Coefficient  Atom+Function         Bfn.  Coefficient  Atom+Function  
  ----- ------------  ---------------      ----- ------------  ---------------
     2      0.689189  1 H  s                 44      0.689189  4 H  s          
     3     -0.676222  1 H  s                 45     -0.676222  4 H  s          
    16      0.598338  2 H  s                 30      0.598338  3 H  s          
    17     -0.493044  2 H  s                 31     -0.493044  3 H  s          

 Vector    6  Occ=0.000000D+00  E= 4.345146D-01
              MO Center=  1.2D-16, -4.2D-16, -7.2D-11, r^2= 5.9D+00
   Bfn.  Coefficient  Atom+Function         Bfn.  Coefficient  Atom+Function  
  ----- ------------  ---------------      ----- ------------  ---------------
     2      0.941750  1 H  s                 44     -0.941750  4 H  s          
     3     -0.817265  1 H  s                 45      0.817265  4 H  s          
    17     -0.577417  2 H  s                 31      0.577417  3 H  s          

 Vector    7  Occ=0.000000D+00  E= 4.592473D-01
              MO Center= -2.2D-16, -1.3D-17,  9.8D-11, r^2= 5.9D+00
   Bfn.  Coefficient  Atom+Function         Bfn.  Coefficient  Atom+Function  
  ----- ------------  ---------------      ----- ------------  ---------------
     3      1.299150  1 H  s                 45      1.299150  4 H  s          
    17     -1.230554  2 H  s                 31     -1.230554  3 H  s          
    16      0.759927  2 H  s                 30      0.759927  3 H  s          
     2     -0.631690  1 H  s                 44     -0.631690  4 H  s          

 Vector    8  Occ=0.000000D+00  E= 5.825796D-01
              MO Center= -7.6D-16,  3.9D-17, -6.6D-11, r^2= 4.7D+00
   Bfn.  Coefficient  Atom+Function         Bfn.  Coefficient  Atom+Function  
  ----- ------------  ---------------      ----- ------------  ---------------
    17      3.926789  2 H  s                 31     -3.926789  3 H  s          
     3     -1.426754  1 H  s                 45      1.426754  4 H  s          
    16     -1.194811  2 H  s                 30      1.194811  3 H  s          
     2      0.186702  1 H  s                 44     -0.186702  4 H  s          

 Vector    9  Occ=0.000000D+00  E= 5.963418D-01
              MO Center=  8.2D-16, -5.6D-16,  3.3D-12, r^2= 2.2D+00
   Bfn.  Coefficient  Atom+Function         Bfn.  Coefficient  Atom+Function  
  ----- ------------  ---------------      ----- ------------  ---------------
    21      0.424098  2 H  px                35      0.424098  3 H  px         
    22     -0.290989  2 H  py                36     -0.290989  3 H  py         
     7      0.262311  1 H  px                49      0.262311  4 H  px         
     8     -0.179981  1 H  py                50     -0.179981  4 H  py         

 Vector   10  Occ=0.000000D+00  E= 5.963418D-01
              MO Center=  2.9D-16,  3.0D-16,  3.3D-12, r^2= 2.2D+00
   Bfn.  Coefficient  Atom+Function         Bfn.  Coefficient  Atom+Function  
  ----- ------------  ---------------      ----- ------------  ---------------
    22      0.424098  2 H  py                36      0.424098  3 H  py         
    21      0.290989  2 H  px                35      0.290989  3 H  px         
     8      0.262311  1 H  py                50      0.262311  4 H  py         
     7      0.179981  1 H  px                49      0.179981  4 H  px         

 Vector   11  Occ=0.000000D+00  E= 7.052048D-01
              MO Center=  3.5D-17,  1.8D-17, -1.2D-12, r^2= 3.8D+00
   Bfn.  Coefficient  Atom+Function         Bfn.  Coefficient  Atom+Function  
  ----- ------------  ---------------      ----- ------------  ---------------
     8      0.587771  1 H  py                50     -0.587771  4 H  py         
    22      0.355396  2 H  py                36     -0.355396  3 H  py         

 Vector   12  Occ=0.000000D+00  E= 7.052048D-01
              MO Center=  1.2D-15, -2.1D-17, -1.2D-12, r^2= 3.8D+00
   Bfn.  Coefficient  Atom+Function         Bfn.  Coefficient  Atom+Function  
  ----- ------------  ---------------      ----- ------------  ---------------
     7      0.587771  1 H  px                49     -0.587771  4 H  px         
    21      0.355396  2 H  px                35     -0.355396  3 H  px         


 center of mass
 --------------
 x =   0.00000000 y =   0.00000000 z =  -0.00000000

 moments of inertia (a.u.)
 ------------------
          30.743197712500           0.000000000000           0.000000000000
           0.000000000000          30.743197712500           0.000000000000
           0.000000000000           0.000000000000           0.000000000000

  Mulliken analysis of the total density
  --------------------------------------

    Atom       Charge   Shell Charges
 -----------   ------   -------------------------------------------------------
    1 H    1     0.97   0.15  0.45  0.36  0.00  0.01  0.00
    2 H    1     1.03   0.16  0.48  0.37  0.00  0.02  0.00
    3 H    1     1.03   0.16  0.48  0.37  0.00  0.02  0.00
    4 H    1     0.97   0.15  0.45  0.36  0.00  0.01  0.00

       Multipole analysis of the density wrt the origin
       ------------------------------------------------

     L   x y z        total         open         nuclear
     -   - - -        -----         ----         -------
     0   0 0 0     -0.000000      0.000000      4.000000

     1   1 0 0      0.000000      0.000000      0.000000
     1   0 1 0     -0.000000      0.000000      0.000000
     1   0 0 1      0.000000      0.000000     -0.000000

     2   2 0 0     -4.151795      0.000000      0.000000
     2   1 1 0      0.000000      0.000000      0.000000
     2   1 0 1      0.000000      0.000000      0.000000
     2   0 2 0     -4.151795      0.000000      0.000000
     2   0 1 1     -0.000000      0.000000      0.000000
     2   0 0 2     -1.951245      0.000000     30.504500


 Parallel integral file used       6 records with       0 large values

                   NWChem Extensible Many-Electron Theory Module
                   ---------------------------------------------

              ======================================================
                   This portion of the program was automatically
                  generated by a Tensor Contraction Engine (TCE).
                  The development of this portion of the program
                 and TCE was supported by US Department of Energy,
                Office of Science, Office of Basic Energy Science.
                      TCE is a product of Battelle and PNNL.
              Please cite: S.Hirata, J.Phys.Chem.A 107, 9887 (2003).
              ======================================================

                                        H4


            General Information
            -------------------
      Number of processors :     1
         Wavefunction type : Restricted Hartree-Fock
          No. of electrons :     4
           Alpha electrons :     2
            Beta electrons :     2
           No. of orbitals :   112
            Alpha orbitals :    56
             Beta orbitals :    56
        Alpha frozen cores :     0
         Beta frozen cores :     0
     Alpha frozen virtuals :     0
      Beta frozen virtuals :     0
         Spin multiplicity : singlet 
    Number of AO functions :    56
       Number of AO shells :    24
        Use of symmetry is : off
      Symmetry adaption is : off
         Schwarz screening : 0.10D-09

          Correlation Information
          -----------------------
          Calculation type : Coupled-cluster singles & doubles                           
   Perturbative correction : none                                                        
            Max iterations :      300
        Residual threshold : 0.10D-06
     T(0) DIIS level shift : 0.00D+00
     L(0) DIIS level shift : 0.00D+00
     T(1) DIIS level shift : 0.00D+00
     L(1) DIIS level shift : 0.00D+00
     T(R) DIIS level shift : 0.00D+00
     T(I) DIIS level shift : 0.00D+00
   CC-T/L Amplitude update :  5-th order DIIS
                I/O scheme : Global Array Library
        L-threshold :  0.10D-06
        EOM-threshold :  0.10D-06
 no EOMCCSD initial starts read in
 TCE RESTART OPTIONS
 READ_INT:   F
 WRITE_INT:  F
 READ_TA:    F
 WRITE_TA:   F
 READ_XA:    F
 WRITE_XA:   F
 READ_IN3:   F
 WRITE_IN3:  F
 SLICE:      F
 D4D5:       F
 quantumc:   F
 qrotation:  F
 pwtce:      F
 qducc:      T
 nacto:                         0
 nrotv:                         0
 nrot:                          0

            Memory Information
            ------------------
          Available GA space size is     805303232 doubles
          Available MA space size is     805304268 doubles

 Maximum block size        32 doubles

 tile_dim =     27

 Block   Spin    Irrep     Size     Offset   Alpha
 -------------------------------------------------
   1    alpha     a      2 doubles       0       1
   2    beta      a      2 doubles       2       1
   3    alpha     a     27 doubles       4       3
   4    alpha     a     27 doubles      31       4
   5    beta      a     27 doubles      58       3
   6    beta      a     27 doubles      85       4

 Global array virtual files algorithm will be used

 Parallel file system coherency ......... OK

 Integral file          = ./H4.aoints.0
 Record size in doubles =  65536        No. of integs per rec  =  43688
 Max. records in memory =     43        Max. records in file   = 229910
 No. of bits per label  =      8        No. of bits per value  =     64


 #quartets = 4.207D+04 #integrals = 2.723D+05 #direct =  0.0% #cached =100.0%


 Fock matrix recomputed
 1-e file size   =             3136
 1-e file name   = ./H4.f1
 Cpu & wall time / sec            0.1            0.1
 4-electron integrals stored in orbital form

 v2    file size   =          3442786
 4-index algorithm nr.  13 is used
 imaxsize =       30
 imaxsize ichop =        0
 Cpu & wall time / sec            1.5            1.5
 T1-number-of-tasks                    2

 t1 file size   =              108
 t1 file name   = ./H4.t1
 t1 file handle =       -998
 T2-number-of-boxes                    7

 t2 file size   =            20412
 t2 file name   = ./H4.t2
 t2 file handle =       -996
CCSD iterations
 ---------------------------------------------------------
 Iter          Residuum       Correlation     Cpu    Wall 
 ---------------------------------------------------------
NEW TASK SCHEDULING
CCSD_T1_NTS --- OK
CCSD_T2_NTS --- OK
    1   0.1173219273583  -0.0793168797583     0.1     0.1
    2   0.0517018503106  -0.0960746669100     0.1     0.1
    3   0.0272455810232  -0.1029720597505     0.1     0.1
    4   0.0156532134169  -0.1062662725516     0.1     0.1
    5   0.0095445867979  -0.1080087952425     0.1     0.1
 MICROCYCLE DIIS UPDATE:                    5                    5
    6   0.0025708072994  -0.1104123651483     0.1     0.1
    7   0.0015615925735  -0.1103345209795     0.1     0.1
    8   0.0010247484700  -0.1103392155909     0.1     0.1
    9   0.0007488705151  -0.1103414183591     0.1     0.1
   10   0.0005362675402  -0.1103507179329     0.1     0.1
 MICROCYCLE DIIS UPDATE:                   10                    5
   11   0.0001016938590  -0.1103798426371     0.1     0.1
   12   0.0000451101486  -0.1103898449641     0.1     0.1
   13   0.0000248109705  -0.1103949918445     0.1     0.1
   14   0.0000145582077  -0.1103976617869     0.1     0.2
   15   0.0000089471598  -0.1103991623011     0.1     0.1
 MICROCYCLE DIIS UPDATE:                   15                    5
   16   0.0000025593574  -0.1104012877233     0.1     0.1
   17   0.0000016477266  -0.1104012515824     0.1     0.1
   18   0.0000010522774  -0.1104012576272     0.1     0.1
   19   0.0000007761368  -0.1104012605076     0.1     0.1
   20   0.0000005528832  -0.1104012714413     0.1     0.1
 MICROCYCLE DIIS UPDATE:                   20                    5
   21   0.0000001001566  -0.1104013037489     0.1     0.1
   22   0.0000000445438  -0.1104013138258     0.1     0.1
 -----------------------------------------------------------------
 Iterations converged
 CCSD correlation energy / hartree =        -0.110401313825781
 CCSD total energy / hartree       =        -2.186765184492395

 Singles contributions
     6a   (alpha) ---     2a   (alpha)        0.0297127846

 Doubles contributions
     3a   (alpha)     4a   (alpha) ---     1a   (alpha)     2a   (alpha)        0.0342286237
     3a   (alpha)     4a   (alpha) ---     2a   (alpha)     1a   (alpha)       -0.0342286237
     4a   (alpha)     3a   (alpha) ---     1a   (alpha)     2a   (alpha)       -0.0342286237
     4a   (alpha)     3a   (alpha) ---     2a   (alpha)     1a   (alpha)        0.0342286237
     3a   (alpha)     3a   (beta ) ---     1a   (alpha)     1a   (beta )       -0.0780167202
     3a   (alpha)     3a   (beta ) ---     2a   (alpha)     2a   (beta )       -0.2110745526
     3a   (alpha)     4a   (beta ) ---     1a   (alpha)     2a   (beta )        0.0753393974
     3a   (alpha)     4a   (beta ) ---     2a   (alpha)     1a   (beta )        0.0411107737
     3a   (alpha)     5a   (beta ) ---     2a   (alpha)     2a   (beta )       -0.0417569448
     3a   (alpha)     6a   (beta ) ---     1a   (alpha)     2a   (beta )       -0.0562405099
     3a   (alpha)     6a   (beta ) ---     2a   (alpha)     1a   (beta )       -0.0448639355
     3a   (alpha)     7a   (beta ) ---     1a   (alpha)     1a   (beta )        0.0380117694
     3a   (alpha)     7a   (beta ) ---     2a   (alpha)     2a   (beta )        0.0539105276
     3a   (alpha)     8a   (beta ) ---     1a   (alpha)     2a   (beta )       -0.0462436127
     3a   (alpha)     8a   (beta ) ---     2a   (alpha)     1a   (beta )       -0.0286952761
     4a   (alpha)     3a   (beta ) ---     1a   (alpha)     2a   (beta )        0.0411107737
     4a   (alpha)     3a   (beta ) ---     2a   (alpha)     1a   (beta )        0.0753393974
     4a   (alpha)     4a   (beta ) ---     1a   (alpha)     1a   (beta )       -0.0486299577
     4a   (alpha)     4a   (beta ) ---     2a   (alpha)     2a   (beta )       -0.0415874716
     4a   (alpha)     6a   (beta ) ---     1a   (alpha)     1a   (beta )        0.0222408490
     4a   (alpha)     7a   (beta ) ---     2a   (alpha)     1a   (beta )       -0.0224461881
     4a   (alpha)     8a   (beta ) ---     1a   (alpha)     1a   (beta )        0.0328092779
     4a   (alpha)     8a   (beta ) ---     2a   (alpha)     2a   (beta )        0.0204589826
     5a   (alpha)     3a   (beta ) ---     2a   (alpha)     2a   (beta )       -0.0417569448
     5a   (alpha)     5a   (beta ) ---     2a   (alpha)     2a   (beta )       -0.0225686239
     6a   (alpha)     3a   (beta ) ---     1a   (alpha)     2a   (beta )       -0.0448639355
     6a   (alpha)     3a   (beta ) ---     2a   (alpha)     1a   (beta )       -0.0562405099
     6a   (alpha)     4a   (beta ) ---     1a   (alpha)     1a   (beta )        0.0222408490
     6a   (alpha)     6a   (beta ) ---     1a   (alpha)     1a   (beta )       -0.0203197941
     6a   (alpha)     6a   (beta ) ---     2a   (alpha)     2a   (beta )       -0.0281368036
     7a   (alpha)     3a   (beta ) ---     1a   (alpha)     1a   (beta )        0.0380117694
     7a   (alpha)     3a   (beta ) ---     2a   (alpha)     2a   (beta )        0.0539105276
     7a   (alpha)     4a   (beta ) ---     1a   (alpha)     2a   (beta )       -0.0224461881
     7a   (alpha)     7a   (beta ) ---     1a   (alpha)     1a   (beta )       -0.0215218299
     8a   (alpha)     3a   (beta ) ---     1a   (alpha)     2a   (beta )       -0.0286952761
     8a   (alpha)     3a   (beta ) ---     2a   (alpha)     1a   (beta )       -0.0462436127
     8a   (alpha)     4a   (beta ) ---     1a   (alpha)     1a   (beta )        0.0328092779
     8a   (alpha)     4a   (beta ) ---     2a   (alpha)     2a   (beta )        0.0204589826
     8a   (alpha)     8a   (beta ) ---     1a   (alpha)     1a   (beta )       -0.0251918085
     9a   (alpha)     9a   (beta ) ---     1a   (alpha)     1a   (beta )       -0.0267671708
    10a   (alpha)    10a   (beta ) ---     1a   (alpha)     1a   (beta )       -0.0267671708
    11a   (alpha)    11a   (beta ) ---     2a   (alpha)     2a   (beta )       -0.0215207442
    12a   (alpha)    12a   (beta ) ---     2a   (alpha)     2a   (beta )       -0.0215207442
 Ground state specification:
 exp(T)|Ref>~(1+T)|Ref>
 ------- a(p)+/a(q) strings ----------

 singles norm

 doubles norm

 Reference string
  0.97844151292510573      :(1a)+ (2a)+ (1b)+ (2b)+ |0>

 Singles strings

 Doubles strings
 -0.20652410460968004      :(3a)+ (3b)+ (2b)  (2a)  (1a)+ (2a)+ (1b)+ (2b)+ |0>
 -------------------------------------
 enrep_tce =    1.7543859649122804     
  EHF(total)         =        -2.07636387
  Shift (HFtot-HFA)  =         0.00000000
 ALL OCCUPIED ORBITALS ARE ACTIVE IN DUCC --> NO SHIFT
 Number of active orbitals                    4
 Number of active alpha electrons                    2
 Number of active beta electrons                    2
  nos                     4
  nvs                   108
 noas                     2
 nobs                     2
 nvas                    54
 nvbs                    54
 nactv                     2
 DUCC MODEL =                     6
 NONHF =  T
 F-T1 correlation    =    3.6766765710843688E-009
 V-T1-T1 correlation =    9.9790978834074333E-005
 V-T2 correlation    =  -0.11050110848387255     
 Total correlation   =  -0.11040131382836191     
 F-T1(Ext) correlation         =   -1.0052970737023813E-008
 V-T1(Ext)-T1(Ext) correlation =    9.9433237503573471E-005
 V-T2(Ext) correlation         =   -7.3840358735062547E-002
 Total Ext correlation         =   -7.3740935550529713E-002
1-BODY TIME =   38.417 SECONDS.
  HHHH TIME =   37.785 SECONDS.
  PPPP TIME =    0.347 SECONDS.
  HHHP TIME =    2.143 SECONDS.
  PPPH TIME =    0.532 SECONDS.
  HPHP TIME =    1.808 SECONDS.
  HHPP TIME =    0.736 SECONDS.
 ONE-BODY UNITARY CHECK
 TWO-BODY UNITARY CHECK
                    1                    2                    2                    1  -4.5676518123372034E-012
                    1                    3                    2                    4   4.1650322080144520E-011
                    1                    3                    4                    2  -4.1650252691205480E-011
                    1                    4                    2                    3   5.5733903603361057E-011
                    1                    4                    4                    1  -6.0301985627120303E-011
                    2                    1                    1                    2   4.5676518123372034E-012
                    2                    3                    1                    4  -5.5733903603361057E-011
                    2                    3                    3                    2   6.0301985627120303E-011
                    2                    4                    1                    3  -4.1650322080144520E-011
                    2                    4                    3                    1   4.1650516369173829E-011
                    3                    1                    2                    4  -4.1650516369173829E-011
                    3                    1                    4                    2   4.1650446980234790E-011
                    3                    2                    2                    3  -6.0301985627120303E-011
                    3                    2                    4                    1   5.5735735471351688E-011
                    3                    4                    4                    3  -4.5676518123372034E-012
                    4                    1                    1                    4   6.0301985627120303E-011
                    4                    1                    3                    2  -5.5735735471351688E-011
                    4                    2                    1                    3   4.1650252691205480E-011
                    4                    2                    3                    1  -4.1650446980234790E-011
                    4                    3                    3                    4   4.5676518123372034E-012
 TWO-BODY ANTISYMMETRY CHECK
 TRANSFORMED ~FOCK~ MATRIX
    1    1        -0.5835165480
    1    3         0.0030191754
    2    2        -0.4453047706
    2    4        -0.0084000275
    3    1         0.0030191754
    3    3         0.0213911577
    4    2        -0.0084000275
    4    4         0.2039112687
 begin_one_electron_integrals
    1    1        -1.5314183960
    1    3         0.1276722706
    2    2        -1.3415840146
    2    4        -0.1344817909
    3    1         0.1276722706
    3    3        -1.1199443749
    4    2        -0.1344817909
    4    4        -0.8166179434
 end_one_electron_integrals
 begin_two_electron_integrals
    1    1    1    1        0.3913915071
    1    1    1    3       -0.0581751004
    1    2    1    2        0.1210109405
    1    2    1    4        0.0323713502
    1    3    1    1       -0.0581751004
    1    3    1    3        0.0805052051
    1    4    1    2        0.0323713502
    1    4    1    4        0.0482574618
    1    1    2    2        0.3397358177
    1    1    2    4        0.0636343637
    1    2    2    1        0.1229612946
    1    2    2    3        0.0619441701
    1    3    2    2       -0.0022669123
    1    3    2    4       -0.0480894315
    1    4    2    1        0.0320957033
    1    4    2    3       -0.0200840526
    1    1    3    1       -0.0581751004
    1    1    3    3        0.3291043397
    1    2    3    2        0.0644502622
    1    2    3    4       -0.0785028617
    1    3    3    1        0.0747639290
    1    3    3    3       -0.0130740830
    1    4    3    2       -0.0194753575
    1    4    3    4       -0.0119727271
    1    1    4    2        0.0636343637
    1    1    4    4        0.2826129521
    1    2    4    1        0.0320957033
    1    2    4    3       -0.0781266013
    1    3    4    2       -0.0454929335
    1    3    4    4       -0.0198926128
    1    4    4    1        0.0400095983
    1    4    4    3       -0.0125465295
    2    1    1    2        0.1229612946
    2    1    1    4        0.0320957033
    2    2    1    1        0.3397358177
    2    2    1    3       -0.0022669123
    2    3    1    2        0.0619441701
    2    3    1    4       -0.0200840526
    2    4    1    1        0.0636343637
    2    4    1    3       -0.0480894315
    2    1    2    1        0.1210109405
    2    1    2    3        0.0644502622
    2    2    2    2        0.3397689032
    2    2    2    4        0.0309087394
    2    3    2    1        0.0644502622
    2    3    2    3        0.0954295745
    2    4    2    2        0.0309087394
    2    4    2    4        0.0483938115
    2    1    3    2        0.0619441701
    2    1    3    4       -0.0781266013
    2    2    3    1       -0.0022669123
    2    2    3    3        0.3201468871
    2    3    3    2        0.0824029920
    2    3    3    4       -0.0463619807
    2    4    3    1       -0.0454929335
    2    4    3    3        0.0231758953
    2    1    4    1        0.0323713502
    2    1    4    3       -0.0785028617
    2    2    4    2        0.0309087394
    2    2    4    4        0.2699803534
    2    3    4    1       -0.0194753575
    2    3    4    3       -0.0434166150
    2    4    4    2        0.0446478006
    2    4    4    4        0.0219454941
    3    1    1    1       -0.0581751004
    3    1    1    3        0.0747639290
    3    2    1    2        0.0644502622
    3    2    1    4       -0.0194753575
    3    3    1    1        0.3291043397
    3    3    1    3       -0.0130740830
    3    4    1    2       -0.0785028617
    3    4    1    4       -0.0119727271
    3    1    2    2       -0.0022669123
    3    1    2    4       -0.0454929335
    3    2    2    1        0.0619441701
    3    2    2    3        0.0824029920
    3    3    2    2        0.3201468871
    3    3    2    4        0.0231758953
    3    4    2    1       -0.0781266013
    3    4    2    3       -0.0463619807
    3    1    3    1        0.0805052051
    3    1    3    3       -0.0130740830
    3    2    3    2        0.0954295745
    3    2    3    4       -0.0434166150
    3    3    3    1       -0.0130740830
    3    3    3    3        0.3024107969
    3    4    3    2       -0.0434166150
    3    4    3    4        0.0670438502
    3    1    4    2       -0.0480894315
    3    1    4    4       -0.0198926128
    3    2    4    1       -0.0200840526
    3    2    4    3       -0.0463619807
    3    3    4    2        0.0231758953
    3    3    4    4        0.2582300320
    3    4    4    1       -0.0125465295
    3    4    4    3        0.0672964167
    4    1    1    2        0.0320957033
    4    1    1    4        0.0400095983
    4    2    1    1        0.0636343637
    4    2    1    3       -0.0454929335
    4    3    1    2       -0.0781266013
    4    3    1    4       -0.0125465295
    4    4    1    1        0.2826129521
    4    4    1    3       -0.0198926128
    4    1    2    1        0.0323713502
    4    1    2    3       -0.0194753575
    4    2    2    2        0.0309087394
    4    2    2    4        0.0446478006
    4    3    2    1       -0.0785028617
    4    3    2    3       -0.0434166150
    4    4    2    2        0.2699803534
    4    4    2    4        0.0219454941
    4    1    3    2       -0.0200840526
    4    1    3    4       -0.0125465295
    4    2    3    1       -0.0480894315
    4    2    3    3        0.0231758953
    4    3    3    2       -0.0463619807
    4    3    3    4        0.0672964167
    4    4    3    1       -0.0198926128
    4    4    3    3        0.2582300320
    4    1    4    1        0.0482574618
    4    1    4    3       -0.0119727271
    4    2    4    2        0.0483938115
    4    2    4    4        0.0219454941
    4    3    4    1       -0.0119727271
    4    3    4    3        0.0670438502
    4    4    4    2        0.0219454941
    4    4    4    4        0.2450146951
 end_two_electron_integrals

 Parallel integral file used       7 records with       0 large values


 Task  times  cpu:      101.6s     wall:      103.2s


                                NWChem Input Module
                                -------------------


 Summary of allocated global arrays
-----------------------------------
  No active global arrays


MA_summarize_allocated_blocks: starting scan ...
MA_summarize_allocated_blocks: scan completed: 0 heap blocks, 0 stack blocks
MA usage statistics:

	allocation statistics:
					      heap	     stack
					      ----	     -----
	current number of blocks	         0	         0
	maximum number of blocks	        17	        42
	current total bytes		         0	         0
	maximum total bytes		  22559232	4101638264
	maximum total K-bytes		     22560	   4101639
	maximum total M-bytes		        23	      4102


                                     CITATION
                                     --------
                Please cite the following reference when publishing
                           results obtained with NWChem:

          E. Apra, E. J. Bylaska, W. A. de Jong, N. Govind, K. Kowalski,
       T. P. Straatsma, M. Valiev, H. J. J. van Dam, Y. Alexeev, J. Anchell,
       V. Anisimov, F. W. Aquino, R. Atta-Fynn, J. Autschbach, N. P. Bauman,
     J. C. Becca, D. E. Bernholdt, K. Bhaskaran-Nair, S. Bogatko, P. Borowski,
         J. Boschen, J. Brabec, A. Bruner, E. Cauet, Y. Chen, G. N. Chuev,
      C. J. Cramer, J. Daily, M. J. O. Deegan, T. H. Dunning Jr., M. Dupuis,
   K. G. Dyall, G. I. Fann, S. A. Fischer, A. Fonari, H. Fruchtl, L. Gagliardi,
      J. Garza, N. Gawande, S. Ghosh, K. Glaesemann, A. W. Gotz, J. Hammond,
       V. Helms, E. D. Hermes, K. Hirao, S. Hirata, M. Jacquelin, L. Jensen,
   B. G. Johnson, H. Jonsson, R. A. Kendall, M. Klemm, R. Kobayashi, V. Konkov,
      S. Krishnamoorthy, M. Krishnan, Z. Lin, R. D. Lins, R. J. Littlefield,
      A. J. Logsdail, K. Lopata, W. Ma, A. V. Marenich, J. Martin del Campo,
   D. Mejia-Rodriguez, J. E. Moore, J. M. Mullin, T. Nakajima, D. R. Nascimento,
    J. A. Nichols, P. J. Nichols, J. Nieplocha, A. Otero-de-la-Roza, B. Palmer,
    A. Panyala, T. Pirojsirikul, B. Peng, R. Peverati, J. Pittner, L. Pollack,
   R. M. Richard, P. Sadayappan, G. C. Schatz, W. A. Shelton, D. W. Silverstein,
   D. M. A. Smith, T. A. Soares, D. Song, M. Swart, H. L. Taylor, G. S. Thomas,
            V. Tipparaju, D. G. Truhlar, K. Tsemekhman, T. Van Voorhis,
      A. Vazquez-Mayagoitia, P. Verma, O. Villa, A. Vishnu, K. D. Vogiatzis,
        D. Wang, J. H. Weare, M. J. Williamson, T. L. Windus, K. Wolinski,
        A. T. Wong, Q. Wu, C. Yang, Q. Yu, M. Zacharias, Z. Zhang, Y. Zhao,
                                and R. J. Harrison
                        "NWChem: Past, present, and future
                         J. Chem. Phys. 152, 184102 (2020)
                               doi:10.1063/5.0004997

                                      AUTHORS
                                      -------
  E. Apra, E. J. Bylaska, N. Govind, K. Kowalski, M. Valiev, D. Mejia-Rodriguez,
       A. Kunitsa, N. P. Bauman, A. Panyala, W. A. de Jong, T. P. Straatsma,
        H. J. J. van Dam, D. Wang, T. L. Windus, J. Hammond, J. Autschbach,
    K. Bhaskaran-Nair, J. Brabec, K. Lopata, S. A. Fischer, S. Krishnamoorthy,
     M. Jacquelin, W. Ma, M. Klemm, O. Villa, Y. Chen, V. Anisimov, F. Aquino,
    S. Hirata, M. T. Hackler, Eric Hermes, L. Jensen, J. E. Moore, J. C. Becca,
      V. Konjkov, T. Risthaus, M. Malagoli, A. Marenich, A. Otero-de-la-Roza,
        J. Mullin, P. Nichols, R. Peverati, J. Pittner, Y. Zhao, P.-D. Fan,
        A. Fonari, M. J. Williamson, R. J. Harrison, J. R. Rehr, M. Dupuis,
     D. Silverstein, D. M. A. Smith, J. Nieplocha, V. Tipparaju, M. Krishnan,
     B. E. Van Kuiken, A. Vazquez-Mayagoitia, M. Swart, Q. Wu, T. Van Voorhis,
     A. A. Auer, M. Nooijen, L. D. Crosby, E. Brown, G. Cisneros, G. I. Fann,
   H. Fruchtl, J. Garza, K. Hirao, R. A. Kendall, J. A. Nichols, K. Tsemekhman,
    K. Wolinski, J. Anchell, D. E. Bernholdt, P. Borowski, T. Clark, D. Clerc,
   H. Dachsel, M. J. O. Deegan, K. Dyall, D. Elwood, E. Glendening, M. Gutowski,
   A. C. Hess, J. Jaffe, B. G. Johnson, J. Ju, R. Kobayashi, R. Kutteh, Z. Lin,
   R. Littlefield, X. Long, B. Meng, T. Nakajima, S. Niu, L. Pollack, M. Rosing,
   K. Glaesemann, G. Sandrone, M. Stave, H. Taylor, G. Thomas, J. H. van Lenthe,
                               A. T. Wong, Z. Zhang.

 Total times  cpu:      101.7s     wall:      103.2s
