 argument  1 = input.nw
  NWChem w/ OpenMP: maximum threads =    1



============================== echo of input deck ==============================

echo
start H4
title "H4"

memory total 12 gb

geometry units bohr
symmetry c1
H 0 0 0
H 0 0 2.72
H 0 0 5.44
H 0 0 8.16
end

basis spherical
  * library cc-pVTZ
end

scf
  vectors input H4.mos
  vectors output H4.mos
end

tce
  2eorb
  2emet 13
  ccsd
  maxiter 300
end

# set tce:print_integrals T
# set tce:qorb 4
# set tce:qela 2
# set tce:qelb 2

set tce:qducc T
set tce:nactv 2
set tce:nonhf T
set tce:ducc_model 6

set tce:printtol 0.02

task tce
================================================================================


                                         
                                         


             Northwest Computational Chemistry Package (NWChem) 7.0.1
             --------------------------------------------------------


                    Environmental Molecular Sciences Laboratory
                       Pacific Northwest National Laboratory
                                Richland, WA 99352

                              Copyright (c) 1994-2020
                       Pacific Northwest National Laboratory
                            Battelle Memorial Institute

             NWChem is an open-source computational chemistry package
                        distributed under the terms of the
                      Educational Community License (ECL) 2.0
             A copy of the license is included with this distribution
                              in the LICENSE.TXT file

                                  ACKNOWLEDGMENT
                                  --------------

            This software and its documentation were developed at the
            EMSL at Pacific Northwest National Laboratory, a multiprogram
            national laboratory, operated for the U.S. Department of Energy
            by Battelle under Contract Number DE-AC05-76RL01830. Support
            for this work was provided by the Department of Energy Office
            of Biological and Environmental Research, Office of Basic
            Energy Sciences, and the Office of Advanced Scientific Computing.


           Job information
           ---------------

    hostname        = WE46210
    program         = /home/baum612/code/nwchem/bin/LINUX64/nwchem
    date            = Fri Nov  1 12:27:00 2024

    compiled        = Wed_Sep_04_02:00:17_2024
    source          = /home/baum612/code/nwchem
    nwchem branch   = 7.0.0
    nwchem revision = nwchem_on_git-4191-g39d87d64de
    ga revision     = 5.8.1
    use scalapack   = F
    input           = input.nw
    prefix          = H4.
    data base       = ./H4.db
    status          = startup
    nproc           =        1
    time left       =     -1s



           Memory information
           ------------------

    heap     =  402653182 doubles =   3072.0 Mbytes
    stack    =  402653179 doubles =   3072.0 Mbytes
    global   =  805306368 doubles =   6144.0 Mbytes (distinct from heap & stack)
    total    = 1610612729 doubles =  12288.0 Mbytes
    verify   = yes
    hardfail = no 


           Directory information
           ---------------------

  0 permanent = .
  0 scratch   = .




                                NWChem Input Module
                                -------------------


                                        H4
                                        --
 Turning off AUTOSYM since
 SYMMETRY directive was detected!


          ------
          auto-z
          ------
     1 autoz failed with cvr_scaling = 1.2 changing to 1.3
     2 autoz failed with cvr_scaling = 1.3 changing to 1.4
     3 autoz failed with cvr_scaling = 1.4 changing to 1.5
     4 autoz failed with cvr_scaling = 1.5 changing to 1.6
     5 autoz failed with cvr_scaling = 1.6 changing to 1.7

 AUTOZ failed to generate good internal coordinates.
 Cartesian coordinates will be used in optimizations.



                             Geometry "geometry" -> ""
                             -------------------------

 Output coordinates in a.u. (scale by  1.000000000 to convert to a.u.)

  No.       Tag          Charge          X              Y              Z
 ---- ---------------- ---------- -------------- -------------- --------------
    1 H                    1.0000     0.00000000     0.00000000    -4.08000000
    2 H                    1.0000     0.00000000     0.00000000    -1.36000000
    3 H                    1.0000     0.00000000     0.00000000     1.36000000
    4 H                    1.0000     0.00000000     0.00000000     4.08000000

      Atomic Mass 
      ----------- 

      H                  1.007825


 Effective nuclear repulsion energy (a.u.)       1.5931372549

            Nuclear Dipole moment (a.u.) 
            ----------------------------
        X                 Y               Z
 ---------------- ---------------- ----------------
     0.0000000000     0.0000000000     0.0000000000


            XYZ format geometry
            -------------------
     4
 geometry
 H                     0.00000000     0.00000000    -2.15904318
 H                     0.00000000     0.00000000    -0.71968106
 H                     0.00000000     0.00000000     0.71968106
 H                     0.00000000     0.00000000     2.15904318



 Summary of "ao basis" -> "" (spherical)
 ------------------------------------------------------------------------------
       Tag                 Description            Shells   Functions and Types
 ---------------- ------------------------------  ------  ---------------------
 *                          cc-pVTZ                   on all atoms 


                      Basis "ao basis" -> "ao basis" (spherical)
                      -----
  H (Hydrogen)
  ------------
            Exponent  Coefficients 
       -------------- ---------------------------------------------------------
  1 S  3.38700000E+01  0.006068
  1 S  5.09500000E+00  0.045308
  1 S  1.15900000E+00  0.202822

  2 S  3.25800000E-01  1.000000

  3 S  1.02700000E-01  1.000000

  4 P  1.40700000E+00  1.000000

  5 P  3.88000000E-01  1.000000

  6 D  1.05700000E+00  1.000000



 Summary of "ao basis" -> "ao basis" (spherical)
 ------------------------------------------------------------------------------
       Tag                 Description            Shells   Functions and Types
 ---------------- ------------------------------  ------  ---------------------
 H                          cc-pVTZ                  6       14   3s2p1d


                                 NWChem SCF Module
                                 -----------------


                                        H4



  ao basis        = "ao basis"
  functions       =    56
  atoms           =     4
  closed shells   =     2
  open shells     =     0
  charge          =   0.00
  wavefunction    = RHF 
  input vectors   = ./H4.mos
  output vectors  = ./H4.mos
  use symmetry    = F
  symmetry adapt  = F


 Summary of "ao basis" -> "ao basis" (spherical)
 ------------------------------------------------------------------------------
       Tag                 Description            Shells   Functions and Types
 ---------------- ------------------------------  ------  ---------------------
 H                          cc-pVTZ                  6       14   3s2p1d



 Forming initial guess at       0.0s


 Loading old vectors from job with title :

H4


 Starting SCF solution at       0.0s



 ----------------------------------------------
         Quadratically convergent ROHF

 Convergence threshold     :          1.000E-04
 Maximum no. of iterations :           30
 Final Fock-matrix accuracy:          1.000E-07
 ----------------------------------------------


 Integral file          = ./H4.aoints.0
 Record size in doubles =  65536        No. of integs per rec  =  43688
 Max. records in memory =     43        Max. records in file   = 229908
 No. of bits per label  =      8        No. of bits per value  =     64


 #quartets = 3.758D+04 #integrals = 2.112D+05 #direct =  0.0% #cached =100.0%


              iter       energy          gnorm     gmax       time
             ----- ------------------- --------- --------- --------
                 1       -2.0294795341  5.02D-03  3.31D-03      0.1
                 2       -2.0294817706  7.89D-06  4.75D-06      0.1


       Final RHF  results 
       ------------------ 

         Total SCF energy =     -2.029481770552
      One-electron energy =     -5.402943356104
      Two-electron energy =      1.780324330650
 Nuclear repulsion energy =      1.593137254902

        Time for solution =      0.1s


             Final eigenvalues
             -----------------

              1      
    1   -0.5198
    2   -0.4013
    3   -0.0191
    4    0.1613
    5    0.3553
    6    0.4093
    7    0.4541
    8    0.5593
    9    0.6027
   10    0.6027
   11    0.7012
   12    0.7012

                       ROHF Final Molecular Orbital Analysis
                       -------------------------------------

 Vector    1  Occ=2.000000D+00  E=-5.198230D-01
              MO Center= -6.5D-17,  1.4D-16, -4.2D-12, r^2= 2.5D+00
   Bfn.  Coefficient  Atom+Function         Bfn.  Coefficient  Atom+Function  
  ----- ------------  ---------------      ----- ------------  ---------------
    16      0.222737  2 H  s                 30      0.222737  3 H  s          
     2      0.159104  1 H  s                 44      0.159104  4 H  s          
    17      0.154386  2 H  s                 31      0.154386  3 H  s          

 Vector    2  Occ=2.000000D+00  E=-4.013243D-01
              MO Center= -2.9D-16,  4.5D-16,  5.8D-12, r^2= 4.1D+00
   Bfn.  Coefficient  Atom+Function         Bfn.  Coefficient  Atom+Function  
  ----- ------------  ---------------      ----- ------------  ---------------
    17      0.223440  2 H  s                 31     -0.223440  3 H  s          
     2      0.222046  1 H  s                 44     -0.222046  4 H  s          
     3      0.211311  1 H  s                 45     -0.211311  4 H  s          
    16      0.167652  2 H  s                 30     -0.167652  3 H  s          

 Vector    3  Occ=0.000000D+00  E=-1.912585D-02
              MO Center=  4.1D-17, -4.8D-17, -4.4D-12, r^2= 5.2D+00
   Bfn.  Coefficient  Atom+Function         Bfn.  Coefficient  Atom+Function  
  ----- ------------  ---------------      ----- ------------  ---------------
     3      0.573718  1 H  s                 45      0.573718  4 H  s          
    17     -0.362568  2 H  s                 31     -0.362568  3 H  s          
     2      0.173655  1 H  s                 44      0.173655  4 H  s          

 Vector    4  Occ=0.000000D+00  E= 1.613334D-01
              MO Center= -3.8D-16,  3.8D-16,  2.1D-12, r^2= 6.4D+00
   Bfn.  Coefficient  Atom+Function         Bfn.  Coefficient  Atom+Function  
  ----- ------------  ---------------      ----- ------------  ---------------
    17      1.510833  2 H  s                 31     -1.510833  3 H  s          
     3     -1.080617  1 H  s                 45      1.080617  4 H  s          
    16      0.191497  2 H  s                 30     -0.191497  3 H  s          

 Vector    5  Occ=0.000000D+00  E= 3.552828D-01
              MO Center= -6.8D-17, -2.6D-16, -8.9D-12, r^2= 5.8D+00
   Bfn.  Coefficient  Atom+Function         Bfn.  Coefficient  Atom+Function  
  ----- ------------  ---------------      ----- ------------  ---------------
     2      0.714849  1 H  s                 44      0.714849  4 H  s          
     3     -0.704020  1 H  s                 45     -0.704020  4 H  s          
    16      0.622551  2 H  s                 30      0.622551  3 H  s          
    17     -0.499261  2 H  s                 31     -0.499261  3 H  s          

 Vector    6  Occ=0.000000D+00  E= 4.092606D-01
              MO Center= -9.8D-17, -4.7D-17, -3.8D-13, r^2= 7.5D+00
   Bfn.  Coefficient  Atom+Function         Bfn.  Coefficient  Atom+Function  
  ----- ------------  ---------------      ----- ------------  ---------------
     3      1.088793  1 H  s                 45     -1.088793  4 H  s          
     2     -0.973921  1 H  s                 44      0.973921  4 H  s          

 Vector    7  Occ=0.000000D+00  E= 4.540563D-01
              MO Center= -6.2D-17, -1.3D-16,  7.7D-12, r^2= 6.2D+00
   Bfn.  Coefficient  Atom+Function         Bfn.  Coefficient  Atom+Function  
  ----- ------------  ---------------      ----- ------------  ---------------
     3      1.191958  1 H  s                 45      1.191958  4 H  s          
    17     -1.144451  2 H  s                 31     -1.144451  3 H  s          
    16      0.763137  2 H  s                 30      0.763137  3 H  s          
     2     -0.615165  1 H  s                 44     -0.615165  4 H  s          
    23      0.168244  2 H  pz                37     -0.168244  3 H  pz         

 Vector    8  Occ=0.000000D+00  E= 5.592864D-01
              MO Center=  8.2D-16,  5.7D-16,  1.8D-12, r^2= 4.8D+00
   Bfn.  Coefficient  Atom+Function         Bfn.  Coefficient  Atom+Function  
  ----- ------------  ---------------      ----- ------------  ---------------
    17      3.282227  2 H  s                 31     -3.282227  3 H  s          
    16     -1.165831  2 H  s                 30      1.165831  3 H  s          
     3     -1.112038  1 H  s                 45      1.112038  4 H  s          

 Vector    9  Occ=0.000000D+00  E= 6.027374D-01
              MO Center=  2.4D-16,  6.5D-16, -5.5D-12, r^2= 2.4D+00
   Bfn.  Coefficient  Atom+Function         Bfn.  Coefficient  Atom+Function  
  ----- ------------  ---------------      ----- ------------  ---------------
    22      0.520860  2 H  py                36      0.520860  3 H  py         
     8      0.317619  1 H  py                50      0.317619  4 H  py         

 Vector   10  Occ=0.000000D+00  E= 6.027374D-01
              MO Center=  2.4D-16, -1.2D-16, -5.5D-12, r^2= 2.4D+00
   Bfn.  Coefficient  Atom+Function         Bfn.  Coefficient  Atom+Function  
  ----- ------------  ---------------      ----- ------------  ---------------
    21      0.520860  2 H  px                35      0.520860  3 H  px         
     7      0.317619  1 H  px                49      0.317619  4 H  px         

 Vector   11  Occ=0.000000D+00  E= 7.011751D-01
              MO Center=  1.6D-16, -2.5D-16,  2.3D-12, r^2= 4.4D+00
   Bfn.  Coefficient  Atom+Function         Bfn.  Coefficient  Atom+Function  
  ----- ------------  ---------------      ----- ------------  ---------------
     7      0.490466  1 H  px                49     -0.490466  4 H  px         
     8     -0.331874  1 H  py                50      0.331874  4 H  py         
    21      0.302976  2 H  px                35     -0.302976  3 H  px         
    22     -0.205009  2 H  py                36      0.205009  3 H  py         

 Vector   12  Occ=0.000000D+00  E= 7.011751D-01
              MO Center= -4.7D-16, -9.5D-16,  2.3D-12, r^2= 4.4D+00
   Bfn.  Coefficient  Atom+Function         Bfn.  Coefficient  Atom+Function  
  ----- ------------  ---------------      ----- ------------  ---------------
     8      0.490466  1 H  py                50     -0.490466  4 H  py         
     7      0.331874  1 H  px                49     -0.331874  4 H  px         
    22      0.302976  2 H  py                36     -0.302976  3 H  py         
    21      0.205009  2 H  px                35     -0.205009  3 H  px         


 center of mass
 --------------
 x =   0.00000000 y =   0.00000000 z =   0.00000000

 moments of inertia (a.u.)
 ------------------
          37.281462400000           0.000000000000           0.000000000000
           0.000000000000          37.281462400000           0.000000000000
           0.000000000000           0.000000000000           0.000000000000

  Mulliken analysis of the total density
  --------------------------------------

    Atom       Charge   Shell Charges
 -----------   ------   -------------------------------------------------------
    1 H    1     0.97   0.14  0.43  0.39  0.00  0.01  0.00
    2 H    1     1.03   0.15  0.45  0.41  0.00  0.02  0.00
    3 H    1     1.03   0.15  0.45  0.41  0.00  0.02  0.00
    4 H    1     0.97   0.14  0.43  0.39  0.00  0.01  0.00

       Multipole analysis of the density wrt the origin
       ------------------------------------------------

     L   x y z        total         open         nuclear
     -   - - -        -----         ----         -------
     0   0 0 0      0.000000      0.000000      4.000000

     1   1 0 0      0.000000      0.000000      0.000000
     1   0 1 0     -0.000000      0.000000      0.000000
     1   0 0 1     -0.000000      0.000000      0.000000

     2   2 0 0     -4.403376      0.000000      0.000000
     2   1 1 0      0.000000      0.000000      0.000000
     2   1 0 1      0.000000      0.000000      0.000000
     2   0 2 0     -4.403376      0.000000      0.000000
     2   0 1 1     -0.000000      0.000000      0.000000
     2   0 0 2     -1.645013      0.000000     36.992000


 Parallel integral file used       5 records with       0 large values

                   NWChem Extensible Many-Electron Theory Module
                   ---------------------------------------------

              ======================================================
                   This portion of the program was automatically
                  generated by a Tensor Contraction Engine (TCE).
                  The development of this portion of the program
                 and TCE was supported by US Department of Energy,
                Office of Science, Office of Basic Energy Science.
                      TCE is a product of Battelle and PNNL.
              Please cite: S.Hirata, J.Phys.Chem.A 107, 9887 (2003).
              ======================================================

                                        H4


            General Information
            -------------------
      Number of processors :     1
         Wavefunction type : Restricted Hartree-Fock
          No. of electrons :     4
           Alpha electrons :     2
            Beta electrons :     2
           No. of orbitals :   112
            Alpha orbitals :    56
             Beta orbitals :    56
        Alpha frozen cores :     0
         Beta frozen cores :     0
     Alpha frozen virtuals :     0
      Beta frozen virtuals :     0
         Spin multiplicity : singlet 
    Number of AO functions :    56
       Number of AO shells :    24
        Use of symmetry is : off
      Symmetry adaption is : off
         Schwarz screening : 0.10D-09

          Correlation Information
          -----------------------
          Calculation type : Coupled-cluster singles & doubles                           
   Perturbative correction : none                                                        
            Max iterations :      300
        Residual threshold : 0.10D-06
     T(0) DIIS level shift : 0.00D+00
     L(0) DIIS level shift : 0.00D+00
     T(1) DIIS level shift : 0.00D+00
     L(1) DIIS level shift : 0.00D+00
     T(R) DIIS level shift : 0.00D+00
     T(I) DIIS level shift : 0.00D+00
   CC-T/L Amplitude update :  5-th order DIIS
                I/O scheme : Global Array Library
        L-threshold :  0.10D-06
        EOM-threshold :  0.10D-06
 no EOMCCSD initial starts read in
 TCE RESTART OPTIONS
 READ_INT:   F
 WRITE_INT:  F
 READ_TA:    F
 WRITE_TA:   F
 READ_XA:    F
 WRITE_XA:   F
 READ_IN3:   F
 WRITE_IN3:  F
 SLICE:      F
 D4D5:       F
 quantumc:   F
 qrotation:  F
 pwtce:      F
 qducc:      T
 nacto:                         0
 nrotv:                         0
 nrot:                          0

            Memory Information
            ------------------
          Available GA space size is     805303232 doubles
          Available MA space size is     805304268 doubles

 Maximum block size        32 doubles

 tile_dim =     27

 Block   Spin    Irrep     Size     Offset   Alpha
 -------------------------------------------------
   1    alpha     a      2 doubles       0       1
   2    beta      a      2 doubles       2       1
   3    alpha     a     27 doubles       4       3
   4    alpha     a     27 doubles      31       4
   5    beta      a     27 doubles      58       3
   6    beta      a     27 doubles      85       4

 Global array virtual files algorithm will be used

 Parallel file system coherency ......... OK

 Integral file          = ./H4.aoints.0
 Record size in doubles =  65536        No. of integs per rec  =  43688
 Max. records in memory =     43        Max. records in file   = 229908
 No. of bits per label  =      8        No. of bits per value  =     64


 #quartets = 4.124D+04 #integrals = 2.453D+05 #direct =  0.0% #cached =100.0%


 Fock matrix recomputed
 1-e file size   =             3136
 1-e file name   = ./H4.f1
 Cpu & wall time / sec            0.0            0.1
 4-electron integrals stored in orbital form

 v2    file size   =          3442786
 4-index algorithm nr.  13 is used
 imaxsize =       30
 imaxsize ichop =        0
 Cpu & wall time / sec            1.3            1.3
 T1-number-of-tasks                    2

 t1 file size   =              108
 t1 file name   = ./H4.t1
 t1 file handle =       -998
 T2-number-of-boxes                    7

 t2 file size   =            20412
 t2 file name   = ./H4.t2
 t2 file handle =       -996
CCSD iterations
 ---------------------------------------------------------
 Iter          Residuum       Correlation     Cpu    Wall 
 ---------------------------------------------------------
NEW TASK SCHEDULING
CCSD_T1_NTS --- OK
CCSD_T2_NTS --- OK
    1   0.1237582754683  -0.0824142857496     0.1     0.1
    2   0.0578135759680  -0.1014261032048     0.1     0.1
    3   0.0320627958349  -0.1099108498733     0.1     0.1
    4   0.0191624493384  -0.1142438561565     0.1     0.1
    5   0.0120977234467  -0.1166649273481     0.1     0.1
 MICROCYCLE DIIS UPDATE:                    5                    5
    6   0.0037540570082  -0.1203068079742     0.1     0.1
    7   0.0024426785962  -0.1201941862773     0.1     0.1
    8   0.0017310433091  -0.1202062362112     0.1     0.1
    9   0.0013401769807  -0.1202146676269     0.1     0.1
   10   0.0010162454552  -0.1202355291554     0.1     0.1
 MICROCYCLE DIIS UPDATE:                   10                    5
   11   0.0002068799440  -0.1203111575016     0.1     0.1
   12   0.0000986392458  -0.1203346458742     0.1     0.1
   13   0.0000564224637  -0.1203474006189     0.1     0.1
   14   0.0000342046156  -0.1203542947432     0.1     0.1
   15   0.0000217269887  -0.1203583524446     0.1     0.1
 MICROCYCLE DIIS UPDATE:                   15                    5
   16   0.0000071979946  -0.1203645798945     0.1     0.1
   17   0.0000049962675  -0.1203644558017     0.1     0.1
   18   0.0000034603787  -0.1203644709354     0.1     0.1
   19   0.0000027011439  -0.1203644874454     0.1     0.1
   20   0.0000020349479  -0.1203645331946     0.1     0.1
 MICROCYCLE DIIS UPDATE:                   20                    5
   21   0.0000003922979  -0.1203647012650     0.1     0.1
   22   0.0000001803373  -0.1203647436937     0.1     0.1
   23   0.0000001012446  -0.1203647665351     0.1     0.1
   24   0.0000000608324  -0.1203647790299     0.1     0.1
 -----------------------------------------------------------------
 Iterations converged
 CCSD correlation energy / hartree =        -0.120364779029864
 CCSD total energy / hartree       =        -2.149846549581527

 Singles contributions
     5a   (alpha) ---     1a   (alpha)        0.0230493975
     6a   (alpha) ---     2a   (alpha)       -0.0337204020

 Doubles contributions
     3a   (alpha)     4a   (alpha) ---     1a   (alpha)     2a   (alpha)        0.0418203513
     3a   (alpha)     4a   (alpha) ---     2a   (alpha)     1a   (alpha)       -0.0418203513
     4a   (alpha)     3a   (alpha) ---     1a   (alpha)     2a   (alpha)       -0.0418203513
     4a   (alpha)     3a   (alpha) ---     2a   (alpha)     1a   (alpha)        0.0418203513
     3a   (alpha)     3a   (beta ) ---     1a   (alpha)     1a   (beta )       -0.0895243345
     3a   (alpha)     3a   (beta ) ---     2a   (alpha)     2a   (beta )       -0.2535990832
     3a   (alpha)     4a   (beta ) ---     1a   (alpha)     2a   (beta )        0.1077090119
     3a   (alpha)     4a   (beta ) ---     2a   (alpha)     1a   (beta )        0.0658886606
     3a   (alpha)     5a   (beta ) ---     2a   (alpha)     2a   (beta )       -0.0399343173
     3a   (alpha)     6a   (beta ) ---     1a   (alpha)     2a   (beta )        0.0592073978
     3a   (alpha)     6a   (beta ) ---     2a   (alpha)     1a   (beta )        0.0482256197
     3a   (alpha)     7a   (beta ) ---     1a   (alpha)     1a   (beta )        0.0386309511
     3a   (alpha)     7a   (beta ) ---     2a   (alpha)     2a   (beta )        0.0570668732
     3a   (alpha)     8a   (beta ) ---     1a   (alpha)     2a   (beta )       -0.0445606609
     3a   (alpha)     8a   (beta ) ---     2a   (alpha)     1a   (beta )       -0.0284303212
     4a   (alpha)     3a   (beta ) ---     1a   (alpha)     2a   (beta )        0.0658886606
     4a   (alpha)     3a   (beta ) ---     2a   (alpha)     1a   (beta )        0.1077090119
     4a   (alpha)     4a   (beta ) ---     1a   (alpha)     1a   (beta )       -0.0764118168
     4a   (alpha)     4a   (beta ) ---     2a   (alpha)     2a   (beta )       -0.0558125279
     4a   (alpha)     6a   (beta ) ---     1a   (alpha)     1a   (beta )       -0.0289844782
     4a   (alpha)     7a   (beta ) ---     2a   (alpha)     1a   (beta )       -0.0285630829
     4a   (alpha)     8a   (beta ) ---     1a   (alpha)     1a   (beta )        0.0368675327
     5a   (alpha)     3a   (beta ) ---     2a   (alpha)     2a   (beta )       -0.0399343173
     6a   (alpha)     3a   (beta ) ---     1a   (alpha)     2a   (beta )        0.0482256197
     6a   (alpha)     3a   (beta ) ---     2a   (alpha)     1a   (beta )        0.0592073978
     6a   (alpha)     4a   (beta ) ---     1a   (alpha)     1a   (beta )       -0.0289844782
     6a   (alpha)     6a   (beta ) ---     1a   (alpha)     1a   (beta )       -0.0200849648
     6a   (alpha)     6a   (beta ) ---     2a   (alpha)     2a   (beta )       -0.0265728245
     7a   (alpha)     3a   (beta ) ---     1a   (alpha)     1a   (beta )        0.0386309511
     7a   (alpha)     3a   (beta ) ---     2a   (alpha)     2a   (beta )        0.0570668732
     7a   (alpha)     4a   (beta ) ---     1a   (alpha)     2a   (beta )       -0.0285630829
     8a   (alpha)     3a   (beta ) ---     1a   (alpha)     2a   (beta )       -0.0284303212
     8a   (alpha)     3a   (beta ) ---     2a   (alpha)     1a   (beta )       -0.0445606609
     8a   (alpha)     4a   (beta ) ---     1a   (alpha)     1a   (beta )        0.0368675327
     8a   (alpha)     8a   (beta ) ---     1a   (alpha)     1a   (beta )       -0.0214882511
     9a   (alpha)     9a   (beta ) ---     1a   (alpha)     1a   (beta )       -0.0248378648
    10a   (alpha)    10a   (beta ) ---     1a   (alpha)     1a   (beta )       -0.0248378648
 Ground state specification:
 exp(T)|Ref>~(1+T)|Ref>
 ------- a(p)+/a(q) strings ----------

 singles norm

 doubles norm

 Reference string
  0.95892000850841685      :(1a)+ (2a)+ (1b)+ (2b)+ |0>

 Singles strings

 Doubles strings
 -0.24318123497604660      :(3a)+ (3b)+ (2b)  (2a)  (1a)+ (2a)+ (1b)+ (2b)+ |0>
  0.10328432658865153      :(3a)+ (4b)+ (2b)  (1a)  (1a)+ (2a)+ (1b)+ (2b)+ |0>
  0.10328432658865147      :(4a)+ (3b)+ (1b)  (2a)  (1a)+ (2a)+ (1b)+ (2b)+ |0>
 -------------------------------------
 enrep_tce =    1.5931372549019605     
  EHF(total)         =        -2.02948177
  Shift (HFtot-HFA)  =         0.00000000
 ALL OCCUPIED ORBITALS ARE ACTIVE IN DUCC --> NO SHIFT
 Number of active orbitals                    4
 Number of active alpha electrons                    2
 Number of active beta electrons                    2
  nos                     4
  nvs                   108
 noas                     2
 nobs                     2
 nvas                    54
 nvbs                    54
 nactv                     2
 DUCC MODEL =                     6
 NONHF =  T
 F-T1 correlation    =    9.0597828513490646E-009
 V-T1-T1 correlation =    1.5674621088747454E-004
 V-T2 correlation    =  -0.12052153430408517     
 Total correlation   =  -0.12036477903341485     
 F-T1(Ext) correlation         =   -1.7015564618310363E-008
 V-T1(Ext)-T1(Ext) correlation =    1.5805766128858918E-004
 V-T2(Ext) correlation         =   -6.8469875260260465E-002
 Total Ext correlation         =   -6.8311834614536493E-002
1-BODY TIME =   44.430 SECONDS.
  HHHH TIME =   41.727 SECONDS.
  PPPP TIME =    0.366 SECONDS.
  HHHP TIME =    1.967 SECONDS.
  PPPH TIME =    0.522 SECONDS.
  HPHP TIME =    1.828 SECONDS.
  HHPP TIME =    0.721 SECONDS.
 ONE-BODY UNITARY CHECK
 TWO-BODY UNITARY CHECK
                    1                    2                    2                    1  -4.6083414861897154E-012
                    1                    3                    2                    4   5.3870116700771575E-011
                    1                    3                    4                    2  -5.3870005678469113E-011
                    1                    4                    2                    3   7.7266151810029271E-011
                    1                    4                    4                    1  -8.1874174107099407E-011
                    2                    1                    1                    2   4.6083414861897154E-012
                    2                    3                    1                    4  -7.7266151810029271E-011
                    2                    3                    3                    2   8.1874174107099407E-011
                    2                    4                    1                    3  -5.3870116700771575E-011
                    2                    4                    3                    1   5.3870158334134999E-011
                    3                    1                    2                    4  -5.3870158334134999E-011
                    3                    1                    4                    2   5.3870047311832536E-011
                    3                    2                    2                    3  -8.1874174107099407E-011
                    3                    2                    4                    1   7.7265846498697499E-011
                    3                    4                    4                    3  -4.6083414861897154E-012
                    4                    1                    1                    4   8.1874174107099407E-011
                    4                    1                    3                    2  -7.7265846498697499E-011
                    4                    2                    1                    3   5.3870005678469113E-011
                    4                    2                    3                    1  -5.3870047311832536E-011
                    4                    3                    3                    4   4.6083414861897154E-012
 TWO-BODY ANTISYMMETRY CHECK
 TRANSFORMED ~FOCK~ MATRIX
    1    1        -0.5467729684
    1    3         0.0028084318
    2    2        -0.4304194281
    2    4        -0.0062759905
    3    1         0.0028084318
    3    3        -0.0030413560
    4    2        -0.0062759905
    4    4         0.1718481245
 begin_one_electron_integrals
    1    1        -1.4346084195
    1    3         0.1178628165
    2    2        -1.2748120973
    2    4        -0.1191875744
    3    1         0.1178628165
    3    3        -1.0990526760
    4    2        -0.1191875744
    4    4        -0.8837996941
 end_one_electron_integrals
 begin_two_electron_integrals
    1    1    1    1        0.3667728977
    1    1    1    3       -0.0542093454
    1    2    1    2        0.1200959475
    1    2    1    4        0.0287186537
    1    3    1    1       -0.0542093454
    1    3    1    3        0.0809625762
    1    4    1    2        0.0287186537
    1    4    1    4        0.0575974144
    1    1    2    2        0.3213103293
    1    1    2    4        0.0595471164
    1    2    2    1        0.1215581053
    1    2    2    3        0.0613346653
    1    3    2    2        0.0002448130
    1    3    2    4       -0.0587868537
    1    4    2    1        0.0288406208
    1    4    2    3       -0.0300296445
    1    1    3    1       -0.0542093454
    1    1    3    3        0.3182259038
    1    2    3    2        0.0628148266
    1    2    3    4       -0.0913002750
    1    3    3    1        0.0778728567
    1    3    3    3       -0.0117484833
    1    4    3    2       -0.0293501334
    1    4    3    4       -0.0145400998
    1    1    4    2        0.0595471164
    1    1    4    4        0.2993519638
    1    2    4    1        0.0288406208
    1    2    4    3       -0.0911681384
    1    3    4    2       -0.0560221365
    1    3    4    4       -0.0286179575
    1    4    4    1        0.0499952919
    1    4    4    3       -0.0152314713
    2    1    1    2        0.1215581052
    2    1    1    4        0.0288406208
    2    2    1    1        0.3213103294
    2    2    1    3        0.0002448130
    2    3    1    2        0.0613346653
    2    3    1    4       -0.0300296445
    2    4    1    1        0.0595471164
    2    4    1    3       -0.0587868537
    2    1    2    1        0.1200959474
    2    1    2    3        0.0628148266
    2    2    2    2        0.3233301159
    2    2    2    4        0.0226579718
    2    3    2    1        0.0628148266
    2    3    2    3        0.0948430441
    2    4    2    2        0.0226579718
    2    4    2    4        0.0569422811
    2    1    3    2        0.0613346653
    2    1    3    4       -0.0911681384
    2    2    3    1        0.0002448130
    2    2    3    3        0.3107467162
    2    3    3    2        0.0840610633
    2    3    3    4       -0.0516117101
    2    4    3    1       -0.0560221365
    2    4    3    3        0.0171979850
    2    1    4    1        0.0287186537
    2    1    4    3       -0.0913002750
    2    2    4    2        0.0226579718
    2    2    4    4        0.2812218539
    2    3    4    1       -0.0293501334
    2    3    4    3       -0.0489317862
    2    4    4    2        0.0555045248
    2    4    4    4        0.0313781387
    3    1    1    1       -0.0542093454
    3    1    1    3        0.0778728567
    3    2    1    2        0.0628148266
    3    2    1    4       -0.0293501334
    3    3    1    1        0.3182259038
    3    3    1    3       -0.0117484833
    3    4    1    2       -0.0913002750
    3    4    1    4       -0.0145400998
    3    1    2    2        0.0002448130
    3    1    2    4       -0.0560221365
    3    2    2    1        0.0613346653
    3    2    2    3        0.0840610633
    3    3    2    2        0.3107467162
    3    3    2    4        0.0171979850
    3    4    2    1       -0.0911681384
    3    4    2    3       -0.0516117101
    3    1    3    1        0.0809625762
    3    1    3    3       -0.0117484833
    3    2    3    2        0.0948430441
    3    2    3    4       -0.0489317862
    3    3    3    1       -0.0117484833
    3    3    3    3        0.2970286377
    3    4    3    2       -0.0489317862
    3    4    3    4        0.0778469883
    3    1    4    2       -0.0587868537
    3    1    4    4       -0.0286179575
    3    2    4    1       -0.0300296445
    3    2    4    3       -0.0516117101
    3    3    4    2        0.0171979850
    3    3    4    4        0.2684129905
    3    4    4    1       -0.0152314713
    3    4    4    3        0.0781474985
    4    1    1    2        0.0288406208
    4    1    1    4        0.0499952919
    4    2    1    1        0.0595471164
    4    2    1    3       -0.0560221365
    4    3    1    2       -0.0911681384
    4    3    1    4       -0.0152314713
    4    4    1    1        0.2993519638
    4    4    1    3       -0.0286179575
    4    1    2    1        0.0287186537
    4    1    2    3       -0.0293501334
    4    2    2    2        0.0226579718
    4    2    2    4        0.0555045248
    4    3    2    1       -0.0913002750
    4    3    2    3       -0.0489317862
    4    4    2    2        0.2812218539
    4    4    2    4        0.0313781387
    4    1    3    2       -0.0300296445
    4    1    3    4       -0.0152314713
    4    2    3    1       -0.0587868537
    4    2    3    3        0.0171979850
    4    3    3    2       -0.0516117101
    4    3    3    4        0.0781474985
    4    4    3    1       -0.0286179575
    4    4    3    3        0.2684129905
    4    1    4    1        0.0575974144
    4    1    4    3       -0.0145400998
    4    2    4    2        0.0569422811
    4    2    4    4        0.0313781387
    4    3    4    1       -0.0145400998
    4    3    4    3        0.0778469883
    4    4    4    2        0.0313781387
    4    4    4    4        0.2632225402
 end_two_electron_integrals

 Parallel integral file used       6 records with       0 large values


 Task  times  cpu:      110.8s     wall:      112.1s


                                NWChem Input Module
                                -------------------


 Summary of allocated global arrays
-----------------------------------
  No active global arrays


MA_summarize_allocated_blocks: starting scan ...
MA_summarize_allocated_blocks: scan completed: 0 heap blocks, 0 stack blocks
MA usage statistics:

	allocation statistics:
					      heap	     stack
					      ----	     -----
	current number of blocks	         0	         0
	maximum number of blocks	        17	        42
	current total bytes		         0	         0
	maximum total bytes		  22559232	4101638264
	maximum total K-bytes		     22560	   4101639
	maximum total M-bytes		        23	      4102


                                     CITATION
                                     --------
                Please cite the following reference when publishing
                           results obtained with NWChem:

          E. Apra, E. J. Bylaska, W. A. de Jong, N. Govind, K. Kowalski,
       T. P. Straatsma, M. Valiev, H. J. J. van Dam, Y. Alexeev, J. Anchell,
       V. Anisimov, F. W. Aquino, R. Atta-Fynn, J. Autschbach, N. P. Bauman,
     J. C. Becca, D. E. Bernholdt, K. Bhaskaran-Nair, S. Bogatko, P. Borowski,
         J. Boschen, J. Brabec, A. Bruner, E. Cauet, Y. Chen, G. N. Chuev,
      C. J. Cramer, J. Daily, M. J. O. Deegan, T. H. Dunning Jr., M. Dupuis,
   K. G. Dyall, G. I. Fann, S. A. Fischer, A. Fonari, H. Fruchtl, L. Gagliardi,
      J. Garza, N. Gawande, S. Ghosh, K. Glaesemann, A. W. Gotz, J. Hammond,
       V. Helms, E. D. Hermes, K. Hirao, S. Hirata, M. Jacquelin, L. Jensen,
   B. G. Johnson, H. Jonsson, R. A. Kendall, M. Klemm, R. Kobayashi, V. Konkov,
      S. Krishnamoorthy, M. Krishnan, Z. Lin, R. D. Lins, R. J. Littlefield,
      A. J. Logsdail, K. Lopata, W. Ma, A. V. Marenich, J. Martin del Campo,
   D. Mejia-Rodriguez, J. E. Moore, J. M. Mullin, T. Nakajima, D. R. Nascimento,
    J. A. Nichols, P. J. Nichols, J. Nieplocha, A. Otero-de-la-Roza, B. Palmer,
    A. Panyala, T. Pirojsirikul, B. Peng, R. Peverati, J. Pittner, L. Pollack,
   R. M. Richard, P. Sadayappan, G. C. Schatz, W. A. Shelton, D. W. Silverstein,
   D. M. A. Smith, T. A. Soares, D. Song, M. Swart, H. L. Taylor, G. S. Thomas,
            V. Tipparaju, D. G. Truhlar, K. Tsemekhman, T. Van Voorhis,
      A. Vazquez-Mayagoitia, P. Verma, O. Villa, A. Vishnu, K. D. Vogiatzis,
        D. Wang, J. H. Weare, M. J. Williamson, T. L. Windus, K. Wolinski,
        A. T. Wong, Q. Wu, C. Yang, Q. Yu, M. Zacharias, Z. Zhang, Y. Zhao,
                                and R. J. Harrison
                        "NWChem: Past, present, and future
                         J. Chem. Phys. 152, 184102 (2020)
                               doi:10.1063/5.0004997

                                      AUTHORS
                                      -------
  E. Apra, E. J. Bylaska, N. Govind, K. Kowalski, M. Valiev, D. Mejia-Rodriguez,
       A. Kunitsa, N. P. Bauman, A. Panyala, W. A. de Jong, T. P. Straatsma,
        H. J. J. van Dam, D. Wang, T. L. Windus, J. Hammond, J. Autschbach,
    K. Bhaskaran-Nair, J. Brabec, K. Lopata, S. A. Fischer, S. Krishnamoorthy,
     M. Jacquelin, W. Ma, M. Klemm, O. Villa, Y. Chen, V. Anisimov, F. Aquino,
    S. Hirata, M. T. Hackler, Eric Hermes, L. Jensen, J. E. Moore, J. C. Becca,
      V. Konjkov, T. Risthaus, M. Malagoli, A. Marenich, A. Otero-de-la-Roza,
        J. Mullin, P. Nichols, R. Peverati, J. Pittner, Y. Zhao, P.-D. Fan,
        A. Fonari, M. J. Williamson, R. J. Harrison, J. R. Rehr, M. Dupuis,
     D. Silverstein, D. M. A. Smith, J. Nieplocha, V. Tipparaju, M. Krishnan,
     B. E. Van Kuiken, A. Vazquez-Mayagoitia, M. Swart, Q. Wu, T. Van Voorhis,
     A. A. Auer, M. Nooijen, L. D. Crosby, E. Brown, G. Cisneros, G. I. Fann,
   H. Fruchtl, J. Garza, K. Hirao, R. A. Kendall, J. A. Nichols, K. Tsemekhman,
    K. Wolinski, J. Anchell, D. E. Bernholdt, P. Borowski, T. Clark, D. Clerc,
   H. Dachsel, M. J. O. Deegan, K. Dyall, D. Elwood, E. Glendening, M. Gutowski,
   A. C. Hess, J. Jaffe, B. G. Johnson, J. Ju, R. Kobayashi, R. Kutteh, Z. Lin,
   R. Littlefield, X. Long, B. Meng, T. Nakajima, S. Niu, L. Pollack, M. Rosing,
   K. Glaesemann, G. Sandrone, M. Stave, H. Taylor, G. Thomas, J. H. van Lenthe,
                               A. T. Wong, Z. Zhang.

 Total times  cpu:      110.8s     wall:      112.1s
