 argument  1 = input.nw
  NWChem w/ OpenMP: maximum threads =    1



============================== echo of input deck ==============================
 echo
 start H2O
 title "H2O"

 memory total 24 gb

 geometry units bohr
 symmetry c1
        O  0.00000000  0.00000000  0.00000000
        H  0.00000000  1.806581  0.00000000
        H  1.72558000 -0.64860000  0.00000000
 end

 basis spherical
   * library cc-pVTZ
 end

 mcscf
   active  8
   actelec 10
   multiplicity 1
   maxiter 40
   vectors input h2o.mos
   vectors output h2o.mos
 end

 task mcscf

 scf
   vectors input h2o.mos
   vectors output h2o-trash.mos
   noscf
 end

 tce
   2eorb
   2emet 13
   ccsd
 end

# set tce:print_integrals T
# set tce:qorb 8
# set tce:qela 5
# set tce:qelb 5

 set tce:qducc T
 set tce:nactv 3
 set tce:nonhf T
 set tce:ducc_model 6

 set tce:printtol 0.02

 task tce
================================================================================


                                         
                                         


             Northwest Computational Chemistry Package (NWChem) 7.0.1
             --------------------------------------------------------


                    Environmental Molecular Sciences Laboratory
                       Pacific Northwest National Laboratory
                                Richland, WA 99352

                              Copyright (c) 1994-2020
                       Pacific Northwest National Laboratory
                            Battelle Memorial Institute

             NWChem is an open-source computational chemistry package
                        distributed under the terms of the
                      Educational Community License (ECL) 2.0
             A copy of the license is included with this distribution
                              in the LICENSE.TXT file

                                  ACKNOWLEDGMENT
                                  --------------

            This software and its documentation were developed at the
            EMSL at Pacific Northwest National Laboratory, a multiprogram
            national laboratory, operated for the U.S. Department of Energy
            by Battelle under Contract Number DE-AC05-76RL01830. Support
            for this work was provided by the Department of Energy Office
            of Biological and Environmental Research, Office of Basic
            Energy Sciences, and the Office of Advanced Scientific Computing.


           Job information
           ---------------

    hostname        = WE46210
    program         = /home/baum612/code/nwchem/bin/LINUX64/nwchem
    date            = Mon Nov  6 21:07:07 2023

    compiled        = Mon_Nov_06_10:06:57_2023
    source          = /home/baum612/code/nwchem
    nwchem branch   = 7.0.0
    nwchem revision = nwchem_on_git-4191-g39d87d64de
    ga revision     = 5.8.1
    use scalapack   = F
    input           = input.nw
    prefix          = H2O.
    data base       = ./H2O.db
    status          = startup
    nproc           =        1
    time left       =     -1s



           Memory information
           ------------------

    heap     =  805306362 doubles =   6144.0 Mbytes
    stack    =  805306367 doubles =   6144.0 Mbytes
    global   = 1610612736 doubles =  12288.0 Mbytes (distinct from heap & stack)
    total    = 3221225465 doubles =  24576.0 Mbytes
    verify   = yes
    hardfail = no 


           Directory information
           ---------------------

  0 permanent = .
  0 scratch   = .




                                NWChem Input Module
                                -------------------


                                        H2O
                                        ---
 Turning off AUTOSYM since
 SYMMETRY directive was detected!


          ------
          auto-z
          ------
  no constraints, skipping    0.0000000000000000     
  no constraints, skipping    0.0000000000000000     


                             Geometry "geometry" -> ""
                             -------------------------

 Output coordinates in a.u. (scale by  1.000000000 to convert to a.u.)

  No.       Tag          Charge          X              Y              Z
 ---- ---------------- ---------- -------------- -------------- --------------
    1 O                    8.0000    -0.17255800    -0.11579810     0.00000000
    2 H                    1.0000    -0.17255800     1.69078290     0.00000000
    3 H                    1.0000     1.55302200    -0.76439810     0.00000000

      Atomic Mass 
      ----------- 

      O                 15.994910
      H                  1.007825


 Effective nuclear repulsion energy (a.u.)       9.1011739597

            Nuclear Dipole moment (a.u.) 
            ----------------------------
        X                 Y               Z
 ---------------- ---------------- ----------------
    -0.0000000000     0.0000000000     0.0000000000



                                Z-matrix (autoz)
                                -------- 

 Units are Angstrom for bonds and degrees for angles

      Type          Name      I     J     K     L     M      Value
      ----------- --------  ----- ----- ----- ----- ----- ----------
    1 Stretch                  1     2                       0.95600
    2 Stretch                  1     3                       0.97551
    3 Bend                     2     1     3               110.59992


            XYZ format geometry
            -------------------
     3
 geometry
 O                    -0.09131377    -0.06127772     0.00000000
 H                    -0.09131377     0.89472384     0.00000000
 H                     0.82182391    -0.40450208     0.00000000

 ==============================================================================
                                internuclear distances
 ------------------------------------------------------------------------------
       center one      |      center two      | atomic units |       a.u.
 ------------------------------------------------------------------------------
    2 H                |   1 O                |     1.80658  |     1.80658
    3 H                |   1 O                |     1.84345  |     1.84345
 ------------------------------------------------------------------------------
                         number of included internuclear distances:          2
 ==============================================================================



 ==============================================================================
                                 internuclear angles
 ------------------------------------------------------------------------------
        center 1       |       center 2       |       center 3       |  degrees
 ------------------------------------------------------------------------------
    2 H                |   1 O                |   3 H                |   110.60
 ------------------------------------------------------------------------------
                            number of included internuclear angles:          1
 ==============================================================================





 Summary of "ao basis" -> "" (spherical)
 ------------------------------------------------------------------------------
       Tag                 Description            Shells   Functions and Types
 ---------------- ------------------------------  ------  ---------------------
 *                          cc-pVTZ                   on all atoms 


                      Basis "ao basis" -> "ao basis" (spherical)
                      -----
  O (Oxygen)
  ----------
            Exponent  Coefficients 
       -------------- ---------------------------------------------------------
  1 S  1.53300000E+04  0.000508
  1 S  2.29900000E+03  0.003929
  1 S  5.22400000E+02  0.020243
  1 S  1.47300000E+02  0.079181
  1 S  4.75500000E+01  0.230687
  1 S  1.67600000E+01  0.433118
  1 S  6.20700000E+00  0.350260
  1 S  6.88200000E-01 -0.008154

  2 S  1.53300000E+04 -0.000115
  2 S  2.29900000E+03 -0.000895
  2 S  5.22400000E+02 -0.004636
  2 S  1.47300000E+02 -0.018724
  2 S  4.75500000E+01 -0.058463
  2 S  1.67600000E+01 -0.136463
  2 S  6.20700000E+00 -0.175740
  2 S  6.88200000E-01  0.603418

  3 S  1.75200000E+00  1.000000

  4 S  2.38400000E-01  1.000000

  5 P  3.44600000E+01  0.015928
  5 P  7.74900000E+00  0.099740
  5 P  2.28000000E+00  0.310492

  6 P  7.15600000E-01  1.000000

  7 P  2.14000000E-01  1.000000

  8 D  2.31400000E+00  1.000000

  9 D  6.45000000E-01  1.000000

 10 F  1.42800000E+00  1.000000

  H (Hydrogen)
  ------------
            Exponent  Coefficients 
       -------------- ---------------------------------------------------------
  1 S  3.38700000E+01  0.006068
  1 S  5.09500000E+00  0.045308
  1 S  1.15900000E+00  0.202822

  2 S  3.25800000E-01  1.000000

  3 S  1.02700000E-01  1.000000

  4 P  1.40700000E+00  1.000000

  5 P  3.88000000E-01  1.000000

  6 D  1.05700000E+00  1.000000



 Summary of "ao basis" -> "ao basis" (spherical)
 ------------------------------------------------------------------------------
       Tag                 Description            Shells   Functions and Types
 ---------------- ------------------------------  ------  ---------------------
 O                          cc-pVTZ                 10       30   4s3p2d1f
 H                          cc-pVTZ                  6       14   3s2p1d



                            NWChem Direct MCSCF Module
                            --------------------------


                                        H2O


     -----------------------------------
       Basis functions:             58
       Inactive shells:              0
       Active shells:                8
       Active electrons:            10
       Symmetry:                    a       
       Multiplicity:                 1
       Orbital rotations:          400
     -----------------------------------

     -----------------------------------
       E2 extrapolation:             F
       Conjugacy:                    T
       Micro CI relax:               T
       Canonical orbitals:           T
       Maximum iterations:          40
       Converge threshold:    1.00E-04
       Conjugacy resets:            20
       Initial levelshift:        0.10
     -----------------------------------

 Loading old vectors from job with title :

H2O


   input molecular orbitals = ./h2o.mos
  output molecular orbtials = ./h2o.mos

       No. of determinants:          3136


  Starting Orbital Energies
   -20.543698    -1.344075    -0.738912    -0.583191    -0.523795    -0.025773
    -0.024842    -0.016043     0.292433     0.334995     0.611448     0.658354
     0.811176     0.844316     0.973545     1.120994     1.170446     1.381013
     1.401217     1.994760     2.058970     2.069443     2.132971     2.204467
     2.603118     2.874858     3.374018     3.506866     3.523364     3.555131
     3.594236     3.868978     3.878096     3.933889     3.997638     4.050496
     4.107654     4.329013     4.409518     4.436979     4.623951     4.835604
     5.044730     5.244749     5.529641     5.979056     6.408086     6.895519
     6.925581     6.964860     6.983835     7.099605     7.139766     7.180795
     7.488430     7.714388     8.180967    12.691312

  Orbital Symmetry Irreps
a    a    a    a    a    a    a    a    a    a    a    a    a    a    a   
a    a    a    a    a    a    a    a    a    a    a    a    a    a    a   
a    a    a    a    a    a    a    a    a    a    a    a    a    a    a   
a    a    a    a    a    a    a    a    a    a    a    a    a   

 Integral file          = ./H2O.aoints.0
 Record size in doubles =  65536        No. of integs per rec  =  43688
 Max. records in memory =     49        Max. records in file   = 280287
 No. of bits per label  =      8        No. of bits per value  =     64


 #quartets = 3.213D+04 #integrals = 6.608D+05 #direct =  0.0% #cached =100.0%




          %%%%% MacroIteration   1 %%%%%


          Number of sigma calls:       14
                       o<<<<< (aa):             0.00
                       o<<<<< (bb):             0.00
                       o<<<<< (ab):             0.04
                       o<<<<< (total)           0.04
                       o<<<<< (aa) ff           0.00
                       o<<<<< (aa) gop          0.00
                       o<<<<< (aa) dot          0.00
                       o<<<<< (ab) str          0.00
                       o<<<<< (ab) gath         0.00
                       o<<<<< (ab) dotab        0.00
                       o<<<<< (ab) scat         0.00
                       o<<<<< (ab) sync         0.00
                       o<<<<< Density           0.00
                       o<<<<< Density one       0.00
                       o<<<<< Density two       0.00
                       o<<<<< Density ab        0.00
                       o<<<<< Spin adapt        0.27
                       o<<<<< Symm adapt        0.00

                       o<<<<< (ab) max sync:      0.00

           >>>| Valence CI:            -85.249332760312
           >>>| MCSCF energy:          -76.148158800582
           >>>| Gradient norm:          0.228042714D-01

                              ----- Line search ------

        step       energy         lsg     num-lsg   num-lsh   lsrat    time
      ------- ---------------- --------- --------- --------- ------- --------
       0.0000     -76.14815880 -4.62D-05  0.00D+00  0.00D+00 0.0D+00      0.9

          Number of sigma calls:       14
                       o<<<<< (aa):             0.00
                       o<<<<< (bb):             0.00
                       o<<<<< (ab):             0.05
                       o<<<<< (total)           0.05
                       o<<<<< (aa) ff           0.00
                       o<<<<< (aa) gop          0.00
                       o<<<<< (aa) dot          0.00
                       o<<<<< (ab) str          0.00
                       o<<<<< (ab) gath         0.00
                       o<<<<< (ab) dotab        0.00
                       o<<<<< (ab) scat         0.00
                       o<<<<< (ab) sync         0.00
                       o<<<<< Density           0.00
                       o<<<<< Density one       0.00
                       o<<<<< Density two       0.00
                       o<<<<< Density ab        0.00
                       o<<<<< Spin adapt        0.31
                       o<<<<< Symm adapt        0.00

                       o<<<<< (ab) max sync:      0.00
       1.0000     -76.14818269 -1.60D-06 -1.60D-06  4.46D-05 3.5D-02      1.4
     --- Orbitals canonicalized ---



          %%%%% MacroIteration   2 %%%%%


          Number of sigma calls:       11
                       o<<<<< (aa):             0.00
                       o<<<<< (bb):             0.00
                       o<<<<< (ab):             0.03
                       o<<<<< (total)           0.03
                       o<<<<< (aa) ff           0.00
                       o<<<<< (aa) gop          0.00
                       o<<<<< (aa) dot          0.00
                       o<<<<< (ab) str          0.00
                       o<<<<< (ab) gath         0.00
                       o<<<<< (ab) dotab        0.00
                       o<<<<< (ab) scat         0.00
                       o<<<<< (ab) sync         0.00
                       o<<<<< Density           0.01
                       o<<<<< Density one       0.00
                       o<<<<< Density two       0.00
                       o<<<<< Density ab        0.01
                       o<<<<< Spin adapt        0.22
                       o<<<<< Symm adapt        0.00

                       o<<<<< (ab) max sync:      0.00

           >>>| Valence CI:            -85.249356648835
           >>>| MCSCF energy:          -76.148182689105
           >>>| Gradient norm:          0.172743472D-02
     --- Warning:    2 Hessian diagonals < 0.05 ---
     --- Conjugacy reset ---

                              ----- Line search ------

        step       energy         lsg     num-lsg   num-lsh   lsrat    time
      ------- ---------------- --------- --------- --------- ------- --------
       0.0000     -76.14818269 -5.15D-07  0.00D+00  0.00D+00 0.0D+00      1.8

          Number of sigma calls:       10
                       o<<<<< (aa):             0.00
                       o<<<<< (bb):             0.00
                       o<<<<< (ab):             0.03
                       o<<<<< (total)           0.03
                       o<<<<< (aa) ff           0.00
                       o<<<<< (aa) gop          0.00
                       o<<<<< (aa) dot          0.00
                       o<<<<< (ab) str          0.00
                       o<<<<< (ab) gath         0.00
                       o<<<<< (ab) dotab        0.00
                       o<<<<< (ab) scat         0.00
                       o<<<<< (ab) sync         0.00
                       o<<<<< Density           0.01
                       o<<<<< Density one       0.00
                       o<<<<< Density two       0.00
                       o<<<<< Density ab        0.01
                       o<<<<< Spin adapt        0.27
                       o<<<<< Symm adapt        0.00

                       o<<<<< (ab) max sync:      0.00
       1.0000     -76.14818302 -1.56D-07 -1.56D-07  3.59D-07 3.0D-01      2.2

          Number of sigma calls:        9
                       o<<<<< (aa):             0.00
                       o<<<<< (bb):             0.00
                       o<<<<< (ab):             0.03
                       o<<<<< (total)           0.03
                       o<<<<< (aa) ff           0.00
                       o<<<<< (aa) gop          0.00
                       o<<<<< (aa) dot          0.00
                       o<<<<< (ab) str          0.00
                       o<<<<< (ab) gath         0.00
                       o<<<<< (ab) dotab        0.00
                       o<<<<< (ab) scat         0.00
                       o<<<<< (ab) sync         0.00
                       o<<<<< Density           0.00
                       o<<<<< Density one       0.00
                       o<<<<< Density two       0.00
                       o<<<<< Density ab        0.00
                       o<<<<< Spin adapt        0.19
                       o<<<<< Symm adapt        0.00

                       o<<<<< (ab) max sync:      0.00
       1.4357     -76.14818306 -2.98D-10 -2.81D-10  3.58D-07 5.8D-04      2.5



          %%%%% MacroIteration   3 %%%%%


          Number of sigma calls:        1
                       o<<<<< (aa):             0.00
                       o<<<<< (bb):             0.00
                       o<<<<< (ab):             0.00
                       o<<<<< (total)           0.00
                       o<<<<< (aa) ff           0.00
                       o<<<<< (aa) gop          0.00
                       o<<<<< (aa) dot          0.00
                       o<<<<< (ab) str          0.00
                       o<<<<< (ab) gath         0.00
                       o<<<<< (ab) dotab        0.00
                       o<<<<< (ab) scat         0.00
                       o<<<<< (ab) sync         0.00
                       o<<<<< Density           0.00
                       o<<<<< Density one       0.00
                       o<<<<< Density two       0.00
                       o<<<<< Density ab        0.00
                       o<<<<< Spin adapt        0.00
                       o<<<<< Symm adapt        0.00

                       o<<<<< (ab) max sync:      0.00

           >>>| Valence CI:            -85.249357018795
           >>>| MCSCF energy:          -76.148183059065
           >>>| Gradient norm:          0.301665642D-03
     --- Warning:    2 Hessian diagonals < 0.05 ---

                              ----- Line search ------

        step       energy         lsg     num-lsg   num-lsh   lsrat    time
      ------- ---------------- --------- --------- --------- ------- --------
       0.0000     -76.14818306 -1.94D-08  0.00D+00  0.00D+00 0.0D+00      2.6

          Number of sigma calls:        9
                       o<<<<< (aa):             0.00
                       o<<<<< (bb):             0.00
                       o<<<<< (ab):             0.02
                       o<<<<< (total)           0.03
                       o<<<<< (aa) ff           0.00
                       o<<<<< (aa) gop          0.00
                       o<<<<< (aa) dot          0.00
                       o<<<<< (ab) str          0.00
                       o<<<<< (ab) gath         0.00
                       o<<<<< (ab) dotab        0.00
                       o<<<<< (ab) scat         0.00
                       o<<<<< (ab) sync         0.00
                       o<<<<< Density           0.01
                       o<<<<< Density one       0.00
                       o<<<<< Density two       0.00
                       o<<<<< Density ab        0.01
                       o<<<<< Spin adapt        0.19
                       o<<<<< Symm adapt        0.00

                       o<<<<< (ab) max sync:      0.00
       1.0000     -76.14818307 -5.74D-09 -5.74D-09  1.36D-08 3.0D-01      2.9

          Number of sigma calls:        8
                       o<<<<< (aa):             0.00
                       o<<<<< (bb):             0.00
                       o<<<<< (ab):             0.03
                       o<<<<< (total)           0.03
                       o<<<<< (aa) ff           0.00
                       o<<<<< (aa) gop          0.00
                       o<<<<< (aa) dot          0.00
                       o<<<<< (ab) str          0.00
                       o<<<<< (ab) gath         0.00
                       o<<<<< (ab) dotab        0.00
                       o<<<<< (ab) scat         0.00
                       o<<<<< (ab) sync         0.00
                       o<<<<< Density           0.00
                       o<<<<< Density one       0.00
                       o<<<<< Density two       0.00
                       o<<<<< Density ab        0.00
                       o<<<<< Spin adapt        0.23
                       o<<<<< Symm adapt        0.00

                       o<<<<< (ab) max sync:      0.00
       1.4210     -76.14818307 -5.27D-13 -6.81D-13  1.36D-08 2.7D-05      3.2



          %%%%% MacroIteration   4 %%%%%


          Number of sigma calls:        1
                       o<<<<< (aa):             0.00
                       o<<<<< (bb):             0.00
                       o<<<<< (ab):             0.00
                       o<<<<< (total)           0.00
                       o<<<<< (aa) ff           0.00
                       o<<<<< (aa) gop          0.00
                       o<<<<< (aa) dot          0.00
                       o<<<<< (ab) str          0.00
                       o<<<<< (ab) gath         0.00
                       o<<<<< (ab) dotab        0.00
                       o<<<<< (ab) scat         0.00
                       o<<<<< (ab) sync         0.00
                       o<<<<< Density           0.00
                       o<<<<< Density one       0.00
                       o<<<<< Density two       0.00
                       o<<<<< Density ab        0.00
                       o<<<<< Spin adapt        0.00
                       o<<<<< Symm adapt        0.00

                       o<<<<< (ab) max sync:      0.00

           >>>| Valence CI:            -85.249357032571
           >>>| MCSCF energy:          -76.148183072841
           >>>| Gradient norm:          0.112425179D-03
     --- Warning:    2 Hessian diagonals < 0.05 ---

                              ----- Line search ------

        step       energy         lsg     num-lsg   num-lsh   lsrat    time
      ------- ---------------- --------- --------- --------- ------- --------
       0.0000     -76.14818307 -4.02D-09  0.00D+00  0.00D+00 0.0D+00      3.4

          Number of sigma calls:        8
                       o<<<<< (aa):             0.00
                       o<<<<< (bb):             0.00
                       o<<<<< (ab):             0.02
                       o<<<<< (total)           0.02
                       o<<<<< (aa) ff           0.00
                       o<<<<< (aa) gop          0.00
                       o<<<<< (aa) dot          0.00
                       o<<<<< (ab) str          0.00
                       o<<<<< (ab) gath         0.00
                       o<<<<< (ab) dotab        0.00
                       o<<<<< (ab) scat         0.00
                       o<<<<< (ab) sync         0.00
                       o<<<<< Density           0.01
                       o<<<<< Density one       0.00
                       o<<<<< Density two       0.00
                       o<<<<< Density ab        0.01
                       o<<<<< Spin adapt        0.18
                       o<<<<< Symm adapt        0.00

                       o<<<<< (ab) max sync:      0.00
       1.0000     -76.14818308 -2.25D-09 -2.25D-09  1.77D-09 5.6D-01      3.6

          Number of sigma calls:        8
                       o<<<<< (aa):             0.00
                       o<<<<< (bb):             0.00
                       o<<<<< (ab):             0.02
                       o<<<<< (total)           0.02
                       o<<<<< (aa) ff           0.00
                       o<<<<< (aa) gop          0.00
                       o<<<<< (aa) dot          0.00
                       o<<<<< (ab) str          0.00
                       o<<<<< (ab) gath         0.00
                       o<<<<< (ab) dotab        0.00
                       o<<<<< (ab) scat         0.00
                       o<<<<< (ab) sync         0.00
                       o<<<<< Density           0.01
                       o<<<<< Density one       0.00
                       o<<<<< Density two       0.00
                       o<<<<< Density ab        0.01
                       o<<<<< Spin adapt        0.15
                       o<<<<< Symm adapt        0.00

                       o<<<<< (ab) max sync:      0.00
       2.2729     -76.14818308 -1.24D-13 -8.15D-14  1.77D-09 3.1D-05      3.9



          %%%%% MacroIteration   5 %%%%%


          Number of sigma calls:        1
                       o<<<<< (aa):             0.00
                       o<<<<< (bb):             0.00
                       o<<<<< (ab):             0.00
                       o<<<<< (total)           0.00
                       o<<<<< (aa) ff           0.00
                       o<<<<< (aa) gop          0.00
                       o<<<<< (aa) dot          0.00
                       o<<<<< (ab) str          0.00
                       o<<<<< (ab) gath         0.00
                       o<<<<< (ab) dotab        0.00
                       o<<<<< (ab) scat         0.00
                       o<<<<< (ab) sync         0.00
                       o<<<<< Density           0.01
                       o<<<<< Density one       0.00
                       o<<<<< Density two       0.00
                       o<<<<< Density ab        0.01
                       o<<<<< Spin adapt        0.00
                       o<<<<< Symm adapt        0.00

                       o<<<<< (ab) max sync:      0.00

           >>>| Valence CI:            -85.249357037144
           >>>| MCSCF energy:          -76.148183077413
           >>>| Gradient norm:          0.436493672D-04




     ==============================
            MCSCF Converged
     ==============================



          Canonical Eigenvalues

              1      
    1  -20.5427
    2   -1.3467
    3   -0.7416
    4   -0.5833
    5   -0.5247
    6   -0.0259
    7   -0.0246
    8   -0.0160
    9    0.2937
   10    0.3355
   11    0.6121
   12    0.6570
   13    0.8105
   14    0.8453
   15    0.9737
   16    1.1247
   17    1.1733
   18    1.3796
   19    1.4081
   20    1.9971
   21    2.0518
   22    2.0715
   23    2.1344
   24    2.2041
   25    2.6056
   26    2.8766
   27    3.3762
   28    3.5105
   29    3.5256
   30    3.5501
   31    3.6001
   32    3.8720
   33    3.8823
   34    3.9360
   35    3.9967
   36    4.0513
   37    4.1181
   38    4.3369
   39    4.4191
   40    4.4462
   41    4.6293
   42    4.8468
   43    5.0646
   44    5.2522
   45    5.5304
   46    5.9883
   47    6.4265
   48    6.8980
   49    6.9387
   50    6.9767
   51    6.9947
   52    7.1016
   53    7.1580
   54    7.1898
   55    7.4930
   56    7.7297
   57    8.2006
   58   12.7725


          Converged CI vector

   Index           Coefficient          Config. Occupation
         1         -0.97634163          1  2  3  4  5  1  2  3  4  5
        22          0.07023924          1  2  3  4  5  1  2  3  4  8
         3          0.04351609          1  2  3  4  5  1  2  3  5  6
        27         -0.02192100          1  2  3  4  5  1  2  3  6  8
         9         -0.04050113          1  2  3  4  5  1  2  4  5  7
        38          0.02534316          1  2  3  4  5  1  2  4  7  8
      1177          0.07023924          1  2  3  4  8  1  2  3  4  5
      1198          0.05134971          1  2  3  4  8  1  2  3  4  8
      1179          0.02681654          1  2  3  4  8  1  2  3  5  6
      1185         -0.03428753          1  2  3  4  8  1  2  4  5  7
      1181          0.02077650          1  2  3  4  8  1  3  4  5  6
       113          0.04351609          1  2  3  5  6  1  2  3  4  5
       134          0.02681654          1  2  3  5  6  1  2  3  4  8
       115          0.04007696          1  2  3  5  6  1  2  3  5  6
       121         -0.03248233          1  2  3  5  6  1  2  4  5  7
       117          0.02568013          1  2  3  5  6  1  3  4  5  6
       400          0.02110708          1  2  3  5  7  1  2  3  5  7
      1457         -0.02192100          1  2  3  6  8  1  2  3  4  5
       172          0.02785400          1  2  4  5  6  1  2  4  5  6
       449         -0.04050113          1  2  4  5  7  1  2  3  4  5
       470         -0.03428753          1  2  4  5  7  1  2  3  4  8
       451         -0.03248233          1  2  4  5  7  1  2  3  5  6
       457          0.05835038          1  2  4  5  7  1  2  4  5  7
       453         -0.02307337          1  2  4  5  7  1  3  4  5  6
      2073          0.02534316          1  2  4  7  8  1  2  3  4  5
       246          0.02077650          1  3  4  5  6  1  2  3  4  8
       227          0.02568013          1  3  4  5  6  1  2  3  5  6
       233         -0.02307337          1  3  4  5  6  1  2  4  5  7
       229          0.02623403          1  3  4  5  6  1  3  4  5  6

          Number of sigma calls:        1
                       o<<<<< (aa):             0.00
                       o<<<<< (bb):             0.00
                       o<<<<< (ab):             0.00
                       o<<<<< (total)           0.00
                       o<<<<< (aa) ff           0.00
                       o<<<<< (aa) gop          0.00
                       o<<<<< (aa) dot          0.00
                       o<<<<< (ab) str          0.00
                       o<<<<< (ab) gath         0.00
                       o<<<<< (ab) dotab        0.00
                       o<<<<< (ab) scat         0.00
                       o<<<<< (ab) sync         0.00
                       o<<<<< Density           0.00
                       o<<<<< Density one       0.00
                       o<<<<< Density two       0.00
                       o<<<<< Density ab        0.00
                       o<<<<< Spin adapt        0.00
                       o<<<<< Symm adapt        0.00

                       o<<<<< (ab) max sync:      0.00



          Natural orbital occupation numbers

              1      
    1    2.0000
    2    1.9990
    3    1.9824
    4    1.9780
    5    1.9769
    6    0.0238
    7    0.0227
    8    0.0173


          Number of sigma calls:       15
                       o<<<<< (aa):             0.00
                       o<<<<< (bb):             0.00
                       o<<<<< (ab):             0.05
                       o<<<<< (total)           0.06
                       o<<<<< (aa) ff           0.00
                       o<<<<< (aa) gop          0.00
                       o<<<<< (aa) dot          0.00
                       o<<<<< (ab) str          0.00
                       o<<<<< (ab) gath         0.00
                       o<<<<< (ab) dotab        0.00
                       o<<<<< (ab) scat         0.00
                       o<<<<< (ab) sync         0.00
                       o<<<<< Density           0.01
                       o<<<<< Density one       0.00
                       o<<<<< Density two       0.00
                       o<<<<< Density ab        0.01
                       o<<<<< Spin adapt        0.36
                       o<<<<< Symm adapt        0.00

                       o<<<<< (ab) max sync:      0.00


       Final MCSCF results 
       ------------------- 

       Total MCSCF energy =    -76.148183077412
            Gradient norm =      4.4D-05

    CPU time for solution =      4.5s
   Wall time for solution =      7.9s



                        Analysis of MCSCF natural orbitals
                        ----------------------------------

 Vector    1  Occ=1.999988D+00  E=-2.054272D+01  Symmetry=a
              MO Center= -9.1D-02, -6.1D-02,  7.1D-08, r^2= 1.8D-02
   Bfn.  Coefficient  Atom+Function         Bfn.  Coefficient  Atom+Function  
  ----- ------------  ---------------      ----- ------------  ---------------
     1      0.970803  1 O  s          

 Vector    2  Occ=1.998956D+00  E=-1.346729D+00  Symmetry=a
              MO Center= -3.0D-01, -2.1D-01,  8.6D-05, r^2= 4.1D-01
   Bfn.  Coefficient  Atom+Function         Bfn.  Coefficient  Atom+Function  
  ----- ------------  ---------------      ----- ------------  ---------------
     2      0.510193  1 O  s                  4      0.388631  1 O  s          

 Vector    3  Occ=1.982356D+00  E=-7.416432D-01  Symmetry=a
              MO Center= -6.4D-02, -4.2D-02, -8.3D-05, r^2= 6.5D-01
   Bfn.  Coefficient  Atom+Function         Bfn.  Coefficient  Atom+Function  
  ----- ------------  ---------------      ----- ------------  ---------------
    10      0.430370  1 O  pz                13      0.388437  1 O  pz         
     7      0.358703  1 O  pz         

 Vector    4  Occ=1.977963D+00  E=-5.833375D-01  Symmetry=a
              MO Center= -1.3D-02,  3.8D-01, -3.1D-06, r^2= 5.7D-01
   Bfn.  Coefficient  Atom+Function         Bfn.  Coefficient  Atom+Function  
  ----- ------------  ---------------      ----- ------------  ---------------
     9      0.323202  1 O  py                 6      0.271766  1 O  py         
    32      0.252712  2 H  s                 31      0.181996  2 H  s          
    12      0.180522  1 O  py         

 Vector    5  Occ=1.976920D+00  E=-5.247346D-01  Symmetry=a
              MO Center=  3.1D-01, -1.7D-01, -1.8D-06, r^2= 6.3D-01
   Bfn.  Coefficient  Atom+Function         Bfn.  Coefficient  Atom+Function  
  ----- ------------  ---------------      ----- ------------  ---------------
     8      0.323482  1 O  px                 5      0.269701  1 O  px         
    46      0.267866  3 H  s                 11      0.184073  1 O  px         
    45      0.184329  3 H  s          

 Vector    6  Occ=2.380557D-02  E=-2.590132D-02  Symmetry=a
              MO Center=  5.1D-01, -1.7D-01, -1.2D-05, r^2= 6.4D-01
   Bfn.  Coefficient  Atom+Function         Bfn.  Coefficient  Atom+Function  
  ----- ------------  ---------------      ----- ------------  ---------------
    46      0.642535  3 H  s                  5     -0.530758  1 O  px         
     8     -0.426676  1 O  px                 2     -0.350549  1 O  s          
    45      0.289374  3 H  s                  4     -0.212669  1 O  s          
     3     -0.178239  1 O  s          

 Vector    7  Occ=2.268590D-02  E=-2.462622D-02  Symmetry=a
              MO Center= -4.0D-02,  4.9D-01, -8.2D-06, r^2= 6.9D-01
   Bfn.  Coefficient  Atom+Function         Bfn.  Coefficient  Atom+Function  
  ----- ------------  ---------------      ----- ------------  ---------------
    32      0.658141  2 H  s                  6     -0.557631  1 O  py         
     9     -0.455911  1 O  py                31      0.295391  2 H  s          
     2     -0.233802  1 O  s                  4     -0.153201  1 O  s          
    46     -0.153755  3 H  s          

 Vector    8  Occ=1.732496D-02  E=-1.602260D-02  Symmetry=a
              MO Center= -4.4D-03, -1.5D-03, -9.2D-05, r^2= 1.2D+00
   Bfn.  Coefficient  Atom+Function         Bfn.  Coefficient  Atom+Function  
  ----- ------------  ---------------      ----- ------------  ---------------
    13      0.773456  1 O  pz                 7     -0.650615  1 O  pz         
    10     -0.300738  1 O  pz         

 Vector    9  Occ=0.000000D+00  E= 2.937269D-01  Symmetry=a
              MO Center=  2.9D-01,  2.2D-01,  5.4D-05, r^2= 4.8D+00
   Bfn.  Coefficient  Atom+Function         Bfn.  Coefficient  Atom+Function  
  ----- ------------  ---------------      ----- ------------  ---------------
     4      2.339997  1 O  s                 33     -1.188315  2 H  s          
    47     -1.142547  3 H  s                 11      0.691850  1 O  px         
    12      0.513136  1 O  py                38      0.491703  2 H  py         
    51      0.430584  3 H  px                32     -0.322005  2 H  s          
    46     -0.252183  3 H  s                 52     -0.175150  3 H  py         

 Vector   10  Occ=0.000000D+00  E= 3.355074D-01  Symmetry=a
              MO Center=  5.4D-01,  3.4D-01, -1.7D-06, r^2= 5.6D+00
   Bfn.  Coefficient  Atom+Function         Bfn.  Coefficient  Atom+Function  
  ----- ------------  ---------------      ----- ------------  ---------------
    47     -2.034733  3 H  s                 33      2.023782  2 H  s          
    12     -0.671436  1 O  py                11      0.456032  1 O  px         
    46      0.350838  3 H  s                 38     -0.320406  2 H  py         
    51      0.305478  3 H  px                32     -0.302342  2 H  s          

 Vector   11  Occ=0.000000D+00  E= 6.120664D-01  Symmetry=a
              MO Center=  1.7D-01,  7.0D-02, -3.8D-05, r^2= 2.0D+00
   Bfn.  Coefficient  Atom+Function         Bfn.  Coefficient  Atom+Function  
  ----- ------------  ---------------      ----- ------------  ---------------
     4      3.238958  1 O  s                 32     -2.439803  2 H  s          
    46     -2.138765  3 H  s                 11      1.446514  1 O  px         
    12      1.200638  1 O  py                38      0.605430  2 H  py         
    51      0.557655  3 H  px                21     -0.194670  1 O  d  0       
     2      0.157007  1 O  s          

 Vector   12  Occ=0.000000D+00  E= 6.570069D-01  Symmetry=a
              MO Center= -3.3D-01, -1.8D-01, -4.2D-07, r^2= 2.5D+00
   Bfn.  Coefficient  Atom+Function         Bfn.  Coefficient  Atom+Function  
  ----- ------------  ---------------      ----- ------------  ---------------
    12      2.408560  1 O  py                46      2.163654  3 H  s          
    32     -2.005308  2 H  s                 11     -1.781876  1 O  px         
    33     -0.825386  2 H  s                 47      0.811055  3 H  s          
    38      0.661840  2 H  py                51     -0.659260  3 H  px         
    23     -0.352355  1 O  d  2              52      0.292852  3 H  py         

 Vector   13  Occ=0.000000D+00  E= 8.105043D-01  Symmetry=a
              MO Center= -1.7D-01, -1.3D-01, -9.9D-06, r^2= 2.2D+00
   Bfn.  Coefficient  Atom+Function         Bfn.  Coefficient  Atom+Function  
  ----- ------------  ---------------      ----- ------------  ---------------
     4      1.897325  1 O  s                 11      1.647073  1 O  px         
    32     -1.491207  2 H  s                 46     -1.422474  3 H  s          
    12      1.162120  1 O  py                52     -1.006339  3 H  py         
    37     -0.924215  2 H  px                38      0.431726  2 H  py         
     2      0.187150  1 O  s          

 Vector   14  Occ=0.000000D+00  E= 8.452664D-01  Symmetry=a
              MO Center=  3.7D-01,  2.3D-01, -2.3D-06, r^2= 1.7D+00
   Bfn.  Coefficient  Atom+Function         Bfn.  Coefficient  Atom+Function  
  ----- ------------  ---------------      ----- ------------  ---------------
    53     -0.840517  3 H  pz                39      0.827122  2 H  pz         

 Vector   15  Occ=0.000000D+00  E= 9.736761D-01  Symmetry=a
              MO Center=  6.8D-02,  5.8D-02,  8.9D-06, r^2= 2.1D+00
   Bfn.  Coefficient  Atom+Function         Bfn.  Coefficient  Atom+Function  
  ----- ------------  ---------------      ----- ------------  ---------------
    13      1.310154  1 O  pz                39     -1.020249  2 H  pz         
    53     -0.985751  3 H  pz         

 Vector   16  Occ=0.000000D+00  E= 1.124702D+00  Symmetry=a
              MO Center= -1.4D-01, -9.1D-02,  1.2D-04, r^2= 2.0D+00
   Bfn.  Coefficient  Atom+Function         Bfn.  Coefficient  Atom+Function  
  ----- ------------  ---------------      ----- ------------  ---------------
     4      7.321025  1 O  s                 32     -3.241598  2 H  s          
    46     -2.860418  3 H  s                 38      1.590793  2 H  py         
    11      1.334073  1 O  px                51      1.244423  3 H  px         
    12      1.137045  1 O  py                 2     -0.804712  1 O  s          
     8      0.798248  1 O  px                52     -0.756852  3 H  py         

 Vector   17  Occ=0.000000D+00  E= 1.173257D+00  Symmetry=a
              MO Center=  2.6D-01,  1.8D-01,  1.3D-07, r^2= 2.2D+00
   Bfn.  Coefficient  Atom+Function         Bfn.  Coefficient  Atom+Function  
  ----- ------------  ---------------      ----- ------------  ---------------
    12      1.542615  1 O  py                46      1.259663  3 H  s          
    11     -1.187350  1 O  px                37      1.175029  2 H  px         
    32     -0.970493  2 H  s                 52     -0.950118  3 H  py         
    51     -0.687911  3 H  px                 4     -0.357414  1 O  s          
    47      0.208618  3 H  s          

 Vector   18  Occ=0.000000D+00  E= 1.379611D+00  Symmetry=a
              MO Center=  9.9D-01, -3.1D-01, -3.5D-07, r^2= 1.6D+00
   Bfn.  Coefficient  Atom+Function         Bfn.  Coefficient  Atom+Function  
  ----- ------------  ---------------      ----- ------------  ---------------
     4      2.406435  1 O  s                 51      2.151238  3 H  px         
    46     -1.633589  3 H  s                 11      0.858386  1 O  px         
    47     -0.793095  3 H  s                  2      0.727976  1 O  s          
    52     -0.713151  3 H  py                38      0.581292  2 H  py         
     8      0.557317  1 O  px                32     -0.306056  2 H  s          


 Wrote Lagrangian and 1- and 2-particle density matrices to ./H2O.mcpdm


     Multipole analysis of the density
     ---------------------------------

     L   x y z        total        nuclear
     -   - - -        -----        -------
     0   0 0 0     -0.000000     10.000000

     1   1 0 0      0.580645     -0.000000
     1   0 1 0      0.394881      0.000000
     1   0 0 1      0.000010      0.000000

     2   2 0 0     -4.112715      2.679864
     2   1 1 0     -0.806182     -1.319030
     2   1 0 1     -0.000002      0.000000
     2   0 2 0     -3.546869      3.550325
     2   0 1 1     -0.000001      0.000000
     2   0 0 2     -5.504335      0.000000


  Mulliken analysis of the total density
  --------------------------------------

    Atom       Charge   Shell Charges
 -----------   ------   -------------------------------------------------------
    1 O    8     8.48   1.95  1.00  0.23  0.60  1.29  2.09  1.29  0.00  0.02  0.00
    2 H    1     0.76   0.26  0.38  0.04  0.02  0.06  0.01
    3 H    1     0.76   0.25  0.38  0.05  0.02  0.06  0.01

    Mulliken analysis of the active space density
    ---------------------------------------------

    Atom       Charge   Shell Charges
 -----------   ------   -------------------------------------------------------
    1 O    8     8.48   1.95  1.00  0.23  0.60  1.29  2.09  1.29  0.00  0.02  0.00
    2 H    1     0.76   0.26  0.38  0.04  0.02  0.06  0.01
    3 H    1     0.76   0.25  0.38  0.05  0.02  0.06  0.01

 Parallel integral file used      16 records with       0 large values


 Task  times  cpu:        4.5s     wall:        8.0s


                                NWChem Input Module
                                -------------------


                                 NWChem SCF Module
                                 -----------------


                                        H2O



  ao basis        = "ao basis"
  functions       =    58
  atoms           =     3
  closed shells   =     5
  open shells     =     0
  charge          =   0.00
  wavefunction    = RHF 
  input vectors   = ./h2o.mos
  output vectors  = ./h2o-trash.mos
  use symmetry    = F
  symmetry adapt  = F


 Summary of "ao basis" -> "ao basis" (spherical)
 ------------------------------------------------------------------------------
       Tag                 Description            Shells   Functions and Types
 ---------------- ------------------------------  ------  ---------------------
 O                          cc-pVTZ                 10       30   4s3p2d1f
 H                          cc-pVTZ                  6       14   3s2p1d



 Forming initial guess at       8.0s


 Loading old vectors from job with title :

H2O


 Starting SCF solution at       8.0s



 ----------------------------------------------
         Quadratically convergent ROHF

 Convergence threshold     :          1.000E-04
 Maximum no. of iterations :           30
 Final Fock-matrix accuracy:          1.000E-07
 ----------------------------------------------


 Integral file          = ./H2O.aoints.0
 Record size in doubles =  65536        No. of integs per rec  =  43688
 Max. records in memory =     49        Max. records in file   = 280325
 No. of bits per label  =      8        No. of bits per value  =     64


 #quartets = 3.213D+04 #integrals = 6.608D+05 #direct =  0.0% #cached =100.0%



       Final RHF  results 
       ------------------ 

         Total SCF energy =    -76.054318356270
      One-electron energy =   -122.944312368108
      Two-electron energy =     37.788820052107
 Nuclear repulsion energy =      9.101173959731

        Time for solution =      0.1s


             Final eigenvalues
             -----------------

              1      
    1  -20.5427
    2   -1.3467
    3   -0.7416
    4   -0.5833
    5   -0.5247
    6   -0.0259
    7   -0.0246
    8   -0.0160
    9    0.2937
   10    0.3355
   11    0.6121
   12    0.6570
   13    0.8105
   14    0.8453
   15    0.9737

                       ROHF Final Molecular Orbital Analysis
                       -------------------------------------

 Vector    2  Occ=2.000000D+00  E=-1.346729D+00
              MO Center= -3.0D-01, -2.1D-01,  8.6D-05, r^2= 4.1D-01
   Bfn.  Coefficient  Atom+Function         Bfn.  Coefficient  Atom+Function  
  ----- ------------  ---------------      ----- ------------  ---------------
     2      0.510193  1 O  s                  4      0.388631  1 O  s          

 Vector    3  Occ=2.000000D+00  E=-7.416432D-01
              MO Center= -6.4D-02, -4.2D-02, -8.3D-05, r^2= 6.5D-01
   Bfn.  Coefficient  Atom+Function         Bfn.  Coefficient  Atom+Function  
  ----- ------------  ---------------      ----- ------------  ---------------
    10      0.430370  1 O  pz                13      0.388437  1 O  pz         
     7      0.358703  1 O  pz         

 Vector    4  Occ=2.000000D+00  E=-5.833375D-01
              MO Center= -1.3D-02,  3.8D-01, -3.1D-06, r^2= 5.7D-01
   Bfn.  Coefficient  Atom+Function         Bfn.  Coefficient  Atom+Function  
  ----- ------------  ---------------      ----- ------------  ---------------
     9      0.323202  1 O  py                 6      0.271766  1 O  py         
    32      0.252712  2 H  s                 31      0.181996  2 H  s          
    12      0.180522  1 O  py         

 Vector    5  Occ=2.000000D+00  E=-5.247346D-01
              MO Center=  3.1D-01, -1.7D-01, -1.8D-06, r^2= 6.3D-01
   Bfn.  Coefficient  Atom+Function         Bfn.  Coefficient  Atom+Function  
  ----- ------------  ---------------      ----- ------------  ---------------
     8      0.323482  1 O  px                 5      0.269701  1 O  px         
    46      0.267866  3 H  s                 11      0.184073  1 O  px         
    45      0.184329  3 H  s          

 Vector    6  Occ=0.000000D+00  E=-2.590132D-02
              MO Center=  5.1D-01, -1.7D-01, -1.2D-05, r^2= 6.4D-01
   Bfn.  Coefficient  Atom+Function         Bfn.  Coefficient  Atom+Function  
  ----- ------------  ---------------      ----- ------------  ---------------
    46      0.642535  3 H  s                  5     -0.530758  1 O  px         
     8     -0.426676  1 O  px                 2     -0.350549  1 O  s          
    45      0.289374  3 H  s                  4     -0.212669  1 O  s          
     3     -0.178239  1 O  s          

 Vector    7  Occ=0.000000D+00  E=-2.462622D-02
              MO Center= -4.0D-02,  4.9D-01, -8.2D-06, r^2= 6.9D-01
   Bfn.  Coefficient  Atom+Function         Bfn.  Coefficient  Atom+Function  
  ----- ------------  ---------------      ----- ------------  ---------------
    32      0.658141  2 H  s                  6     -0.557631  1 O  py         
     9     -0.455911  1 O  py                31      0.295391  2 H  s          
     2     -0.233802  1 O  s                  4     -0.153201  1 O  s          
    46     -0.153755  3 H  s          

 Vector    8  Occ=0.000000D+00  E=-1.602260D-02
              MO Center= -4.4D-03, -1.5D-03, -9.2D-05, r^2= 1.2D+00
   Bfn.  Coefficient  Atom+Function         Bfn.  Coefficient  Atom+Function  
  ----- ------------  ---------------      ----- ------------  ---------------
    13      0.773456  1 O  pz                 7     -0.650615  1 O  pz         
    10     -0.300738  1 O  pz         

 Vector    9  Occ=0.000000D+00  E= 2.937269D-01
              MO Center=  2.9D-01,  2.2D-01,  5.4D-05, r^2= 4.8D+00
   Bfn.  Coefficient  Atom+Function         Bfn.  Coefficient  Atom+Function  
  ----- ------------  ---------------      ----- ------------  ---------------
     4      2.339997  1 O  s                 33     -1.188315  2 H  s          
    47     -1.142547  3 H  s                 11      0.691850  1 O  px         
    12      0.513136  1 O  py                38      0.491703  2 H  py         
    51      0.430584  3 H  px                32     -0.322005  2 H  s          
    46     -0.252183  3 H  s                 52     -0.175150  3 H  py         

 Vector   10  Occ=0.000000D+00  E= 3.355074D-01
              MO Center=  5.4D-01,  3.4D-01, -1.7D-06, r^2= 5.6D+00
   Bfn.  Coefficient  Atom+Function         Bfn.  Coefficient  Atom+Function  
  ----- ------------  ---------------      ----- ------------  ---------------
    47     -2.034733  3 H  s                 33      2.023782  2 H  s          
    12     -0.671436  1 O  py                11      0.456032  1 O  px         
    46      0.350838  3 H  s                 38     -0.320406  2 H  py         
    51      0.305478  3 H  px                32     -0.302342  2 H  s          

 Vector   11  Occ=0.000000D+00  E= 6.120664D-01
              MO Center=  1.7D-01,  7.0D-02, -3.8D-05, r^2= 2.0D+00
   Bfn.  Coefficient  Atom+Function         Bfn.  Coefficient  Atom+Function  
  ----- ------------  ---------------      ----- ------------  ---------------
     4      3.238958  1 O  s                 32     -2.439803  2 H  s          
    46     -2.138765  3 H  s                 11      1.446514  1 O  px         
    12      1.200638  1 O  py                38      0.605430  2 H  py         
    51      0.557655  3 H  px                21     -0.194670  1 O  d  0       
     2      0.157007  1 O  s          

 Vector   12  Occ=0.000000D+00  E= 6.570069D-01
              MO Center= -3.3D-01, -1.8D-01, -4.2D-07, r^2= 2.5D+00
   Bfn.  Coefficient  Atom+Function         Bfn.  Coefficient  Atom+Function  
  ----- ------------  ---------------      ----- ------------  ---------------
    12      2.408560  1 O  py                46      2.163654  3 H  s          
    32     -2.005308  2 H  s                 11     -1.781876  1 O  px         
    33     -0.825386  2 H  s                 47      0.811055  3 H  s          
    38      0.661840  2 H  py                51     -0.659260  3 H  px         
    23     -0.352355  1 O  d  2              52      0.292852  3 H  py         

 Vector   13  Occ=0.000000D+00  E= 8.105043D-01
              MO Center= -1.7D-01, -1.3D-01, -9.9D-06, r^2= 2.2D+00
   Bfn.  Coefficient  Atom+Function         Bfn.  Coefficient  Atom+Function  
  ----- ------------  ---------------      ----- ------------  ---------------
     4      1.897325  1 O  s                 11      1.647073  1 O  px         
    32     -1.491207  2 H  s                 46     -1.422474  3 H  s          
    12      1.162120  1 O  py                52     -1.006339  3 H  py         
    37     -0.924215  2 H  px                38      0.431726  2 H  py         
     2      0.187150  1 O  s          

 Vector   14  Occ=0.000000D+00  E= 8.452664D-01
              MO Center=  3.7D-01,  2.3D-01, -2.3D-06, r^2= 1.7D+00
   Bfn.  Coefficient  Atom+Function         Bfn.  Coefficient  Atom+Function  
  ----- ------------  ---------------      ----- ------------  ---------------
    53     -0.840517  3 H  pz                39      0.827122  2 H  pz         

 Vector   15  Occ=0.000000D+00  E= 9.736761D-01
              MO Center=  6.8D-02,  5.8D-02,  8.9D-06, r^2= 2.1D+00
   Bfn.  Coefficient  Atom+Function         Bfn.  Coefficient  Atom+Function  
  ----- ------------  ---------------      ----- ------------  ---------------
    13      1.310154  1 O  pz                39     -1.020249  2 H  pz         
    53     -0.985751  3 H  pz         


 center of mass
 --------------
 x =  -0.07599894 y =  -0.05100044 z =   0.00000000

 moments of inertia (a.u.)
 ------------------
           3.637625824038           1.240657508291           0.000000000000
           1.240657508291           2.833002082974           0.000000000000
           0.000000000000           0.000000000000           6.470627907012

  Mulliken analysis of the total density
  --------------------------------------

    Atom       Charge   Shell Charges
 -----------   ------   -------------------------------------------------------
    1 O    8     8.48   1.95  1.00  0.23  0.60  1.28  2.11  1.30  0.00  0.02  0.00
    2 H    1     0.76   0.26  0.37  0.04  0.02  0.06  0.01
    3 H    1     0.76   0.25  0.38  0.05  0.02  0.06  0.01

       Multipole analysis of the density wrt the origin
       ------------------------------------------------

     L   x y z        total         open         nuclear
     -   - - -        -----         ----         -------
     0   0 0 0     -0.000000      0.000000     10.000000

     1   1 0 0      0.591467      0.000000     -0.000000
     1   0 1 0      0.401882      0.000000      0.000000
     1   0 0 1      0.000009      0.000000      0.000000

     2   2 0 0     -4.090375      0.000000      2.679864
     2   1 1 0     -0.812757      0.000000     -1.319030
     2   1 0 1     -0.000001      0.000000      0.000000
     2   0 2 0     -3.520655      0.000000      3.550325
     2   0 1 1     -0.000001      0.000000      0.000000
     2   0 0 2     -5.487505      0.000000      0.000000


 Parallel integral file used      16 records with       0 large values

                   NWChem Extensible Many-Electron Theory Module
                   ---------------------------------------------

              ======================================================
                   This portion of the program was automatically
                  generated by a Tensor Contraction Engine (TCE).
                  The development of this portion of the program
                 and TCE was supported by US Department of Energy,
                Office of Science, Office of Basic Energy Science.
                      TCE is a product of Battelle and PNNL.
              Please cite: S.Hirata, J.Phys.Chem.A 107, 9887 (2003).
              ======================================================

                                        H2O


            General Information
            -------------------
      Number of processors :     1
         Wavefunction type : Restricted Hartree-Fock
          No. of electrons :    10
           Alpha electrons :     5
            Beta electrons :     5
           No. of orbitals :   116
            Alpha orbitals :    58
             Beta orbitals :    58
        Alpha frozen cores :     0
         Beta frozen cores :     0
     Alpha frozen virtuals :     0
      Beta frozen virtuals :     0
         Spin multiplicity : singlet 
    Number of AO functions :    58
       Number of AO shells :    22
        Use of symmetry is : off
      Symmetry adaption is : off
         Schwarz screening : 0.10D-09

          Correlation Information
          -----------------------
          Calculation type : Coupled-cluster singles & doubles                           
   Perturbative correction : none                                                        
            Max iterations :      100
        Residual threshold : 0.10D-06
     T(0) DIIS level shift : 0.00D+00
     L(0) DIIS level shift : 0.00D+00
     T(1) DIIS level shift : 0.00D+00
     L(1) DIIS level shift : 0.00D+00
     T(R) DIIS level shift : 0.00D+00
     T(I) DIIS level shift : 0.00D+00
   CC-T/L Amplitude update :  5-th order DIIS
                I/O scheme : Global Array Library
        L-threshold :  0.10D-06
        EOM-threshold :  0.10D-06
 no EOMCCSD initial starts read in
 TCE RESTART OPTIONS
 READ_INT:   F
 WRITE_INT:  F
 READ_TA:    F
 WRITE_TA:   F
 READ_XA:    F
 WRITE_XA:   F
 READ_IN3:   F
 WRITE_IN3:  F
 SLICE:      F
 D4D5:       F
 quantumc:   F
 qrotation:  F
 pwtce:      F
 qducc:      T
 nacto:                         0
 nrotv:                         0
 nrot:                          0

            Memory Information
            ------------------
          Available GA space size is    1610609372 doubles
          Available MA space size is    1610609772 doubles

 Maximum block size        32 doubles

 tile_dim =     27

 Block   Spin    Irrep     Size     Offset   Alpha
 -------------------------------------------------
   1    alpha     a      5 doubles       0       1
   2    beta      a      5 doubles       5       1
   3    alpha     a     26 doubles      10       3
   4    alpha     a     27 doubles      36       4
   5    beta      a     26 doubles      63       3
   6    beta      a     27 doubles      89       4

 Global array virtual files algorithm will be used

 Parallel file system coherency ......... OK

 Integral file          = ./H2O.aoints.0
 Record size in doubles =  65536        No. of integs per rec  =  43688
 Max. records in memory =     49        Max. records in file   = 280325
 No. of bits per label  =      8        No. of bits per value  =     64


 #quartets = 3.213D+04 #integrals = 6.608D+05 #direct =  0.0% #cached =100.0%


 Fock matrix recomputed
 1-e file size   =             3364
 1-e file name   = ./H2O.f1
 Cpu & wall time / sec            0.1            0.1
 4-electron integrals stored in orbital form

 v2    file size   =          3631290
 4-index algorithm nr.  13 is used
 imaxsize =       30
 imaxsize ichop =        0
 Cpu & wall time / sec            1.2            1.2
 T1-number-of-tasks                    2

 t1 file size   =              265
 t1 file name   = ./H2O.t1
 t1 file handle =       -998
 T2-number-of-boxes                    7

 t2 file size   =           122900
 t2 file name   = ./H2O.t2
 t2 file handle =       -996
CCSD iterations
 ---------------------------------------------------------
 Iter          Residuum       Correlation     Cpu    Wall 
 ---------------------------------------------------------
NEW TASK SCHEDULING
CCSD_T1_NTS --- OK
CCSD_T2_NTS --- OK
    1   1.1967173797134  -0.4483271560448     0.2     0.2
    2   2.2966938878379   0.0774012782421     0.2     0.2
    3   4.7060278448614  -0.9810636189357     0.2     0.2
    4  10.2417432721800   1.1347712706765     0.2     0.2
    5  11.7133892359644  -2.7342095713041     0.2     0.2
 MICROCYCLE DIIS UPDATE:                    5                    5
    6   0.0878595552903  -0.2777071356971     0.2     0.2
    7   0.0901441460990  -0.2788028285900     0.2     0.2
    8   0.1811153310905  -0.2732822905260     0.2     0.2
    9   0.4055706379941  -0.2706459346068     0.2     0.2
   10   0.9550352972206  -0.1049629404359     0.2     0.2
 MICROCYCLE DIIS UPDATE:                   10                    5
   11   0.0105501245902  -0.2816504455061     0.2     0.2
   12   0.0072423065144  -0.2814768558458     0.1     0.2
   13   0.0136674055332  -0.2827322366795     0.2     0.2
   14   0.0326982908145  -0.2793875984622     0.2     0.2
   15   0.0792261480965  -0.2874739946991     0.2     0.2
 MICROCYCLE DIIS UPDATE:                   15                    5
   16   0.0005725893658  -0.2819357637879     0.2     0.2
   17   0.0005556583167  -0.2818528276098     0.2     0.2
   18   0.0009765924382  -0.2820388934903     0.2     0.2
   19   0.0020194103339  -0.2816581121654     0.2     0.2
   20   0.0043193719332  -0.2824566997214     0.2     0.2
 MICROCYCLE DIIS UPDATE:                   20                    5
   21   0.0000617551499  -0.2819160665868     0.2     0.2
   22   0.0000599035696  -0.2819176775394     0.2     0.2
   23   0.0001069390605  -0.2819164426843     0.2     0.2
   24   0.0002464427687  -0.2819140274948     0.2     0.2
   25   0.0005804173025  -0.2819306952114     0.2     0.2
 MICROCYCLE DIIS UPDATE:                   25                    5
   26   0.0000135140657  -0.2819174616783     0.2     0.2
   27   0.0000123249092  -0.2819158812833     0.2     0.2
   28   0.0000206505107  -0.2819194992884     0.2     0.2
   29   0.0000425321764  -0.2819118292063     0.2     0.2
   30   0.0000905820730  -0.2819280811821     0.2     0.2
 MICROCYCLE DIIS UPDATE:                   30                    5
   31   0.0000021483889  -0.2819170149881     0.2     0.2
   32   0.0000026914764  -0.2819170290881     0.2     0.2
   33   0.0000055309019  -0.2819170786120     0.2     0.2
   34   0.0000129157560  -0.2819167605903     0.2     0.2
   35   0.0000305716257  -0.2819179481498     0.1     0.2
 MICROCYCLE DIIS UPDATE:                   35                    5
   36   0.0000004570671  -0.2819170424919     0.2     0.2
   37   0.0000003445833  -0.2819170053415     0.2     0.2
   38   0.0000005103849  -0.2819170930467     0.2     0.2
   39   0.0000010401827  -0.2819169055394     0.2     0.2
   40   0.0000022290194  -0.2819173030823     0.2     0.2
 MICROCYCLE DIIS UPDATE:                   40                    5
   41   0.0000000706301  -0.2819170307654     0.2     0.2
 -----------------------------------------------------------------
 Iterations converged
 CCSD correlation energy / hartree =        -0.281917030765394
 CCSD total energy / hartree       =       -76.336235387035444

 Singles contributions

 Doubles contributions
     6a   (alpha)     7a   (alpha) ---     4a   (alpha)     5a   (alpha)        0.0207129840
     6a   (alpha)     7a   (alpha) ---     5a   (alpha)     4a   (alpha)       -0.0207129840
     6a   (alpha)     8a   (alpha) ---     3a   (alpha)     5a   (alpha)        0.0246278002
     6a   (alpha)     8a   (alpha) ---     5a   (alpha)     3a   (alpha)       -0.0246278002
     7a   (alpha)     6a   (alpha) ---     4a   (alpha)     5a   (alpha)       -0.0207129840
     7a   (alpha)     6a   (alpha) ---     5a   (alpha)     4a   (alpha)        0.0207129840
     7a   (alpha)     8a   (alpha) ---     3a   (alpha)     4a   (alpha)        0.0244754483
     7a   (alpha)     8a   (alpha) ---     4a   (alpha)     3a   (alpha)       -0.0244754483
     8a   (alpha)     6a   (alpha) ---     3a   (alpha)     5a   (alpha)       -0.0246278002
     8a   (alpha)     6a   (alpha) ---     5a   (alpha)     3a   (alpha)        0.0246278002
     8a   (alpha)     7a   (alpha) ---     3a   (alpha)     4a   (alpha)       -0.0244754483
     8a   (alpha)     7a   (alpha) ---     4a   (alpha)     3a   (alpha)        0.0244754483
     6a   (alpha)     6a   (beta ) ---     5a   (alpha)     5a   (beta )       -0.0738363375
     6a   (alpha)     7a   (beta ) ---     4a   (alpha)     4a   (beta )       -0.0202069561
     6a   (alpha)     7a   (beta ) ---     5a   (alpha)     4a   (beta )       -0.0241641855
     6a   (alpha)     8a   (beta ) ---     5a   (alpha)     3a   (beta )       -0.0338730916
     7a   (alpha)     6a   (beta ) ---     4a   (alpha)     4a   (beta )       -0.0202069561
     7a   (alpha)     6a   (beta ) ---     4a   (alpha)     5a   (beta )       -0.0241641855
     7a   (alpha)     7a   (beta ) ---     4a   (alpha)     4a   (beta )       -0.0688316296
     7a   (alpha)     8a   (beta ) ---     4a   (alpha)     3a   (beta )       -0.0335796088
     8a   (alpha)     6a   (beta ) ---     3a   (alpha)     5a   (beta )       -0.0338730916
     8a   (alpha)     7a   (beta ) ---     3a   (alpha)     4a   (beta )       -0.0335796088
     8a   (alpha)     8a   (beta ) ---     3a   (alpha)     3a   (beta )       -0.0523656593
     8a   (alpha)    16a   (beta ) ---     3a   (alpha)     2a   (beta )       -0.0219588262
    16a   (alpha)     8a   (beta ) ---     2a   (alpha)     3a   (beta )       -0.0219588262
 Ground state specification:
 exp(T)|Ref>~(1+T)|Ref>
 ------- a(p)+/a(q) strings ----------

 singles norm

 doubles norm

 Reference string
   1.0000000000000000      :(1a)+ (2a)+ (3a)+ (4a)+ (5a)+ (1b)+ (2b)+ (3b)+ (4b)+ (5b)+ |0>

 Singles strings

 Doubles strings
 -------------------------------------
 enrep_tce =    9.1011739597310548     
  EHF(total)         =       -76.05431836
  Shift (HFtot-HFA)  =         0.00000000
 ALL OCCUPIED ORBITALS ARE ACTIVE IN DUCC --> NO SHIFT
 Number of active orbitals                    8
 Number of active alpha electrons                    5
 Number of active beta electrons                    5
  nos                    10
  nvs                   106
 noas                     5
 nobs                     5
 nvas                    53
 nvbs                    53
 nactv                     3
 DUCC MODEL =                     6
 NONHF =  T
 F-T1 correlation    =   -4.4779639508727230E-005
 V-T1-T1 correlation =    7.8856633066183174E-006
 V-T2 correlation    =  -0.28188013678925922     
 Total correlation   =  -0.28191703076546132     
 F-T1(Ext) correlation         =   -5.0751617067587188E-005
 V-T1(Ext)-T1(Ext) correlation =    1.7882977030886125E-006
 V-T2(Ext) correlation         =  -0.19512474961776938     
 Total Ext correlation         =  -0.19517371293713387     
1-BODY TIME =  234.542 SECONDS.
  HHHH TIME =  226.584 SECONDS.
  PPPP TIME =    0.565 SECONDS.
  HHHP TIME =   16.154 SECONDS.
  PPPH TIME =    1.293 SECONDS.
  HPHP TIME =   14.727 SECONDS.
  HHPP TIME =    6.630 SECONDS.
 ONE-BODY UNITARY CHECK
 TWO-BODY UNITARY CHECK
                    1                    1                    1                    2   2.5750607994792210E-011
                    1                    1                    1                    4  -2.7488760594081505E-011
                    1                    1                    1                    5  -2.1011488197565808E-011
                    1                    1                    2                    1  -2.5750621381069298E-011
                    1                    1                    2                    4  -2.2268115450249454E-011
                    1                    1                    2                    5  -1.4039781268693114E-011
                    1                    1                    4                    1   2.7488757757620662E-011
                    1                    1                    4                    2   2.2268115457501966E-011
                    1                    1                    4                    5  -1.5516003426821785E-012
                    1                    1                    5                    1   2.1011490673117203E-011
                    1                    1                    5                    2   1.4039781433301643E-011
                    1                    1                    5                    4   1.5516003408972778E-012
                    1                    2                    1                    1  -2.5750607994792210E-011
                    1                    2                    1                    4   4.3371678644377187E-011
                    1                    2                    1                    5   3.5252635879889915E-011
                    1                    2                    2                    1   2.0369750330928582E-010
                    1                    2                    2                    2  -4.0464533745822739E-010
                    1                    2                    2                    4  -1.7454709032305171E-010
                    1                    2                    2                    5  -1.4513041983466035E-010
                    1                    2                    3                    3  -2.2014354533308735E-012
                    1                    2                    4                    1  -1.1199811304068996E-010
                    1                    2                    4                    2   4.5219952955755094E-010
                    1                    2                    4                    4  -8.6549506318584102E-011
                    1                    2                    4                    5  -9.1550292923746812E-011
                    1                    2                    5                    1  -8.0035105279319119E-011
                    1                    2                    5                    2   3.3283789266369546E-010
                    1                    2                    5                    4  -1.0166393427988685E-010
                    1                    2                    5                    5  -2.0775280231456891E-011
                    1                    3                    2                    3  -5.9737601410675412E-010
                    1                    3                    3                    1   2.5962409999635838E-010
                    1                    3                    3                    2  -4.0321695982115102E-010
                    1                    3                    3                    4  -6.2490247178248470E-010
                    1                    3                    3                    5  -4.8261651012376783E-010
                    1                    3                    4                    3   1.2945879923620396E-009
                    1                    3                    5                    3   9.6587282269466890E-010
                    1                    4                    1                    1   2.7488760594081505E-011
                    1                    4                    1                    2  -4.3371678644377187E-011
                    1                    4                    2                    1  -7.6587026651142587E-011
                    1                    4                    2                    2   1.2338118624071823E-010
                    1                    4                    2                    4  -2.1405657758474805E-010
                    1                    4                    2                    5   2.7380056778276334E-010
                    1                    4                    3                    3   4.5881087381181559E-011
                    1                    4                    4                    1  -5.8954729986737675E-011
                    1                    4                    4                    2   5.2508362848729950E-010
                    1                    4                    4                    4  -1.2006153262594334E-010
                    1                    4                    4                    5  -8.2000518961816704E-010
                    1                    4                    5                    1   5.1369009740342975E-011
                    1                    4                    5                    2  -5.7378826975271755E-010
                    1                    4                    5                    4   1.2719797385513099E-009
                    1                    4                    5                    5   5.7053635462837981E-011
                    1                    5                    1                    1   2.1011488197565808E-011
                    1                    5                    1                    2  -3.5252635879889915E-011
                    1                    5                    2                    1  -5.1111149167171188E-011
                    1                    5                    2                    2   7.4444007086716907E-011
                    1                    5                    2                    4   2.9806503904386918E-010
                    1                    5                    2                    5  -4.2088172747326014E-010
                    1                    5                    3                    3   3.3667423311665425E-011
                    1                    5                    4                    1   4.9351033676314771E-011
                    1                    5                    4                    2  -5.6834118021968139E-010
                    1                    5                    4                    4   2.1143364997785166E-010
                    1                    5                    4                    5   1.4794073674440078E-009
                    1                    5                    5                    1  -1.1856859938319531E-010
                    1                    5                    5                    2   1.0317516311794672E-009
                    1                    5                    5                    4  -1.4127589540932628E-009
                    1                    5                    5                    5  -2.8649799920475753E-010
                    1                    6                    1                    7  -2.4670058357267877E-010
                    1                    6                    1                    9  -8.4820803158969227E-011
                    1                    6                    1                   10  -5.8902674404670563E-011
                    1                    6                    2                    6   1.5132260722250379E-010
                    1                    6                    2                    7  -7.6620514967429276E-010
                    1                    6                    2                    9   1.1732996909111226E-010
                    1                    6                    2                   10   7.9424316732842892E-011
                    1                    6                    3                    8  -4.1812617604386482E-010
                    1                    6                    4                    6   1.9635959525032831E-011
                    1                    6                    4                    7  -5.6408503085539352E-011
                    1                    6                    4                    9  -7.7002883236421127E-011
                    1                    6                    4                   10   2.2376946129387676E-010
                    1                    6                    5                    6   1.1437434332961516E-011
                    1                    6                    5                    7  -3.7486416423239410E-011
                    1                    6                    5                    9   2.3111736222741763E-010
                    1                    6                    5                   10  -2.0966511513065278E-010
                    1                    6                    6                    2   2.7245115885587978E-010
                    1                    6                    6                    4   5.7332166791823624E-011
                    1                    6                    6                    5   3.7891564885761397E-011
                    1                    6                    7                    1  -1.7707318250570481E-010
                    1                    6                    7                    2   7.6620514967429276E-010
                    1                    6                    7                    4  -1.3959809263414114E-010
                    1                    6                    7                    5  -9.3464101258780574E-011
                    1                    6                    8                    3   4.1812617604386482E-010
                    1                    6                    9                    1   7.8526768421127713E-012
                    1                    6                    9                    2   7.8676626194887356E-011
                    1                    6                    9                    4   7.7002883236421127E-011
                    1                    6                    9                    5  -2.2532105781875034E-010
                    1                    6                   10                    1   9.5736751859476499E-012
                    1                    6                   10                    2   5.1526201491278179E-011
                    1                    6                   10                    4  -2.2956576570254406E-010
                    1                    6                   10                    5   2.0966511513065278E-010
                    1                    7                    1                    6   2.4670058357267877E-010
                    1                    7                    1                    9   4.3441687747058921E-011
                    1                    7                    1                   10   3.2206366046283463E-011
                    1                    7                    2                    6   2.9921438937652312E-010
                    1                    7                    2                    7  -7.4348635581422684E-010
                    1                    7                    2                    9   8.4381712641551365E-010
                    1                    7                    2                   10   6.6811989100912239E-010
                    1                    7                    3                    7  -1.5629836749804287E-012
                    1                    7                    3                    8   1.3154288977523798E-009
                    1                    7                    4                    6  -3.1550930184448545E-010
                    1                    7                    4                    7   1.9225467138422880E-009
                    1                    7                    4                    9  -6.6866305895030287E-011
                    1                    7                    4                   10  -6.7739798758357020E-010
                    1                    7                    5                    6  -2.3230371098970082E-010
[...]
    8    2    3    1       -0.0190719764
    8    2    3    2       -0.0510656027
    8    2    3    3        0.0000084198
    8    2    3    4       -0.0066729989
    8    2    3    5       -0.0049420603
    8    2    3    6        0.0140167216
    8    2    3    7        0.0093288131
    8    2    3    8       -0.0000072503
    8    3    3    1        0.0000028162
    8    3    3    2        0.0000117542
    8    3    3    3       -0.1994469849
    8    3    3    4        0.0000014537
    8    3    3    5        0.0000011477
    8    3    3    6       -0.0000073027
    8    3    3    7       -0.0000052402
    8    3    3    8        0.1608604951
    8    4    3    1       -0.0039210710
    8    4    3    2       -0.0013071997
    8    4    3    3       -0.0000064566
    8    4    3    4       -0.0058947331
    8    4    3    5       -0.0004838017
    8    4    3    6        0.0078259899
    8    4    3    7        0.0163235099
    8    4    3    8        0.0000032328
    8    5    3    1       -0.0028804674
    8    5    3    2       -0.0009709114
    8    5    3    3       -0.0000042720
    8    5    3    4       -0.0004734013
    8    5    3    5       -0.0053914603
    8    5    3    6        0.0163342001
    8    5    3    7       -0.0040889872
    8    5    3    8        0.0000019743
    8    6    3    1        0.0081851889
    8    6    3    2        0.0302200071
    8    6    3    3       -0.0000084853
    8    6    3    4        0.0160198996
    8    6    3    5        0.0278054526
    8    6    3    6       -0.0196417825
    8    6    3    7       -0.0025767538
    8    6    3    8        0.0000020118
    8    7    3    1        0.0054840112
    8    7    3    2        0.0201897541
    8    7    3    3       -0.0000057689
    8    7    3    4        0.0275597295
    8    7    3    5       -0.0041749476
    8    7    3    6       -0.0026015443
    8    7    3    7       -0.0173832667
    8    7    3    8        0.0000013436
    8    8    3    1       -0.0000026401
    8    8    3    2       -0.0000213597
    8    8    3    3        0.6582614448
    8    8    3    4       -0.0000048831
    8    8    3    5       -0.0000037729
    8    8    3    6        0.0000082139
    8    8    3    7        0.0000058887
    8    8    3    8       -0.1894370417
    8    1    4    1        0.0000002989
    8    1    4    2       -0.0000027992
    8    1    4    3       -0.0090485325
    8    1    4    4       -0.0000024754
    8    1    4    5       -0.0000007368
    8    1    4    6        0.0000012842
    8    1    4    7        0.0000013048
    8    1    4    8        0.0048582735
    8    2    4    1       -0.0000013984
    8    2    4    2       -0.0000034371
    8    2    4    3       -0.0061741069
    8    2    4    4       -0.0000026010
    8    2    4    5       -0.0000002747
    8    2    4    6        0.0000018643
    8    2    4    7        0.0000018235
    8    2    4    8        0.0050336370
    8    3    4    1        0.0037326946
    8    3    4    2        0.0038647808
    8    3    4    3        0.0000012978
    8    3    4    4       -0.1441247499
    8    3    4    5       -0.0033619847
    8    3    4    6        0.0423140516
    8    3    4    7        0.1131290531
    8    3    4    8        0.0000032328
    8    4    4    1        0.0000008153
    8    4    4    2       -0.0000002224
    8    4    4    3       -0.0051853379
    8    4    4    4       -0.0000079627
    8    4    4    5        0.0000001369
    8    4    4    6        0.0000013491
    8    4    4    7        0.0000032761
    8    4    4    8        0.0175968699
    8    5    4    1       -0.0000001085
    8    5    4    2        0.0000003767
    8    5    4    3       -0.0004982584
    8    5    4    4       -0.0000032670
    8    5    4    5       -0.0000005838
    8    5    4    6        0.0000014927
    8    5    4    7        0.0000033041
    8    5    4    8        0.0017260381
    8    6    4    1       -0.0000000884
    8    6    4    2        0.0000022976
    8    6    4    3        0.0159706774
    8    6    4    4        0.0000018778
    8    6    4    5        0.0000004725
    8    6    4    6       -0.0000002297
    8    6    4    7       -0.0000002360
    8    6    4    8       -0.0028956317
    8    7    4    1       -0.0000012830
    8    7    4    2       -0.0000011883
    8    7    4    3        0.0268240188
    8    7    4    4       -0.0000008705
    8    7    4    5        0.0000009334
    8    7    4    6        0.0000000203
    8    7    4    7        0.0000000010
    8    7    4    8       -0.0067841719
    8    8    4    1       -0.0062657744
    8    8    4    2        0.0082553034
    8    8    4    3       -0.0000048831
    8    8    4    4        0.5764649317
    8    8    4    5        0.0092004782
    8    8    4    6       -0.0558869787
    8    8    4    7       -0.1486408382
    8    8    4    8       -0.0000066497
    8    1    5    1        0.0000003002
    8    1    5    2       -0.0000019544
    8    1    5    3       -0.0066286384
    8    1    5    4       -0.0000007366
    8    1    5    5       -0.0000019219
    8    1    5    6        0.0000013453
    8    1    5    7        0.0000002915
    8    1    5    8        0.0035675994
    8    2    5    1       -0.0000009718
    8    2    5    2       -0.0000023822
    8    2    5    3       -0.0045789904
    8    2    5    4       -0.0000002737
    8    2    5    5       -0.0000023378
    8    2    5    6        0.0000019215
    8    2    5    7        0.0000004772
    8    2    5    8        0.0037685566
    8    3    5    1        0.0027039147
    8    3    5    2        0.0025918926
    8    3    5    3        0.0000010374
    8    3    5    4       -0.0033671183
    8    3    5    5       -0.1402082123
    8    3    5    6        0.1129293054
    8    3    5    7       -0.0403169049
    8    3    5    8        0.0000019743
    8    4    5    1       -0.0000000890
    8    4    5    2        0.0000003750
    8    4    5    3       -0.0005099088
    8    4    5    4        0.0000001601
    8    4    5    5       -0.0000056915
    8    4    5    6        0.0000045845
    8    4    5    7       -0.0000009726
    8    4    5    8        0.0017260381
    8    5    5    1        0.0000008659
    8    5    5    2       -0.0000004763
    8    5    5    3       -0.0046676797
    8    5    5    4       -0.0000006140
    8    5    5    5       -0.0000060068
    8    5    5    6        0.0000014082
    8    5    5    7       -0.0000010579
    8    5    5    8        0.0165533045
    8    6    5    1       -0.0000012459
    8    6    5    2       -0.0000009566
    8    6    5    3        0.0270697140
    8    6    5    4        0.0000004457
    8    6    5    5       -0.0000008059
    8    6    5    6       -0.0000000375
    8    6    5    7        0.0000000526
    8    6    5    8       -0.0066919342
    8    7    5    1        0.0000008174
    8    7    5    2        0.0000030238
    8    7    5    3       -0.0036899352
    8    7    5    4        0.0000009694
    8    7    5    5        0.0000017580
    8    7    5    6       -0.0000003204
    8    7    5    7       -0.0000000579
    8    7    5    8        0.0020557100
    8    8    5    1       -0.0045381449
    8    8    5    2        0.0061727896
    8    8    5    3       -0.0000037729
    8    8    5    4        0.0092004782
    8    8    5    5        0.5676936719
    8    8    5    6       -0.1490913442
    8    8    5    7        0.0529975258
    8    8    5    8       -0.0000044007
    8    1    6    1       -0.0000020738
    8    1    6    2        0.0000023987
    8    1    6    3        0.0107833550
    8    1    6    4        0.0000011706
    8    1    6    5        0.0000011394
    8    1    6    6       -0.0000032299
    8    1    6    7       -0.0000009517
    8    1    6    8       -0.0136312435
    8    2    6    1        0.0000014909
    8    2    6    2        0.0000052289
    8    2    6    3        0.0147330756
    8    2    6    4        0.0000020352
    8    2    6    5        0.0000025036
    8    2    6    6       -0.0000017543
    8    2    6    7       -0.0000012687
    8    2    6    8       -0.0105210617
    8    3    6    1       -0.0061839777
    8    3    6    2        0.0109318780
    8    3    6    3       -0.0000066592
    8    3    6    4        0.0403668259
    8    3    6    5        0.1096774499
    8    3    6    6       -0.1743947897
    8    3    6    7        0.0036353527
    8    3    6    8        0.0000020118
    8    4    6    1       -0.0000003801
    8    4    6    2        0.0000009890
    8    4    6    3        0.0075907686
    8    4    6    4        0.0000011270
    8    4    6    5        0.0000046064
    8    4    6    6       -0.0000064307
    8    4    6    7       -0.0000001050
    8    4    6    8       -0.0028956317
    8    5    6    1       -0.0000011633
    8    5    6    2        0.0000005215
    8    5    6    3        0.0165277235
    8    5    6    4        0.0000015986
    8    5    6    5        0.0000011711
    8    5    6    6       -0.0000057199
    8    5    6    7        0.0000004675
    8    5    6    8       -0.0066919342
    8    6    6    1        0.0000020225
    8    6    6    2        0.0000010839
    8    6    6    3       -0.0198295925
    8    6    6    4       -0.0000002773
    8    6    6    5       -0.0000001945
    8    6    6    6       -0.0000013500
    8    6    6    7        0.0000003050
    8    6    6    8        0.0342794439
    8    7    6    1       -0.0000006345
    8    7    6    2       -0.0000021208
    8    7    6    3       -0.0028038659
    8    7    6    4       -0.0000000058
    8    7    6    5       -0.0000003425
    8    7    6    6        0.0000019930
    8    7    6    7       -0.0000010044
    8    7    6    8        0.0061265309
    8    8    6    1        0.0088516657
    8    8    6    2       -0.0118559245
    8    8    6    3        0.0000082139
    8    8    6    4       -0.0558869787
    8    8    6    5       -0.1490913442
    8    8    6    6        0.5996859836
    8    8    6    7       -0.0013939042
    8    8    6    8       -0.0000054473
    8    1    7    1       -0.0000013979
    8    1    7    2        0.0000016017
    8    1    7    3        0.0072028752
    8    1    7    4        0.0000011009
    8    1    7    5        0.0000003287
    8    1    7    6       -0.0000009518
    8    1    7    7       -0.0000024704
    8    1    7    8       -0.0091226329
    8    2    7    1        0.0000010013
    8    2    7    2        0.0000035269
    8    2    7    3        0.0098271197
    8    2    7    4        0.0000023945
    8    2    7    5        0.0000002296
    8    2    7    6       -0.0000012670
    8    2    7    7       -0.0000006702
    8    2    7    8       -0.0069834517
    8    3    7    1       -0.0041342579
    8    3    7    2        0.0072218708
    8    3    7    3       -0.0000048129
    8    3    7    4        0.1098076407
    8    3    7    5       -0.0398653409
    8    3    7    6        0.0036471627
    8    3    7    7       -0.1786597570
    8    3    7    8        0.0000013436
    8    4    7    1       -0.0000012018
    8    4    7    2        0.0000004329
    8    4    7    3        0.0165419642
    8    4    7    4        0.0000031572
    8    4    7    5       -0.0000008795
    8    4    7    6       -0.0000001402
    8    4    7    7       -0.0000079156
    8    4    7    8       -0.0067841719
    8    5    7    1        0.0000005023
    8    5    7    2        0.0000006275
    8    5    7    3       -0.0044626625
    8    5    7    4        0.0000032920
    8    5    7    5       -0.0000012431
    8    5    7    6        0.0000005165
    8    5    7    7       -0.0000039252
    8    5    7    8        0.0020557100
    8    6    7    1       -0.0000006335
    8    6    7    2       -0.0000021052
    8    6    7    3       -0.0027723094
    8    6    7    4       -0.0000003123
    8    6    7    5        0.0000000995
    8    6    7    6        0.0000003121
    8    6    7    7        0.0000015060
    8    6    7    8        0.0061265309
    8    7    7    1        0.0000026029
    8    7    7    2        0.0000029008
    8    7    7    3       -0.0173986168
    8    7    7    4       -0.0000001344
    8    7    7    5       -0.0000000410
    8    7    7    6       -0.0000010146
    8    7    7    7       -0.0000018378
    8    7    7    8        0.0295312373
    8    8    7    1        0.0058955163
    8    8    7    2       -0.0076358375
    8    8    7    3        0.0000058887
    8    8    7    4       -0.1486408382
    8    8    7    5        0.0529975258
    8    8    7    6       -0.0013939042
    8    8    7    7        0.6032988006
    8    8    7    8       -0.0000035979
    8    1    8    1        0.0544686290
    8    1    8    2        0.0269472052
    8    1    8    3       -0.0000047863
    8    1    8    4        0.0045738374
    8    1    8    5        0.0033626224
    8    1    8    6       -0.0134255348
    8    1    8    7       -0.0089846833
    8    1    8    8        0.0000061589
    8    2    8    1        0.0269472052
    8    2    8    2        0.0519086144
    8    2    8    3       -0.0000056887
    8    2    8    4        0.0049301781
    8    2    8    5        0.0037007996
    8    2    8    6       -0.0113350136
    8    2    8    7       -0.0075266490
    8    2    8    8        0.0000075938
    8    3    8    1       -0.0000047863
    8    3    8    2       -0.0000056887
    8    3    8    3        0.1569468706
    8    3    8    4        0.0000036410
    8    3    8    5        0.0000022876
    8    3    8    6        0.0000018859
    8    3    8    7        0.0000012630
    8    3    8    8       -0.1894370417
    8    4    8    1        0.0045738374
    8    4    8    2        0.0049301781
    8    4    8    3        0.0000036410
    8    4    8    4        0.0170883101
    8    4    8    5        0.0016167749
    8    4    8    6       -0.0029198306
    8    4    8    7       -0.0070959553
    8    4    8    8       -0.0000066497
    8    5    8    1        0.0033626224
    8    5    8    2        0.0037007996
    8    5    8    3        0.0000022876
    8    5    8    4        0.0016167749
    8    5    8    5        0.0162352711
    8    5    8    6       -0.0069952176
    8    5    8    7        0.0022520200
    8    5    8    8       -0.0000044007
    8    6    8    1       -0.0134255348
    8    6    8    2       -0.0113350136
    8    6    8    3        0.0000018859
    8    6    8    4       -0.0029198306
    8    6    8    5       -0.0069952176
    8    6    8    6        0.0342956094
    8    6    8    7        0.0060979005
    8    6    8    8       -0.0000054473
    8    7    8    1       -0.0089846833
    8    7    8    2       -0.0075266490
    8    7    8    3        0.0000012630
    8    7    8    4       -0.0070959553
    8    7    8    5        0.0022520200
    8    7    8    6        0.0060979005
    8    7    8    7        0.0295712555
    8    7    8    8       -0.0000035979
    8    8    8    1        0.0000061589
    8    8    8    2        0.0000075938
    8    8    8    3       -0.1894370417
    8    8    8    4       -0.0000066497
    8    8    8    5       -0.0000044007
    8    8    8    6       -0.0000054473
    8    8    8    7       -0.0000035979
    8    8    8    8        0.6295547175
 end_two_electron_integrals

 Parallel integral file used      16 records with       0 large values


 Task  times  cpu:      521.1s     wall:      523.0s


                                NWChem Input Module
                                -------------------


 Summary of allocated global arrays
-----------------------------------
  No active global arrays


MA_summarize_allocated_blocks: starting scan ...
MA_summarize_allocated_blocks: scan completed: 0 heap blocks, 0 stack blocks
MA usage statistics:

	allocation statistics:
					      heap	     stack
					      ----	     -----
	current number of blocks	         0	         0
	maximum number of blocks	        18	        42
	current total bytes		         0	         0
	maximum total bytes		  25775960	4725685720
	maximum total K-bytes		     25776	   4725686
	maximum total M-bytes		        26	      4726


                                     CITATION
                                     --------
                Please cite the following reference when publishing
                           results obtained with NWChem:

          E. Apra, E. J. Bylaska, W. A. de Jong, N. Govind, K. Kowalski,
       T. P. Straatsma, M. Valiev, H. J. J. van Dam, Y. Alexeev, J. Anchell,
       V. Anisimov, F. W. Aquino, R. Atta-Fynn, J. Autschbach, N. P. Bauman,
     J. C. Becca, D. E. Bernholdt, K. Bhaskaran-Nair, S. Bogatko, P. Borowski,
         J. Boschen, J. Brabec, A. Bruner, E. Cauet, Y. Chen, G. N. Chuev,
      C. J. Cramer, J. Daily, M. J. O. Deegan, T. H. Dunning Jr., M. Dupuis,
   K. G. Dyall, G. I. Fann, S. A. Fischer, A. Fonari, H. Fruchtl, L. Gagliardi,
      J. Garza, N. Gawande, S. Ghosh, K. Glaesemann, A. W. Gotz, J. Hammond,
       V. Helms, E. D. Hermes, K. Hirao, S. Hirata, M. Jacquelin, L. Jensen,
   B. G. Johnson, H. Jonsson, R. A. Kendall, M. Klemm, R. Kobayashi, V. Konkov,
      S. Krishnamoorthy, M. Krishnan, Z. Lin, R. D. Lins, R. J. Littlefield,
      A. J. Logsdail, K. Lopata, W. Ma, A. V. Marenich, J. Martin del Campo,
   D. Mejia-Rodriguez, J. E. Moore, J. M. Mullin, T. Nakajima, D. R. Nascimento,
    J. A. Nichols, P. J. Nichols, J. Nieplocha, A. Otero-de-la-Roza, B. Palmer,
    A. Panyala, T. Pirojsirikul, B. Peng, R. Peverati, J. Pittner, L. Pollack,
   R. M. Richard, P. Sadayappan, G. C. Schatz, W. A. Shelton, D. W. Silverstein,
   D. M. A. Smith, T. A. Soares, D. Song, M. Swart, H. L. Taylor, G. S. Thomas,
            V. Tipparaju, D. G. Truhlar, K. Tsemekhman, T. Van Voorhis,
      A. Vazquez-Mayagoitia, P. Verma, O. Villa, A. Vishnu, K. D. Vogiatzis,
        D. Wang, J. H. Weare, M. J. Williamson, T. L. Windus, K. Wolinski,
        A. T. Wong, Q. Wu, C. Yang, Q. Yu, M. Zacharias, Z. Zhang, Y. Zhao,
                                and R. J. Harrison
                        "NWChem: Past, present, and future
                         J. Chem. Phys. 152, 184102 (2020)
                               doi:10.1063/5.0004997

                                      AUTHORS
                                      -------
  E. Apra, E. J. Bylaska, N. Govind, K. Kowalski, M. Valiev, D. Mejia-Rodriguez,
       A. Kunitsa, N. P. Bauman, A. Panyala, W. A. de Jong, T. P. Straatsma,
        H. J. J. van Dam, D. Wang, T. L. Windus, J. Hammond, J. Autschbach,
    K. Bhaskaran-Nair, J. Brabec, K. Lopata, S. A. Fischer, S. Krishnamoorthy,
     M. Jacquelin, W. Ma, M. Klemm, O. Villa, Y. Chen, V. Anisimov, F. Aquino,
    S. Hirata, M. T. Hackler, Eric Hermes, L. Jensen, J. E. Moore, J. C. Becca,
      V. Konjkov, T. Risthaus, M. Malagoli, A. Marenich, A. Otero-de-la-Roza,
        J. Mullin, P. Nichols, R. Peverati, J. Pittner, Y. Zhao, P.-D. Fan,
        A. Fonari, M. J. Williamson, R. J. Harrison, J. R. Rehr, M. Dupuis,
     D. Silverstein, D. M. A. Smith, J. Nieplocha, V. Tipparaju, M. Krishnan,
     B. E. Van Kuiken, A. Vazquez-Mayagoitia, M. Swart, Q. Wu, T. Van Voorhis,
     A. A. Auer, M. Nooijen, L. D. Crosby, E. Brown, G. Cisneros, G. I. Fann,
   H. Fruchtl, J. Garza, K. Hirao, R. A. Kendall, J. A. Nichols, K. Tsemekhman,
    K. Wolinski, J. Anchell, D. E. Bernholdt, P. Borowski, T. Clark, D. Clerc,
   H. Dachsel, M. J. O. Deegan, K. Dyall, D. Elwood, E. Glendening, M. Gutowski,
   A. C. Hess, J. Jaffe, B. G. Johnson, J. Ju, R. Kobayashi, R. Kutteh, Z. Lin,
   R. Littlefield, X. Long, B. Meng, T. Nakajima, S. Niu, L. Pollack, M. Rosing,
   K. Glaesemann, G. Sandrone, M. Stave, H. Taylor, G. Thomas, J. H. van Lenthe,
                               A. T. Wong, Z. Zhang.

 Total times  cpu:      525.6s     wall:      530.9s
