 argument  1 = input.nw
  NWChem w/ OpenMP: maximum threads =    1



============================== echo of input deck ==============================
 echo
 start H2O
 title "H2O"

 memory total 24 gb

 geometry units bohr
 symmetry c1
        O  0.00000000  0.00000000  0.00000000
        H  0.00000000  2.58083  0.00000000
        H  1.72558000 -0.64860000  0.00000000
 end

 basis spherical
   * library cc-pVTZ
 end

 mcscf
   active  8
   actelec 10
   multiplicity 1
   maxiter 40
   vectors input h2o.mos
   vectors output h2o.mos
 end

 task mcscf

 scf
   vectors input h2o.mos
   vectors output h2o-trash.mos
   noscf
 end

 tce
   2eorb
   2emet 13
   ccsd
 end

# set tce:print_integrals T
# set tce:qorb 8
# set tce:qela 5
# set tce:qelb 5

 set tce:qducc T
 set tce:nactv 3
 set tce:nonhf T
 set tce:ducc_model 6

 set tce:printtol 0.02

 task tce
================================================================================


                                         
                                         


             Northwest Computational Chemistry Package (NWChem) 7.0.1
             --------------------------------------------------------


                    Environmental Molecular Sciences Laboratory
                       Pacific Northwest National Laboratory
                                Richland, WA 99352

                              Copyright (c) 1994-2020
                       Pacific Northwest National Laboratory
                            Battelle Memorial Institute

             NWChem is an open-source computational chemistry package
                        distributed under the terms of the
                      Educational Community License (ECL) 2.0
             A copy of the license is included with this distribution
                              in the LICENSE.TXT file

                                  ACKNOWLEDGMENT
                                  --------------

            This software and its documentation were developed at the
            EMSL at Pacific Northwest National Laboratory, a multiprogram
            national laboratory, operated for the U.S. Department of Energy
            by Battelle under Contract Number DE-AC05-76RL01830. Support
            for this work was provided by the Department of Energy Office
            of Biological and Environmental Research, Office of Basic
            Energy Sciences, and the Office of Advanced Scientific Computing.


           Job information
           ---------------

    hostname        = WE46210
    program         = /home/baum612/code/nwchem/bin/LINUX64/nwchem
    date            = Mon Nov  6 19:53:44 2023

    compiled        = Mon_Nov_06_10:06:57_2023
    source          = /home/baum612/code/nwchem
    nwchem branch   = 7.0.0
    nwchem revision = nwchem_on_git-4191-g39d87d64de
    ga revision     = 5.8.1
    use scalapack   = F
    input           = input.nw
    prefix          = H2O.
    data base       = ./H2O.db
    status          = startup
    nproc           =        1
    time left       =     -1s



           Memory information
           ------------------

    heap     =  805306362 doubles =   6144.0 Mbytes
    stack    =  805306367 doubles =   6144.0 Mbytes
    global   = 1610612736 doubles =  12288.0 Mbytes (distinct from heap & stack)
    total    = 3221225465 doubles =  24576.0 Mbytes
    verify   = yes
    hardfail = no 


           Directory information
           ---------------------

  0 permanent = .
  0 scratch   = .




                                NWChem Input Module
                                -------------------


                                        H2O
                                        ---
 Turning off AUTOSYM since
 SYMMETRY directive was detected!


          ------
          auto-z
          ------
  autoz: The atoms group into disjoint clusters
 cluster   1:    1    3
 cluster   2:    2
 Connecting clusters   1   2 via atoms    1    2 r = 1.37
  autoz: regenerating connections with new bonds
  no constraints, skipping    0.0000000000000000     
  no constraints, skipping    0.0000000000000000     


                             Geometry "geometry" -> ""
                             -------------------------

 Output coordinates in a.u. (scale by  1.000000000 to convert to a.u.)

  No.       Tag          Charge          X              Y              Z
 ---- ---------------- ---------- -------------- -------------- --------------
    1 O                    8.0000    -0.17255800    -0.19322300     0.00000000
    2 H                    1.0000    -0.17255800     2.38760700     0.00000000
    3 H                    1.0000     1.55302200    -0.84182300     0.00000000

      Atomic Mass 
      ----------- 

      O                 15.994910
      H                  1.007825


 Effective nuclear repulsion energy (a.u.)       7.7125763384

            Nuclear Dipole moment (a.u.) 
            ----------------------------
        X                 Y               Z
 ---------------- ---------------- ----------------
    -0.0000000000     0.0000000000     0.0000000000



                                Z-matrix (autoz)
                                -------- 

 Units are Angstrom for bonds and degrees for angles

      Type          Name      I     J     K     L     M      Value
      ----------- --------  ----- ----- ----- ----- ----- ----------
    1 Stretch                  1     2                       1.36572
    2 Stretch                  1     3                       0.97551
    3 Bend                     2     1     3               110.59992


            XYZ format geometry
            -------------------
     3
 geometry
 O                    -0.09131377    -0.10224922     0.00000000
 H                    -0.09131377     1.26346730     0.00000000
 H                     0.82182391    -0.44547358     0.00000000

 ==============================================================================
                                internuclear distances
 ------------------------------------------------------------------------------
       center one      |      center two      | atomic units |       a.u.
 ------------------------------------------------------------------------------
    3 H                |   1 O                |     1.84345  |     1.84345
 ------------------------------------------------------------------------------
                         number of included internuclear distances:          1
 ==============================================================================





 Summary of "ao basis" -> "" (spherical)
 ------------------------------------------------------------------------------
       Tag                 Description            Shells   Functions and Types
 ---------------- ------------------------------  ------  ---------------------
 *                          cc-pVTZ                   on all atoms 


                      Basis "ao basis" -> "ao basis" (spherical)
                      -----
  O (Oxygen)
  ----------
            Exponent  Coefficients 
       -------------- ---------------------------------------------------------
  1 S  1.53300000E+04  0.000508
  1 S  2.29900000E+03  0.003929
  1 S  5.22400000E+02  0.020243
  1 S  1.47300000E+02  0.079181
  1 S  4.75500000E+01  0.230687
  1 S  1.67600000E+01  0.433118
  1 S  6.20700000E+00  0.350260
  1 S  6.88200000E-01 -0.008154

  2 S  1.53300000E+04 -0.000115
  2 S  2.29900000E+03 -0.000895
  2 S  5.22400000E+02 -0.004636
  2 S  1.47300000E+02 -0.018724
  2 S  4.75500000E+01 -0.058463
  2 S  1.67600000E+01 -0.136463
  2 S  6.20700000E+00 -0.175740
  2 S  6.88200000E-01  0.603418

  3 S  1.75200000E+00  1.000000

  4 S  2.38400000E-01  1.000000

  5 P  3.44600000E+01  0.015928
  5 P  7.74900000E+00  0.099740
  5 P  2.28000000E+00  0.310492

  6 P  7.15600000E-01  1.000000

  7 P  2.14000000E-01  1.000000

  8 D  2.31400000E+00  1.000000

  9 D  6.45000000E-01  1.000000

 10 F  1.42800000E+00  1.000000

  H (Hydrogen)
  ------------
            Exponent  Coefficients 
       -------------- ---------------------------------------------------------
  1 S  3.38700000E+01  0.006068
  1 S  5.09500000E+00  0.045308
  1 S  1.15900000E+00  0.202822

  2 S  3.25800000E-01  1.000000

  3 S  1.02700000E-01  1.000000

  4 P  1.40700000E+00  1.000000

  5 P  3.88000000E-01  1.000000

  6 D  1.05700000E+00  1.000000



 Summary of "ao basis" -> "ao basis" (spherical)
 ------------------------------------------------------------------------------
       Tag                 Description            Shells   Functions and Types
 ---------------- ------------------------------  ------  ---------------------
 O                          cc-pVTZ                 10       30   4s3p2d1f
 H                          cc-pVTZ                  6       14   3s2p1d



                            NWChem Direct MCSCF Module
                            --------------------------


                                        H2O


     -----------------------------------
       Basis functions:             58
       Inactive shells:              0
       Active shells:                8
       Active electrons:            10
       Symmetry:                    a       
       Multiplicity:                 1
       Orbital rotations:          400
     -----------------------------------

     -----------------------------------
       E2 extrapolation:             F
       Conjugacy:                    T
       Micro CI relax:               T
       Canonical orbitals:           T
       Maximum iterations:          40
       Converge threshold:    1.00E-04
       Conjugacy resets:            20
       Initial levelshift:        0.10
     -----------------------------------

 Loading old vectors from job with title :

H2O


   input molecular orbitals = ./h2o.mos
  output molecular orbtials = ./h2o.mos

       No. of determinants:          3136


  Starting Orbital Energies
   -20.564661    -1.298247    -0.676426    -0.553495    -0.518323    -0.040815
    -0.025973    -0.015488     0.313690     0.336977     0.607709     0.721236
     0.813498     0.829097     0.968290     1.083375     1.142138     1.257924
     1.411295     1.882271     2.051520     2.056511     2.168751     2.310106
     2.663732     2.793129     3.337599     3.433583     3.446926     3.468170
     3.570187     3.613606     3.703973     3.868904     3.870263     3.995256
     4.050806     4.068002     4.180259     4.225884     4.477551     4.553697
     4.906015     5.068976     5.470159     5.785909     5.960651     6.122633
     6.671079     6.875549     6.956993     6.970706     7.088086     7.120879
     7.153022     7.555377     7.675359    11.118202

  Orbital Symmetry Irreps
a    a    a    a    a    a    a    a    a    a    a    a    a    a    a   
a    a    a    a    a    a    a    a    a    a    a    a    a    a    a   
a    a    a    a    a    a    a    a    a    a    a    a    a    a    a   
a    a    a    a    a    a    a    a    a    a    a    a    a   

 Integral file          = ./H2O.aoints.0
 Record size in doubles =  65536        No. of integs per rec  =  43688
 Max. records in memory =     49        Max. records in file   = 280295
 No. of bits per label  =      8        No. of bits per value  =     64


 #quartets = 3.213D+04 #integrals = 6.608D+05 #direct =  0.0% #cached =100.0%




          %%%%% MacroIteration   1 %%%%%


          Number of sigma calls:       17
                       o<<<<< (aa):             0.00
                       o<<<<< (bb):             0.00
                       o<<<<< (ab):             0.06
                       o<<<<< (total)           0.06
                       o<<<<< (aa) ff           0.00
                       o<<<<< (aa) gop          0.00
                       o<<<<< (aa) dot          0.00
                       o<<<<< (ab) str          0.00
                       o<<<<< (ab) gath         0.00
                       o<<<<< (ab) dotab        0.00
                       o<<<<< (ab) scat         0.00
                       o<<<<< (ab) sync         0.00
                       o<<<<< Density           0.01
                       o<<<<< Density one       0.00
                       o<<<<< Density two       0.00
                       o<<<<< Density ab        0.01
                       o<<<<< Spin adapt        0.34
                       o<<<<< Symm adapt        0.00

                       o<<<<< (ab) max sync:      0.00

           >>>| Valence CI:            -83.790149654038
           >>>| MCSCF energy:          -76.077573315638
           >>>| Gradient norm:          0.117466612D+00

                              ----- Line search ------

        step       energy         lsg     num-lsg   num-lsh   lsrat    time
      ------- ---------------- --------- --------- --------- ------- --------
       0.0000     -76.07757332 -1.74D-03  0.00D+00  0.00D+00 0.0D+00      1.0

          Number of sigma calls:       19
                       o<<<<< (aa):             0.00
                       o<<<<< (bb):             0.00
                       o<<<<< (ab):             0.06
                       o<<<<< (total)           0.06
                       o<<<<< (aa) ff           0.00
                       o<<<<< (aa) gop          0.00
                       o<<<<< (aa) dot          0.00
                       o<<<<< (ab) str          0.00
                       o<<<<< (ab) gath         0.00
                       o<<<<< (ab) dotab        0.00
                       o<<<<< (ab) scat         0.00
                       o<<<<< (ab) sync         0.00
                       o<<<<< Density           0.01
                       o<<<<< Density one       0.00
                       o<<<<< Density two       0.00
                       o<<<<< Density ab        0.01
                       o<<<<< Spin adapt        0.42
                       o<<<<< Symm adapt        0.00

                       o<<<<< (ab) max sync:      0.00
       1.0000     -76.07853657 -1.87D-04 -1.87D-04  1.55D-03 1.1D-01      1.6

          Number of sigma calls:       15
                       o<<<<< (aa):             0.00
                       o<<<<< (bb):             0.00
                       o<<<<< (ab):             0.04
                       o<<<<< (total)           0.05
                       o<<<<< (aa) ff           0.00
                       o<<<<< (aa) gop          0.00
                       o<<<<< (aa) dot          0.00
                       o<<<<< (ab) str          0.00
                       o<<<<< (ab) gath         0.00
                       o<<<<< (ab) dotab        0.00
                       o<<<<< (ab) scat         0.00
                       o<<<<< (ab) sync         0.00
                       o<<<<< Density           0.01
                       o<<<<< Density one       0.00
                       o<<<<< Density two       0.00
                       o<<<<< Density ab        0.01
                       o<<<<< Spin adapt        0.25
                       o<<<<< Symm adapt        0.00

                       o<<<<< (ab) max sync:      0.00
       1.1205     -76.07854783  9.40D-08  9.24D-08  1.55D-03 5.4D-05      1.9
     --- Orbitals canonicalized ---



          %%%%% MacroIteration   2 %%%%%


          Number of sigma calls:       15
                       o<<<<< (aa):             0.00
                       o<<<<< (bb):             0.00
                       o<<<<< (ab):             0.05
                       o<<<<< (total)           0.05
                       o<<<<< (aa) ff           0.00
                       o<<<<< (aa) gop          0.00
                       o<<<<< (aa) dot          0.00
                       o<<<<< (ab) str          0.00
                       o<<<<< (ab) gath         0.00
                       o<<<<< (ab) dotab        0.00
                       o<<<<< (ab) scat         0.00
                       o<<<<< (ab) sync         0.00
                       o<<<<< Density           0.01
                       o<<<<< Density one       0.00
                       o<<<<< Density two       0.00
                       o<<<<< Density ab        0.01
                       o<<<<< Spin adapt        0.27
                       o<<<<< Symm adapt        0.00

                       o<<<<< (ab) max sync:      0.00

           >>>| Valence CI:            -83.791124172830
           >>>| MCSCF energy:          -76.078547834429
           >>>| Gradient norm:          0.155746263D-01
     --- Conjugacy reset ---

                              ----- Line search ------

        step       energy         lsg     num-lsg   num-lsh   lsrat    time
      ------- ---------------- --------- --------- --------- ------- --------
       0.0000     -76.07854783 -7.29D-05  0.00D+00  0.00D+00 0.0D+00      2.4

          Number of sigma calls:       15
                       o<<<<< (aa):             0.00
                       o<<<<< (bb):             0.00
                       o<<<<< (ab):             0.05
                       o<<<<< (total)           0.05
                       o<<<<< (aa) ff           0.00
                       o<<<<< (aa) gop          0.00
                       o<<<<< (aa) dot          0.00
                       o<<<<< (ab) str          0.00
                       o<<<<< (ab) gath         0.00
                       o<<<<< (ab) dotab        0.00
                       o<<<<< (ab) scat         0.00
                       o<<<<< (ab) sync         0.00
                       o<<<<< Density           0.00
                       o<<<<< Density one       0.00
                       o<<<<< Density two       0.00
                       o<<<<< Density ab        0.00
                       o<<<<< Spin adapt        0.20
                       o<<<<< Symm adapt        0.00

                       o<<<<< (ab) max sync:      0.00
       1.0000     -76.07859785 -2.69D-05 -2.70D-05  4.60D-05 3.7D-01      2.8

          Number of sigma calls:       15
                       o<<<<< (aa):             0.00
                       o<<<<< (bb):             0.00
                       o<<<<< (ab):             0.04
                       o<<<<< (total)           0.04
                       o<<<<< (aa) ff           0.00
                       o<<<<< (aa) gop          0.00
                       o<<<<< (aa) dot          0.00
                       o<<<<< (ab) str          0.00
                       o<<<<< (ab) gath         0.00
                       o<<<<< (ab) dotab        0.00
                       o<<<<< (ab) scat         0.00
                       o<<<<< (ab) sync         0.00
                       o<<<<< Density           0.00
                       o<<<<< Density one       0.00
                       o<<<<< Density two       0.00
                       o<<<<< Density ab        0.00
                       o<<<<< Spin adapt        0.23
                       o<<<<< Symm adapt        0.00

                       o<<<<< (ab) max sync:      0.00
       1.5835     -76.07860550  7.61D-07  7.13D-07  4.73D-05 1.0D-02      3.1



          %%%%% MacroIteration   3 %%%%%


          Number of sigma calls:        1
                       o<<<<< (aa):             0.00
                       o<<<<< (bb):             0.00
                       o<<<<< (ab):             0.00
                       o<<<<< (total)           0.00
                       o<<<<< (aa) ff           0.00
                       o<<<<< (aa) gop          0.00
                       o<<<<< (aa) dot          0.00
                       o<<<<< (ab) str          0.00
                       o<<<<< (ab) gath         0.00
                       o<<<<< (ab) dotab        0.00
                       o<<<<< (ab) scat         0.00
                       o<<<<< (ab) sync         0.00
                       o<<<<< Density           0.01
                       o<<<<< Density one       0.00
                       o<<<<< Density two       0.00
                       o<<<<< Density ab        0.01
                       o<<<<< Spin adapt        0.00
                       o<<<<< Symm adapt        0.00

                       o<<<<< (ab) max sync:      0.00

           >>>| Valence CI:            -83.791181835064
           >>>| MCSCF energy:          -76.078605496663
           >>>| Gradient norm:          0.662643975D-02
     --- Warning:    3 Hessian diagonals < 0.05 ---

                              ----- Line search ------

        step       energy         lsg     num-lsg   num-lsh   lsrat    time
      ------- ---------------- --------- --------- --------- ------- --------
       0.0000     -76.07860550 -5.67D-06  0.00D+00  0.00D+00 0.0D+00      3.2

          Number of sigma calls:       13
                       o<<<<< (aa):             0.00
                       o<<<<< (bb):             0.00
                       o<<<<< (ab):             0.04
                       o<<<<< (total)           0.04
                       o<<<<< (aa) ff           0.00
                       o<<<<< (aa) gop          0.00
                       o<<<<< (aa) dot          0.00
                       o<<<<< (ab) str          0.00
                       o<<<<< (ab) gath         0.00
                       o<<<<< (ab) dotab        0.00
                       o<<<<< (ab) scat         0.00
                       o<<<<< (ab) sync         0.00
                       o<<<<< Density           0.01
                       o<<<<< Density one       0.00
                       o<<<<< Density two       0.00
                       o<<<<< Density ab        0.01
                       o<<<<< Spin adapt        0.29
                       o<<<<< Symm adapt        0.00

                       o<<<<< (ab) max sync:      0.00
       1.0000     -76.07860860 -5.36D-07 -5.36D-07  5.14D-06 9.4D-02      3.6



          %%%%% MacroIteration   4 %%%%%


          Number of sigma calls:        1
                       o<<<<< (aa):             0.00
                       o<<<<< (bb):             0.00
                       o<<<<< (ab):             0.00
                       o<<<<< (total)           0.00
                       o<<<<< (aa) ff           0.00
                       o<<<<< (aa) gop          0.00
                       o<<<<< (aa) dot          0.00
                       o<<<<< (ab) str          0.00
                       o<<<<< (ab) gath         0.00
                       o<<<<< (ab) dotab        0.00
                       o<<<<< (ab) scat         0.00
                       o<<<<< (ab) sync         0.00
                       o<<<<< Density           0.01
                       o<<<<< Density one       0.00
                       o<<<<< Density two       0.00
                       o<<<<< Density ab        0.01
                       o<<<<< Spin adapt        0.00
                       o<<<<< Symm adapt        0.00

                       o<<<<< (ab) max sync:      0.00

           >>>| Valence CI:            -83.791184938734
           >>>| MCSCF energy:          -76.078608600334
           >>>| Gradient norm:          0.646614232D-03
     --- Warning:    3 Hessian diagonals < 0.05 ---

                              ----- Line search ------

        step       energy         lsg     num-lsg   num-lsh   lsrat    time
      ------- ---------------- --------- --------- --------- ------- --------
       0.0000     -76.07860860 -1.93D-07  0.00D+00  0.00D+00 0.0D+00      3.8

          Number of sigma calls:       12
                       o<<<<< (aa):             0.00
                       o<<<<< (bb):             0.00
                       o<<<<< (ab):             0.03
                       o<<<<< (total)           0.03
                       o<<<<< (aa) ff           0.00
                       o<<<<< (aa) gop          0.00
                       o<<<<< (aa) dot          0.00
                       o<<<<< (ab) str          0.00
                       o<<<<< (ab) gath         0.00
                       o<<<<< (ab) dotab        0.00
                       o<<<<< (ab) scat         0.00
                       o<<<<< (ab) sync         0.00
                       o<<<<< Density           0.00
                       o<<<<< Density one       0.00
                       o<<<<< Density two       0.00
                       o<<<<< Density ab        0.00
                       o<<<<< Spin adapt        0.30
                       o<<<<< Symm adapt        0.00

                       o<<<<< (ab) max sync:      0.00
       1.0000     -76.07860874 -7.71D-08 -7.71D-08  1.15D-07 4.0D-01      4.2

          Number of sigma calls:       12
                       o<<<<< (aa):             0.00
                       o<<<<< (bb):             0.00
                       o<<<<< (ab):             0.04
                       o<<<<< (total)           0.04
                       o<<<<< (aa) ff           0.00
                       o<<<<< (aa) gop          0.00
                       o<<<<< (aa) dot          0.00
                       o<<<<< (ab) str          0.00
                       o<<<<< (ab) gath         0.00
                       o<<<<< (ab) dotab        0.00
                       o<<<<< (ab) scat         0.00
                       o<<<<< (ab) sync         0.00
                       o<<<<< Density           0.01
                       o<<<<< Density one       0.00
                       o<<<<< Density two       0.00
                       o<<<<< Density ab        0.00
                       o<<<<< Spin adapt        0.18
                       o<<<<< Symm adapt        0.00

                       o<<<<< (ab) max sync:      0.00
       1.6673     -76.07860876  1.06D-10  9.88D-11  1.16D-07 5.5D-04      4.5



          %%%%% MacroIteration   5 %%%%%


          Number of sigma calls:        1
                       o<<<<< (aa):             0.00
                       o<<<<< (bb):             0.00
                       o<<<<< (ab):             0.00
                       o<<<<< (total)           0.01
                       o<<<<< (aa) ff           0.00
                       o<<<<< (aa) gop          0.00
                       o<<<<< (aa) dot          0.00
                       o<<<<< (ab) str          0.00
                       o<<<<< (ab) gath         0.00
                       o<<<<< (ab) dotab        0.00
                       o<<<<< (ab) scat         0.00
                       o<<<<< (ab) sync         0.00
                       o<<<<< Density           0.01
                       o<<<<< Density one       0.00
                       o<<<<< Density two       0.00
                       o<<<<< Density ab        0.01
                       o<<<<< Spin adapt        0.00
                       o<<<<< Symm adapt        0.00

                       o<<<<< (ab) max sync:      0.00

           >>>| Valence CI:            -83.791185099246
           >>>| MCSCF energy:          -76.078608760845
           >>>| Gradient norm:          0.723053637D-03
     --- Warning:    3 Hessian diagonals < 0.05 ---

                              ----- Line search ------

        step       energy         lsg     num-lsg   num-lsh   lsrat    time
      ------- ---------------- --------- --------- --------- ------- --------
       0.0000     -76.07860876 -5.75D-08  0.00D+00  0.00D+00 0.0D+00      4.6

          Number of sigma calls:       11
                       o<<<<< (aa):             0.00
                       o<<<<< (bb):             0.00
                       o<<<<< (ab):             0.03
                       o<<<<< (total)           0.03
                       o<<<<< (aa) ff           0.00
                       o<<<<< (aa) gop          0.00
                       o<<<<< (aa) dot          0.00
                       o<<<<< (ab) str          0.00
                       o<<<<< (ab) gath         0.00
                       o<<<<< (ab) dotab        0.00
                       o<<<<< (ab) scat         0.00
                       o<<<<< (ab) sync         0.00
                       o<<<<< Density           0.01
                       o<<<<< Density one       0.00
                       o<<<<< Density two       0.00
                       o<<<<< Density ab        0.01
                       o<<<<< Spin adapt        0.20
                       o<<<<< Symm adapt        0.00

                       o<<<<< (ab) max sync:      0.00
       1.0000     -76.07860879 -5.49D-09 -5.49D-09  5.20D-08 9.5D-02      4.9



          %%%%% MacroIteration   6 %%%%%


          Number of sigma calls:        1
                       o<<<<< (aa):             0.00
                       o<<<<< (bb):             0.00
                       o<<<<< (ab):             0.00
                       o<<<<< (total)           0.00
                       o<<<<< (aa) ff           0.00
                       o<<<<< (aa) gop          0.00
                       o<<<<< (aa) dot          0.00
                       o<<<<< (ab) str          0.00
                       o<<<<< (ab) gath         0.00
                       o<<<<< (ab) dotab        0.00
                       o<<<<< (ab) scat         0.00
                       o<<<<< (ab) sync         0.00
                       o<<<<< Density           0.00
                       o<<<<< Density one       0.00
                       o<<<<< Density two       0.00
                       o<<<<< Density ab        0.00
                       o<<<<< Spin adapt        0.00
                       o<<<<< Symm adapt        0.00

                       o<<<<< (ab) max sync:      0.00

           >>>| Valence CI:            -83.791185130740
           >>>| MCSCF energy:          -76.078608792339
           >>>| Gradient norm:          0.617076057D-04




     ==============================
            MCSCF Converged
     ==============================



          Canonical Eigenvalues

              1      
    1  -20.5708
    2   -1.2927
    3   -0.6659
    4   -0.5409
    5   -0.5190
    6   -0.0476
    7   -0.0261
    8   -0.0152
    9    0.3157
   10    0.3392
   11    0.6052
   12    0.7403
   13    0.8042
   14    0.8389
   15    0.9647
   16    1.0589
   17    1.0914
   18    1.2773
   19    1.4105
   20    1.8442
   21    2.0345
   22    2.0536
   23    2.1711
   24    2.2681
   25    2.6990
   26    2.7790
   27    3.3415
   28    3.4248
   29    3.4250
   30    3.4367
   31    3.5504
   32    3.5744
   33    3.6422
   34    3.8372
   35    3.8601
   36    3.9684
   37    3.9951
   38    4.0557
   39    4.1468
   40    4.1853
   41    4.4533
   42    4.5027
   43    4.8536
   44    5.0114
   45    5.4124
   46    5.7432
   47    5.8699
   48    5.9844
   49    6.4788
   50    6.8670
   51    6.9250
   52    6.9343
   53    7.0027
   54    7.0950
   55    7.1053
   56    7.5144
   57    7.6703
   58   10.9793


          Converged CI vector

   Index           Coefficient          Config. Occupation
         1          0.95929536          1  2  3  4  5  1  2  3  4  5
        22         -0.07460958          1  2  3  4  5  1  2  3  4  8
         3          0.06822905          1  2  3  4  5  1  2  3  5  6
         8         -0.02106773          1  2  3  4  5  1  2  3  5  7
        27         -0.02140310          1  2  3  4  5  1  2  3  6  8
         4          0.02541856          1  2  3  4  5  1  2  4  5  6
         9          0.04242778          1  2  3  4  5  1  2  4  5  7
        38         -0.02319644          1  2  3  4  5  1  2  4  7  8
      1177         -0.07460958          1  2  3  4  8  1  2  3  4  5
      1198         -0.05158765          1  2  3  4  8  1  2  3  4  8
      1179          0.02966790          1  2  3  4  8  1  2  3  5  6
      1185          0.03032915          1  2  3  4  8  1  2  4  5  7
       113          0.06822905          1  2  3  5  6  1  2  3  4  5
       134          0.02966790          1  2  3  5  6  1  2  3  4  8
       115         -0.12860334          1  2  3  5  6  1  2  3  5  6
       116         -0.06162499          1  2  3  5  6  1  2  4  5  6
       121         -0.02139936          1  2  3  5  6  1  2  4  5  7
       117         -0.02217296          1  2  3  5  6  1  3  4  5  6
       393         -0.02106773          1  2  3  5  7  1  2  3  4  5
       401          0.02112872          1  2  3  5  7  1  2  4  5  7
      1457         -0.02140310          1  2  3  6  8  1  2  3  4  5
       169          0.02541856          1  2  4  5  6  1  2  3  4  5
       171         -0.06162499          1  2  4  5  6  1  2  3  5  6
       172         -0.04245537          1  2  4  5  6  1  2  4  5  6
       449          0.04242778          1  2  4  5  7  1  2  3  4  5
       470          0.03032915          1  2  4  5  7  1  2  3  4  8
       451         -0.02139936          1  2  4  5  7  1  2  3  5  6
       456          0.02112872          1  2  4  5  7  1  2  3  5  7
       457         -0.05987416          1  2  4  5  7  1  2  4  5  7
       458          0.02684652          1  2  4  5  7  1  3  4  5  7
      2073         -0.02319644          1  2  4  7  8  1  2  3  4  5
       227         -0.02217296          1  3  4  5  6  1  2  3  5  6
       229         -0.02207424          1  3  4  5  6  1  3  4  5  6
       513          0.02684652          1  3  4  5  7  1  2  4  5  7
       514         -0.02571908          1  3  4  5  7  1  3  4  5  7

          Number of sigma calls:        1
                       o<<<<< (aa):             0.00
                       o<<<<< (bb):             0.00
                       o<<<<< (ab):             0.00
                       o<<<<< (total)           0.00
                       o<<<<< (aa) ff           0.00
                       o<<<<< (aa) gop          0.00
                       o<<<<< (aa) dot          0.00
                       o<<<<< (ab) str          0.00
                       o<<<<< (ab) gath         0.00
                       o<<<<< (ab) dotab        0.00
                       o<<<<< (ab) scat         0.00
                       o<<<<< (ab) sync         0.00
                       o<<<<< Density           0.00
                       o<<<<< Density one       0.00
                       o<<<<< Density two       0.00
                       o<<<<< Density ab        0.00
                       o<<<<< Spin adapt        0.00
                       o<<<<< Symm adapt        0.00

                       o<<<<< (ab) max sync:      0.00



          Natural orbital occupation numbers

              1      
    1    2.0000
    2    1.9982
    3    1.9803
    4    1.9743
    5    1.9287
    6    0.0730
    7    0.0265
    8    0.0191


          Number of sigma calls:       17
                       o<<<<< (aa):             0.00
                       o<<<<< (bb):             0.00
                       o<<<<< (ab):             0.05
                       o<<<<< (total)           0.06
                       o<<<<< (aa) ff           0.00
                       o<<<<< (aa) gop          0.00
                       o<<<<< (aa) dot          0.00
                       o<<<<< (ab) str          0.00
                       o<<<<< (ab) gath         0.00
                       o<<<<< (ab) dotab        0.00
                       o<<<<< (ab) scat         0.00
                       o<<<<< (ab) sync         0.00
                       o<<<<< Density           0.01
                       o<<<<< Density one       0.00
                       o<<<<< Density two       0.00
                       o<<<<< Density ab        0.01
                       o<<<<< Spin adapt        0.31
                       o<<<<< Symm adapt        0.00

                       o<<<<< (ab) max sync:      0.00


       Final MCSCF results 
       ------------------- 

       Total MCSCF energy =    -76.078608792339
            Gradient norm =      6.2D-05

    CPU time for solution =      5.5s
   Wall time for solution =      9.6s



                        Analysis of MCSCF natural orbitals
                        ----------------------------------

 Vector    1  Occ=1.999990D+00  E=-2.057083D+01  Symmetry=a
              MO Center= -9.1D-02, -1.0D-01, -3.3D-10, r^2= 1.5D-02
   Bfn.  Coefficient  Atom+Function         Bfn.  Coefficient  Atom+Function  
  ----- ------------  ---------------      ----- ------------  ---------------
     1      0.974406  1 O  s          

 Vector    2  Occ=1.998163D+00  E=-1.292701D+00  Symmetry=a
              MO Center= -2.9D-01, -1.8D-01,  2.1D-07, r^2= 4.2D-01
   Bfn.  Coefficient  Atom+Function         Bfn.  Coefficient  Atom+Function  
  ----- ------------  ---------------      ----- ------------  ---------------
     2      0.537440  1 O  s                  4      0.397448  1 O  s          

 Vector    3  Occ=1.980265D+00  E=-6.658698D-01  Symmetry=a
              MO Center= -6.3D-02, -9.5D-02, -2.1D-07, r^2= 6.5D-01
   Bfn.  Coefficient  Atom+Function         Bfn.  Coefficient  Atom+Function  
  ----- ------------  ---------------      ----- ------------  ---------------
    10      0.435017  1 O  pz                13      0.394406  1 O  pz         
     7      0.363595  1 O  pz         

 Vector    4  Occ=1.974286D+00  E=-5.409416D-01  Symmetry=a
              MO Center=  3.4D-01, -2.2D-01, -8.5D-11, r^2= 6.0D-01
   Bfn.  Coefficient  Atom+Function         Bfn.  Coefficient  Atom+Function  
  ----- ------------  ---------------      ----- ------------  ---------------
     8      0.343990  1 O  px                 5      0.287047  1 O  px         
    46      0.267547  3 H  s                 11      0.204172  1 O  px         
    45      0.184965  3 H  s          

 Vector    5  Occ=1.928735D+00  E=-5.190401D-01  Symmetry=a
              MO Center= -4.4D-02,  4.8D-01, -1.1D-09, r^2= 9.2D-01
   Bfn.  Coefficient  Atom+Function         Bfn.  Coefficient  Atom+Function  
  ----- ------------  ---------------      ----- ------------  ---------------
     9      0.332853  1 O  py                32      0.278891  2 H  s          
     6      0.264054  1 O  py                12      0.216595  1 O  py         
    33      0.152112  2 H  s                 31      0.150028  2 H  s          

 Vector    6  Occ=7.301278D-02  E=-4.759243D-02  Symmetry=a
              MO Center= -5.5D-02,  7.2D-01, -4.8D-09, r^2= 9.0D-01
   Bfn.  Coefficient  Atom+Function         Bfn.  Coefficient  Atom+Function  
  ----- ------------  ---------------      ----- ------------  ---------------
    32      0.512698  2 H  s                  9     -0.450845  1 O  py         
     6     -0.398228  1 O  py                31      0.236195  2 H  s          
    33      0.191826  2 H  s                  2     -0.189236  1 O  s          

 Vector    7  Occ=2.647932D-02  E=-2.605968D-02  Symmetry=a
              MO Center=  5.1D-01, -2.8D-01, -1.5D-08, r^2= 6.6D-01
   Bfn.  Coefficient  Atom+Function         Bfn.  Coefficient  Atom+Function  
  ----- ------------  ---------------      ----- ------------  ---------------
    46      0.656803  3 H  s                  5     -0.507824  1 O  px         
     8     -0.436413  1 O  px                45      0.301714  3 H  s          
     2     -0.283921  1 O  s                  4     -0.215651  1 O  s          

 Vector    8  Occ=1.906933D-02  E=-1.519666D-02  Symmetry=a
              MO Center=  7.9D-04, -6.6D-02, -2.5D-07, r^2= 1.3D+00
   Bfn.  Coefficient  Atom+Function         Bfn.  Coefficient  Atom+Function  
  ----- ------------  ---------------      ----- ------------  ---------------
    13      0.834237  1 O  pz                 7     -0.614818  1 O  pz         
    10     -0.331797  1 O  pz         

 Vector    9  Occ=0.000000D+00  E= 3.156565D-01  Symmetry=a
              MO Center=  8.4D-01, -3.9D-01,  9.1D-08, r^2= 4.2D+00
   Bfn.  Coefficient  Atom+Function         Bfn.  Coefficient  Atom+Function  
  ----- ------------  ---------------      ----- ------------  ---------------
    47      1.784156  3 H  s                  4     -1.568368  1 O  s          
    11     -0.726050  1 O  px                51     -0.493651  3 H  px         
    33      0.425549  2 H  s                 32     -0.320405  2 H  s          
    52      0.194925  3 H  py         

 Vector   10  Occ=0.000000D+00  E= 3.391784D-01  Symmetry=a
              MO Center=  4.9D-02,  1.3D+00, -1.7D-09, r^2= 4.7D+00
   Bfn.  Coefficient  Atom+Function         Bfn.  Coefficient  Atom+Function  
  ----- ------------  ---------------      ----- ------------  ---------------
    33      1.963005  2 H  s                 47     -1.259827  3 H  s          
    32     -0.940645  2 H  s                 12     -0.463879  1 O  py         
    46      0.291984  3 H  s                 11      0.213349  1 O  px         
    51      0.166432  3 H  px                38     -0.154361  2 H  py         

 Vector   11  Occ=0.000000D+00  E= 6.052469D-01  Symmetry=a
              MO Center= -2.1D-01,  4.3D-01, -2.0D-08, r^2= 2.0D+00
   Bfn.  Coefficient  Atom+Function         Bfn.  Coefficient  Atom+Function  
  ----- ------------  ---------------      ----- ------------  ---------------
    46      2.412437  3 H  s                  4     -1.930465  1 O  s          
    11     -1.803927  1 O  px                51     -0.678149  3 H  px         
    12      0.386494  1 O  py                37     -0.363915  2 H  px         
    32      0.327937  2 H  s                 33     -0.239151  2 H  s          
    47      0.216947  3 H  s                  9      0.176652  1 O  py         

 Vector   12  Occ=0.000000D+00  E= 7.402840D-01  Symmetry=a
              MO Center=  7.8D-02, -4.1D-01,  2.7D-09, r^2= 2.2D+00
   Bfn.  Coefficient  Atom+Function         Bfn.  Coefficient  Atom+Function  
  ----- ------------  ---------------      ----- ------------  ---------------
    12      1.743075  1 O  py                46      1.345643  3 H  s          
    11     -1.091265  1 O  px                 4     -0.876082  1 O  s          
    32     -0.762866  2 H  s                 47      0.640424  3 H  s          
    52      0.519054  3 H  py                33     -0.487569  2 H  s          
     9     -0.452751  1 O  py                51     -0.370302  3 H  px         

 Vector   13  Occ=0.000000D+00  E= 8.041946D-01  Symmetry=a
              MO Center=  2.0D-01,  6.8D-01, -8.1D-10, r^2= 1.9D+00
   Bfn.  Coefficient  Atom+Function         Bfn.  Coefficient  Atom+Function  
  ----- ------------  ---------------      ----- ------------  ---------------
    39      0.865870  2 H  pz                53     -0.649521  3 H  pz         

 Vector   14  Occ=0.000000D+00  E= 8.389095D-01  Symmetry=a
              MO Center= -3.2D-01, -2.3D-02, -1.7D-08, r^2= 2.4D+00
   Bfn.  Coefficient  Atom+Function         Bfn.  Coefficient  Atom+Function  
  ----- ------------  ---------------      ----- ------------  ---------------
    46     -1.502015  3 H  s                 11      1.486537  1 O  px         
     4      1.196375  1 O  s                 12      1.050844  1 O  py         
    52     -0.865457  3 H  py                32     -0.818648  2 H  s          
    37     -0.773777  2 H  px                38      0.435140  2 H  py         
    47      0.254636  3 H  s                  2      0.244714  1 O  s          

 Vector   15  Occ=0.000000D+00  E= 9.647349D-01  Symmetry=a
              MO Center=  2.4D-01,  1.4D-02, -2.6D-08, r^2= 2.2D+00
   Bfn.  Coefficient  Atom+Function         Bfn.  Coefficient  Atom+Function  
  ----- ------------  ---------------      ----- ------------  ---------------
    53     -1.110690  3 H  pz                13      1.077571  1 O  pz         
    39     -0.699137  2 H  pz         

 Vector   16  Occ=0.000000D+00  E= 1.058854D+00  Symmetry=a
              MO Center=  2.8D-01,  1.6D-01,  3.2D-08, r^2= 2.4D+00
   Bfn.  Coefficient  Atom+Function         Bfn.  Coefficient  Atom+Function  
  ----- ------------  ---------------      ----- ------------  ---------------
    46     -1.896929  3 H  s                  4      1.864802  1 O  s          
    12     -1.324714  1 O  py                11      1.233062  1 O  px         
    51      1.007384  3 H  px                37     -0.840063  2 H  px         
    52      0.699105  3 H  py                47     -0.403254  3 H  s          
    32      0.373534  2 H  s                  2     -0.275771  1 O  s          

 Vector   17  Occ=0.000000D+00  E= 1.091353D+00  Symmetry=a
              MO Center=  1.2D-02,  1.1D+00,  7.7D-08, r^2= 1.7D+00
   Bfn.  Coefficient  Atom+Function         Bfn.  Coefficient  Atom+Function  
  ----- ------------  ---------------      ----- ------------  ---------------
    38      1.226476  2 H  py                 4     -0.778153  1 O  s          
     2      0.602031  1 O  s                 46      0.582011  3 H  s          
    33     -0.555439  2 H  s                 47      0.482046  3 H  s          
    11     -0.428347  1 O  px                52      0.378675  3 H  py         
     9      0.308670  1 O  py                32      0.218700  2 H  s          

 Vector   18  Occ=0.000000D+00  E= 1.277291D+00  Symmetry=a
              MO Center= -1.1D-02,  1.3D-01,  1.5D-07, r^2= 2.2D+00
   Bfn.  Coefficient  Atom+Function         Bfn.  Coefficient  Atom+Function  
  ----- ------------  ---------------      ----- ------------  ---------------
     4      5.600404  1 O  s                 46     -3.088653  3 H  s          
    51      1.806974  3 H  px                11      1.366624  1 O  px         
    38      1.187879  2 H  py                52     -1.106456  3 H  py         
     8      0.968326  1 O  px                32     -0.953691  2 H  s          
     2     -0.779149  1 O  s                 12      0.732926  1 O  py         


 Wrote Lagrangian and 1- and 2-particle density matrices to ./H2O.mcpdm


     Multipole analysis of the density
     ---------------------------------

     L   x y z        total        nuclear
     -   - - -        -----        -------
     0   0 0 0     -0.000000     10.000000

     1   1 0 0      0.549711     -0.000000
     1   0 1 0      0.414125      0.000000
     1   0 0 1      0.000000      0.000000

     2   2 0 0     -4.381514      2.679864
     2   1 1 0     -0.846180     -1.452633
     2   1 0 1     -0.000000      0.000000
     2   0 2 0     -3.043482      6.708014
     2   0 1 1     -0.000000      0.000000
     2   0 0 2     -5.788551      0.000000


  Mulliken analysis of the total density
  --------------------------------------

    Atom       Charge   Shell Charges
 -----------   ------   -------------------------------------------------------
    1 O    8     8.46   1.95  1.03  0.24  0.63  1.24  2.01  1.34  0.00  0.01  0.00
    2 H    1     0.79   0.16  0.42  0.16  0.00  0.04  0.00
    3 H    1     0.76   0.25  0.38  0.04  0.02  0.06  0.01

    Mulliken analysis of the active space density
    ---------------------------------------------

    Atom       Charge   Shell Charges
 -----------   ------   -------------------------------------------------------
    1 O    8     8.46   1.95  1.03  0.24  0.63  1.24  2.01  1.34  0.00  0.01  0.00
    2 H    1     0.79   0.16  0.42  0.16  0.00  0.04  0.00
    3 H    1     0.76   0.25  0.38  0.04  0.02  0.06  0.01

 Parallel integral file used      16 records with       0 large values


 Task  times  cpu:        5.5s     wall:        9.6s


                                NWChem Input Module
                                -------------------


                                 NWChem SCF Module
                                 -----------------


                                        H2O



  ao basis        = "ao basis"
  functions       =    58
  atoms           =     3
  closed shells   =     5
  open shells     =     0
  charge          =   0.00
  wavefunction    = RHF 
  input vectors   = ./h2o.mos
  output vectors  = ./h2o-trash.mos
  use symmetry    = F
  symmetry adapt  = F


 Summary of "ao basis" -> "ao basis" (spherical)
 ------------------------------------------------------------------------------
       Tag                 Description            Shells   Functions and Types
 ---------------- ------------------------------  ------  ---------------------
 O                          cc-pVTZ                 10       30   4s3p2d1f
 H                          cc-pVTZ                  6       14   3s2p1d



 Forming initial guess at       9.7s


 Loading old vectors from job with title :

H2O


 Starting SCF solution at       9.7s



 ----------------------------------------------
         Quadratically convergent ROHF

 Convergence threshold     :          1.000E-04
 Maximum no. of iterations :           30
 Final Fock-matrix accuracy:          1.000E-07
 ----------------------------------------------


 Integral file          = ./H2O.aoints.0
 Record size in doubles =  65536        No. of integs per rec  =  43688
 Max. records in memory =     49        Max. records in file   = 280333
 No. of bits per label  =      8        No. of bits per value  =     64


 #quartets = 3.213D+04 #integrals = 6.608D+05 #direct =  0.0% #cached =100.0%



       Final RHF  results 
       ------------------ 

         Total SCF energy =    -75.962561116433
      One-electron energy =   -120.288604035913
      Two-electron energy =     36.613466581079
 Nuclear repulsion energy =      7.712576338401

        Time for solution =      0.1s


             Final eigenvalues
             -----------------

              1      
    1  -20.5708
    2   -1.2927
    3   -0.6659
    4   -0.5409
    5   -0.5190
    6   -0.0476
    7   -0.0261
    8   -0.0152
    9    0.3157
   10    0.3392
   11    0.6052
   12    0.7403
   13    0.8042
   14    0.8389
   15    0.9647

                       ROHF Final Molecular Orbital Analysis
                       -------------------------------------

 Vector    2  Occ=2.000000D+00  E=-1.292701D+00
              MO Center= -2.9D-01, -1.8D-01,  2.1D-07, r^2= 4.2D-01
   Bfn.  Coefficient  Atom+Function         Bfn.  Coefficient  Atom+Function  
  ----- ------------  ---------------      ----- ------------  ---------------
     2      0.537440  1 O  s                  4      0.397448  1 O  s          

 Vector    3  Occ=2.000000D+00  E=-6.658698D-01
              MO Center= -6.3D-02, -9.5D-02, -2.1D-07, r^2= 6.5D-01
   Bfn.  Coefficient  Atom+Function         Bfn.  Coefficient  Atom+Function  
  ----- ------------  ---------------      ----- ------------  ---------------
    10      0.435017  1 O  pz                13      0.394406  1 O  pz         
     7      0.363595  1 O  pz         

 Vector    4  Occ=2.000000D+00  E=-5.409416D-01
              MO Center=  3.4D-01, -2.2D-01, -8.5D-11, r^2= 6.0D-01
   Bfn.  Coefficient  Atom+Function         Bfn.  Coefficient  Atom+Function  
  ----- ------------  ---------------      ----- ------------  ---------------
     8      0.343990  1 O  px                 5      0.287047  1 O  px         
    46      0.267547  3 H  s                 11      0.204172  1 O  px         
    45      0.184965  3 H  s          

 Vector    5  Occ=2.000000D+00  E=-5.190401D-01
              MO Center= -4.4D-02,  4.8D-01, -1.1D-09, r^2= 9.2D-01
   Bfn.  Coefficient  Atom+Function         Bfn.  Coefficient  Atom+Function  
  ----- ------------  ---------------      ----- ------------  ---------------
     9      0.332853  1 O  py                32      0.278891  2 H  s          
     6      0.264054  1 O  py                12      0.216595  1 O  py         
    33      0.152112  2 H  s                 31      0.150028  2 H  s          

 Vector    6  Occ=0.000000D+00  E=-4.759243D-02
              MO Center= -5.5D-02,  7.2D-01, -4.8D-09, r^2= 9.0D-01
   Bfn.  Coefficient  Atom+Function         Bfn.  Coefficient  Atom+Function  
  ----- ------------  ---------------      ----- ------------  ---------------
    32      0.512698  2 H  s                  9     -0.450845  1 O  py         
     6     -0.398228  1 O  py                31      0.236195  2 H  s          
    33      0.191826  2 H  s                  2     -0.189236  1 O  s          

 Vector    7  Occ=0.000000D+00  E=-2.605968D-02
              MO Center=  5.1D-01, -2.8D-01, -1.5D-08, r^2= 6.6D-01
   Bfn.  Coefficient  Atom+Function         Bfn.  Coefficient  Atom+Function  
  ----- ------------  ---------------      ----- ------------  ---------------
    46      0.656803  3 H  s                  5     -0.507824  1 O  px         
     8     -0.436413  1 O  px                45      0.301714  3 H  s          
     2     -0.283921  1 O  s                  4     -0.215651  1 O  s          

 Vector    8  Occ=0.000000D+00  E=-1.519666D-02
              MO Center=  7.9D-04, -6.6D-02, -2.5D-07, r^2= 1.3D+00
   Bfn.  Coefficient  Atom+Function         Bfn.  Coefficient  Atom+Function  
  ----- ------------  ---------------      ----- ------------  ---------------
    13      0.834237  1 O  pz                 7     -0.614818  1 O  pz         
    10     -0.331797  1 O  pz         

 Vector    9  Occ=0.000000D+00  E= 3.156565D-01
              MO Center=  8.4D-01, -3.9D-01,  9.1D-08, r^2= 4.2D+00
   Bfn.  Coefficient  Atom+Function         Bfn.  Coefficient  Atom+Function  
  ----- ------------  ---------------      ----- ------------  ---------------
    47      1.784156  3 H  s                  4     -1.568368  1 O  s          
    11     -0.726050  1 O  px                51     -0.493651  3 H  px         
    33      0.425549  2 H  s                 32     -0.320405  2 H  s          
    52      0.194925  3 H  py         

 Vector   10  Occ=0.000000D+00  E= 3.391784D-01
              MO Center=  4.9D-02,  1.3D+00, -1.7D-09, r^2= 4.7D+00
   Bfn.  Coefficient  Atom+Function         Bfn.  Coefficient  Atom+Function  
  ----- ------------  ---------------      ----- ------------  ---------------
    33      1.963005  2 H  s                 47     -1.259827  3 H  s          
    32     -0.940645  2 H  s                 12     -0.463879  1 O  py         
    46      0.291984  3 H  s                 11      0.213349  1 O  px         
    51      0.166432  3 H  px                38     -0.154361  2 H  py         

 Vector   11  Occ=0.000000D+00  E= 6.052469D-01
              MO Center= -2.1D-01,  4.3D-01, -2.0D-08, r^2= 2.0D+00
   Bfn.  Coefficient  Atom+Function         Bfn.  Coefficient  Atom+Function  
  ----- ------------  ---------------      ----- ------------  ---------------
    46      2.412437  3 H  s                  4     -1.930465  1 O  s          
    11     -1.803927  1 O  px                51     -0.678149  3 H  px         
    12      0.386494  1 O  py                37     -0.363915  2 H  px         
    32      0.327937  2 H  s                 33     -0.239151  2 H  s          
    47      0.216947  3 H  s                  9      0.176652  1 O  py         

 Vector   12  Occ=0.000000D+00  E= 7.402840D-01
              MO Center=  7.8D-02, -4.1D-01,  2.7D-09, r^2= 2.2D+00
   Bfn.  Coefficient  Atom+Function         Bfn.  Coefficient  Atom+Function  
  ----- ------------  ---------------      ----- ------------  ---------------
    12      1.743075  1 O  py                46      1.345643  3 H  s          
    11     -1.091265  1 O  px                 4     -0.876082  1 O  s          
    32     -0.762866  2 H  s                 47      0.640424  3 H  s          
    52      0.519054  3 H  py                33     -0.487569  2 H  s          
     9     -0.452751  1 O  py                51     -0.370302  3 H  px         

 Vector   13  Occ=0.000000D+00  E= 8.041946D-01
              MO Center=  2.0D-01,  6.8D-01, -8.1D-10, r^2= 1.9D+00
   Bfn.  Coefficient  Atom+Function         Bfn.  Coefficient  Atom+Function  
  ----- ------------  ---------------      ----- ------------  ---------------
    39      0.865870  2 H  pz                53     -0.649521  3 H  pz         

 Vector   14  Occ=0.000000D+00  E= 8.389095D-01
              MO Center= -3.2D-01, -2.3D-02, -1.7D-08, r^2= 2.4D+00
   Bfn.  Coefficient  Atom+Function         Bfn.  Coefficient  Atom+Function  
  ----- ------------  ---------------      ----- ------------  ---------------
    46     -1.502015  3 H  s                 11      1.486537  1 O  px         
     4      1.196375  1 O  s                 12      1.050844  1 O  py         
    52     -0.865457  3 H  py                32     -0.818648  2 H  s          
    37     -0.773777  2 H  px                38      0.435140  2 H  py         
    47      0.254636  3 H  s                  2      0.244714  1 O  s          

 Vector   15  Occ=0.000000D+00  E= 9.647349D-01
              MO Center=  2.4D-01,  1.4D-02, -2.6D-08, r^2= 2.2D+00
   Bfn.  Coefficient  Atom+Function         Bfn.  Coefficient  Atom+Function  
  ----- ------------  ---------------      ----- ------------  ---------------
    53     -1.110690  3 H  pz                13      1.077571  1 O  pz         
    39     -0.699137  2 H  pz         


 center of mass
 --------------
 x =  -0.07599894 y =  -0.08510034 z =   0.00000000

 moments of inertia (a.u.)
 ------------------
           6.926224499243           1.316003263377           0.000000000000
           1.316003263377           2.833002082974           0.000000000000
           0.000000000000           0.000000000000           9.759226582217

  Mulliken analysis of the total density
  --------------------------------------

    Atom       Charge   Shell Charges
 -----------   ------   -------------------------------------------------------
    1 O    8     8.47   1.95  1.03  0.24  0.63  1.22  2.03  1.36  0.00  0.01  0.00
    2 H    1     0.78   0.16  0.41  0.16  0.00  0.04  0.00
    3 H    1     0.75   0.25  0.38  0.04  0.02  0.06  0.01

       Multipole analysis of the density wrt the origin
       ------------------------------------------------

     L   x y z        total         open         nuclear
     -   - - -        -----         ----         -------
     0   0 0 0     -0.000000      0.000000     10.000000

     1   1 0 0      0.560964      0.000000     -0.000000
     1   0 1 0      0.447159      0.000000      0.000000
     1   0 0 1      0.000000      0.000000      0.000000

     2   2 0 0     -4.361461      0.000000      2.679864
     2   1 1 0     -0.863683      0.000000     -1.452633
     2   1 0 1     -0.000000      0.000000      0.000000
     2   0 2 0     -2.942289      0.000000      6.708014
     2   0 1 1     -0.000000      0.000000      0.000000
     2   0 0 2     -5.773001      0.000000      0.000000


 Parallel integral file used      16 records with       0 large values

                   NWChem Extensible Many-Electron Theory Module
                   ---------------------------------------------

              ======================================================
                   This portion of the program was automatically
                  generated by a Tensor Contraction Engine (TCE).
                  The development of this portion of the program
                 and TCE was supported by US Department of Energy,
                Office of Science, Office of Basic Energy Science.
                      TCE is a product of Battelle and PNNL.
              Please cite: S.Hirata, J.Phys.Chem.A 107, 9887 (2003).
              ======================================================

                                        H2O


            General Information
            -------------------
      Number of processors :     1
         Wavefunction type : Restricted Hartree-Fock
          No. of electrons :    10
           Alpha electrons :     5
            Beta electrons :     5
           No. of orbitals :   116
            Alpha orbitals :    58
             Beta orbitals :    58
        Alpha frozen cores :     0
         Beta frozen cores :     0
     Alpha frozen virtuals :     0
      Beta frozen virtuals :     0
         Spin multiplicity : singlet 
    Number of AO functions :    58
       Number of AO shells :    22
        Use of symmetry is : off
      Symmetry adaption is : off
         Schwarz screening : 0.10D-09

          Correlation Information
          -----------------------
          Calculation type : Coupled-cluster singles & doubles                           
   Perturbative correction : none                                                        
            Max iterations :      100
        Residual threshold : 0.10D-06
     T(0) DIIS level shift : 0.00D+00
     L(0) DIIS level shift : 0.00D+00
     T(1) DIIS level shift : 0.00D+00
     L(1) DIIS level shift : 0.00D+00
     T(R) DIIS level shift : 0.00D+00
     T(I) DIIS level shift : 0.00D+00
   CC-T/L Amplitude update :  5-th order DIIS
                I/O scheme : Global Array Library
        L-threshold :  0.10D-06
        EOM-threshold :  0.10D-06
 no EOMCCSD initial starts read in
 TCE RESTART OPTIONS
 READ_INT:   F
 WRITE_INT:  F
 READ_TA:    F
 WRITE_TA:   F
 READ_XA:    F
 WRITE_XA:   F
 READ_IN3:   F
 WRITE_IN3:  F
 SLICE:      F
 D4D5:       F
 quantumc:   F
 qrotation:  F
 pwtce:      F
 qducc:      T
 nacto:                         0
 nrotv:                         0
 nrot:                          0

            Memory Information
            ------------------
          Available GA space size is    1610609372 doubles
          Available MA space size is    1610609772 doubles

 Maximum block size        32 doubles

 tile_dim =     27

 Block   Spin    Irrep     Size     Offset   Alpha
 -------------------------------------------------
   1    alpha     a      5 doubles       0       1
   2    beta      a      5 doubles       5       1
   3    alpha     a     26 doubles      10       3
   4    alpha     a     27 doubles      36       4
   5    beta      a     26 doubles      63       3
   6    beta      a     27 doubles      89       4

 Global array virtual files algorithm will be used

 Parallel file system coherency ......... OK

 Integral file          = ./H2O.aoints.0
 Record size in doubles =  65536        No. of integs per rec  =  43688
 Max. records in memory =     49        Max. records in file   = 280333
 No. of bits per label  =      8        No. of bits per value  =     64


 #quartets = 3.213D+04 #integrals = 6.608D+05 #direct =  0.0% #cached =100.0%


 Fock matrix recomputed
 1-e file size   =             3364
 1-e file name   = ./H2O.f1
 Cpu & wall time / sec            0.1            0.1
 4-electron integrals stored in orbital form

 v2    file size   =          3631290
 4-index algorithm nr.  13 is used
 imaxsize =       30
 imaxsize ichop =        0
 Cpu & wall time / sec            1.2            1.2
 T1-number-of-tasks                    2

 t1 file size   =              265
 t1 file name   = ./H2O.t1
 t1 file handle =       -998
 T2-number-of-boxes                    7

 t2 file size   =           122900
 t2 file name   = ./H2O.t2
 t2 file handle =       -996
CCSD iterations
 ---------------------------------------------------------
 Iter          Residuum       Correlation     Cpu    Wall 
 ---------------------------------------------------------
NEW TASK SCHEDULING
CCSD_T1_NTS --- OK
CCSD_T2_NTS --- OK
    1   1.0100496543919  -0.4557006159712     0.2     0.2
    2   1.7351230759436  -0.0029278939706     0.2     0.2
    3   3.1449830145752  -0.8160601841691     0.2     0.2
    4   5.9256343970537   0.6076123867359     0.2     0.2
    5   9.4847843201423  -1.9629013810213     0.2     0.2
 MICROCYCLE DIIS UPDATE:                    5                    5
    6   0.0530090670553  -0.2949684297769     0.2     0.2
    7   0.0633737341366  -0.2957499605332     0.2     0.2
    8   0.1192007214413  -0.2929639180372     0.2     0.2
    9   0.2397972399127  -0.2913945674712     0.2     0.2
   10   0.5025323157183  -0.2273676187587     0.1     0.2
 MICROCYCLE DIIS UPDATE:                   10                    5
   11   0.0054279467119  -0.2976699277848     0.2     0.2
   12   0.0033278481490  -0.2975110236123     0.1     0.2
   13   0.0053239105612  -0.2979717354268     0.2     0.2
   14   0.0110153416579  -0.2970355323799     0.2     0.2
   15   0.0234190148589  -0.2991350407139     0.2     0.2
 MICROCYCLE DIIS UPDATE:                   15                    5
   16   0.0003438327817  -0.2977489108573     0.2     0.2
   17   0.0003238008471  -0.2976914536569     0.2     0.2
   18   0.0004955057753  -0.2977946823060     0.2     0.2
   19   0.0008711669077  -0.2976139771745     0.2     0.2
   20   0.0015850494922  -0.2979374605351     0.2     0.2
 MICROCYCLE DIIS UPDATE:                   20                    5
   21   0.0000490164590  -0.2977309979065     0.2     0.2
   22   0.0000496348102  -0.2977325480149     0.2     0.2
   23   0.0000916907642  -0.2977281038122     0.2     0.2
   24   0.0001894390188  -0.2977374226670     0.2     0.2
   25   0.0003960218466  -0.2977192077969     0.2     0.2
 MICROCYCLE DIIS UPDATE:                   25                    5
   26   0.0000071857992  -0.2977316023824     0.2     0.2
   27   0.0000069500001  -0.2977307028060     0.2     0.2
   28   0.0000110781140  -0.2977322559932     0.2     0.2
   29   0.0000197797061  -0.2977294909610     0.2     0.2
   30   0.0000370622657  -0.2977345028169     0.2     0.2
 MICROCYCLE DIIS UPDATE:                   30                    5
   31   0.0000012189740  -0.2977312695395     0.2     0.2
   32   0.0000009775946  -0.2977313079817     0.2     0.2
   33   0.0000015864625  -0.2977312243996     0.2     0.2
   34   0.0000031475773  -0.2977313944546     0.2     0.2
   35   0.0000064863829  -0.2977310989903     0.2     0.2
 MICROCYCLE DIIS UPDATE:                   35                    5
   36   0.0000001995875  -0.2977312983367     0.1     0.2
   37   0.0000001726010  -0.2977312749645     0.2     0.2
   38   0.0000002604865  -0.2977313123002     0.2     0.2
   39   0.0000004648201  -0.2977312455913     0.2     0.2
   40   0.0000008820343  -0.2977313662428     0.2     0.2
 MICROCYCLE DIIS UPDATE:                   40                    5
   41   0.0000000365974  -0.2977312879823     0.1     0.2
 -----------------------------------------------------------------
 Iterations converged
 CCSD correlation energy / hartree =        -0.297731287982339
 CCSD total energy / hartree       =       -76.260292404415665

 Singles contributions

 Doubles contributions
     6a   (alpha)     7a   (alpha) ---     4a   (alpha)     5a   (alpha)        0.0204407613
     6a   (alpha)     7a   (alpha) ---     5a   (alpha)     4a   (alpha)       -0.0204407613
     6a   (alpha)     8a   (alpha) ---     3a   (alpha)     5a   (alpha)        0.0276006698
     6a   (alpha)     8a   (alpha) ---     5a   (alpha)     3a   (alpha)       -0.0276006698
     7a   (alpha)     6a   (alpha) ---     4a   (alpha)     5a   (alpha)       -0.0204407613
     7a   (alpha)     6a   (alpha) ---     5a   (alpha)     4a   (alpha)        0.0204407613
     7a   (alpha)     8a   (alpha) ---     3a   (alpha)     4a   (alpha)        0.0262241144
     7a   (alpha)     8a   (alpha) ---     4a   (alpha)     3a   (alpha)       -0.0262241144
     8a   (alpha)     6a   (alpha) ---     3a   (alpha)     5a   (alpha)       -0.0276006698
     8a   (alpha)     6a   (alpha) ---     5a   (alpha)     3a   (alpha)        0.0276006698
     8a   (alpha)     7a   (alpha) ---     3a   (alpha)     4a   (alpha)       -0.0262241144
     8a   (alpha)     7a   (alpha) ---     4a   (alpha)     3a   (alpha)        0.0262241144
     6a   (alpha)     6a   (beta ) ---     5a   (alpha)     5a   (beta )       -0.1627712477
     6a   (alpha)     7a   (beta ) ---     5a   (alpha)     4a   (beta )       -0.0332326559
     6a   (alpha)     8a   (beta ) ---     5a   (alpha)     3a   (beta )       -0.0388987727
     7a   (alpha)     6a   (beta ) ---     4a   (alpha)     5a   (beta )       -0.0332326559
     7a   (alpha)     7a   (beta ) ---     4a   (alpha)     4a   (beta )       -0.0810687193
     7a   (alpha)     8a   (beta ) ---     4a   (alpha)     3a   (beta )       -0.0361091532
     8a   (alpha)     6a   (beta ) ---     3a   (alpha)     5a   (beta )       -0.0388987727
     8a   (alpha)     7a   (beta ) ---     3a   (alpha)     4a   (beta )       -0.0361091532
     8a   (alpha)     8a   (beta ) ---     3a   (alpha)     3a   (beta )       -0.0522626184
 Ground state specification:
 exp(T)|Ref>~(1+T)|Ref>
 ------- a(p)+/a(q) strings ----------

 singles norm

 doubles norm

 Reference string
  0.98701031421762642      :(1a)+ (2a)+ (3a)+ (4a)+ (5a)+ (1b)+ (2b)+ (3b)+ (4b)+ (5b)+ |0>

 Singles strings

 Doubles strings
 -0.16065690034362770      :(6a)+ (6b)+ (5b)  (5a)  (1a)+ (2a)+ (3a)+ (4a)+ (5a)+ (1b)+ (2b)+ (3b)+ (4b)+ (5b)+ |0>
 -------------------------------------
 enrep_tce =    7.7125763384008605     
  EHF(total)         =       -75.96256112
  Shift (HFtot-HFA)  =         0.00000000
 ALL OCCUPIED ORBITALS ARE ACTIVE IN DUCC --> NO SHIFT
 Number of active orbitals                    8
 Number of active alpha electrons                    5
 Number of active beta electrons                    5
  nos                    10
  nvs                   106
 noas                     5
 nobs                     5
 nvas                    53
 nvbs                    53
 nactv                     3
 DUCC MODEL =                     6
 NONHF =  T
 F-T1 correlation    =   -1.8746085686515579E-004
 V-T1-T1 correlation =    3.6650594634154528E-005
 V-T2 correlation    =  -0.29758047772016488     
 Total correlation   =  -0.29773128798239590     
 F-T1(Ext) correlation         =   -8.6056113381777102E-005
 V-T1(Ext)-T1(Ext) correlation =    3.9268433098674072E-006
 V-T2(Ext) correlation         =  -0.19203132774022968     
 Total Ext correlation         =  -0.19211345701030161     
1-BODY TIME =  230.470 SECONDS.
  HHHH TIME =  232.597 SECONDS.
  PPPP TIME =    0.587 SECONDS.
  HHHP TIME =   16.854 SECONDS.
  PPPH TIME =    1.310 SECONDS.
  HPHP TIME =   16.221 SECONDS.
  HHPP TIME =    6.527 SECONDS.
 ONE-BODY UNITARY CHECK
 TWO-BODY UNITARY CHECK
                    1                    1                    1                    2   1.6201449272265386E-011
                    1                    1                    1                    4  -2.0383220349579473E-011
                    1                    1                    1                    5  -3.5014142641727124E-011
                    1                    1                    2                    1  -1.6201456558753198E-011
                    1                    1                    2                    4  -2.7446156738814869E-011
                    1                    1                    2                    5   5.1415541146462796E-011
                    1                    1                    4                    1   2.0383218703747514E-011
                    1                    1                    4                    2   2.7446156750364172E-011
                    1                    1                    4                    5  -3.1114123455681862E-011
                    1                    1                    5                    1   3.5014143341660371E-011
                    1                    1                    5                    2  -5.1415541149181119E-011
                    1                    1                    5                    4   3.1114123456593131E-011
                    1                    2                    1                    1  -1.6201449272265386E-011
                    1                    2                    1                    4  -2.6361727904766763E-011
                    1                    2                    1                    5   6.4123800019855182E-011
                    1                    2                    2                    1   1.4297429906662273E-010
                    1                    2                    2                    2  -3.7724319714876842E-010
                    1                    2                    2                    4   1.6952986410523341E-010
                    1                    2                    2                    5  -6.2694595175105672E-010
                    1                    2                    3                    3  -9.8109669253237642E-011
                    1                    2                    4                    1  -7.9737985311800763E-011
                    1                    2                    4                    2   3.4740926455056886E-010
                    1                    2                    4                    4  -1.7102061401563702E-010
                    1                    2                    4                    5   1.2592978350096755E-010
                    1                    2                    5                    1  -7.3050333143642732E-011
                    1                    2                    5                    2   8.1951623005088736E-010
                    1                    2                    5                    4  -4.4619494503263940E-010
                    1                    2                    5                    5  -1.6826630103192659E-010
                    1                    3                    2                    3  -5.9823740058972952E-010
                    1                    3                    3                    1   6.7580097073971501E-010
                    1                    3                    3                    2  -2.0581351345416721E-009
                    1                    3                    3                    4  -2.0454383412721322E-010
                    1                    3                    3                    5  -5.3539693989010373E-010
                    1                    3                    4                    3   1.3123830824163241E-009
                    1                    3                    5                    3   1.7766623927259473E-009
                    1                    4                    1                    1   2.0383220349579473E-011
                    1                    4                    1                    2   2.6361727904766763E-011
                    1                    4                    1                    5  -5.7081041282547318E-012
                    1                    4                    2                    1  -1.2042443344600917E-010
                    1                    4                    2                    2   1.6123128126575445E-010
                    1                    4                    2                    4   7.5068642274578323E-011
                    1                    4                    2                    5   1.9555685337128287E-010
                    1                    4                    3                    3  -1.9343369317503381E-012
                    1                    4                    4                    1   2.0149315549389257E-010
                    1                    4                    4                    2  -8.0348117742490288E-010
                    1                    4                    4                    4   9.1324532022080895E-011
                    1                    4                    4                    5  -9.9642431848970259E-010
                    1                    4                    5                    1  -2.9916798205409378E-012
                    1                    4                    5                    2  -4.5618150402992885E-010
                    1                    4                    5                    4   1.9476188392077154E-009
                    1                    4                    5                    5   2.0052877265433421E-010
                    1                    5                    1                    1   3.5014142641727124E-011
                    1                    5                    1                    2  -6.4123800019855182E-011
                    1                    5                    1                    4   5.7081041282547318E-012
                    1                    5                    2                    1  -2.8809787888661731E-011
                    1                    5                    2                    2   1.5390096101410005E-012
                    1                    5                    2                    4   3.7355151675903808E-010
                    1                    5                    2                    5  -6.1164981933481410E-010
                    1                    5                    3                    3   1.3435406506475399E-010
                    1                    5                    4                    1  -5.8096753102754306E-011
                    1                    5                    4                    2  -2.1448762113195768E-010
                    1                    5                    4                    4   8.2036947872189937E-011
                    1                    5                    4                    5   1.5754619353894328E-009
                    1                    5                    5                    1  -2.7745616915098026E-010
                    1                    5                    5                    2   1.7911093701944436E-009
                    1                    5                    5                    4  -1.6234518590563241E-009
                    1                    5                    5                    5  -3.3460947136944725E-010
                    1                    6                    1                    7  -3.5522695895906509E-010
                    1                    6                    1                    9  -1.4335628517603283E-010
                    1                    6                    1                   10  -3.1767324881748493E-011
                    1                    6                    2                    6   8.6749829542043244E-011
                    1                    6                    2                    7  -2.7222920792602245E-010
                    1                    6                    2                    9   2.5463646469159329E-010
                    1                    6                    2                   10   6.3196227276848121E-011
                    1                    6                    3                    8  -1.1494822593771659E-009
                    1                    6                    4                    6   4.2485751028387142E-011
                    1                    6                    4                    7  -1.5897712356618965E-010
                    1                    6                    4                    9  -2.6945845901793497E-010
                    1                    6                    4                   10   2.4015810173860785E-010
                    1                    6                    5                    6   1.8013125713256528E-011
                    1                    6                    5                    7  -1.3547396261444702E-010
                    1                    6                    5                    9   3.3578908685723274E-010
                    1                    6                    5                   10   1.3987538904913777E-010
                    1                    6                    6                    2   3.7142827702396630E-010
                    1                    6                    6                    4   1.2297321494436630E-010
                    1                    6                    6                    5  -3.2468264188345586E-012
                    1                    6                    7                    1  -1.0295114760694446E-010
                    1                    6                    7                    2   2.7222920792602245E-010
                    1                    6                    7                    4  -2.8208263069123829E-010
                    1                    6                    7                    5  -1.1780691602358145E-011
                    1                    6                    8                    3   1.1494822593771659E-009
[...]
    8    8    2    7       -0.0108769133
    8    8    2    8        0.0000000177
    8    1    3    1       -0.0378868204
    8    1    3    2       -0.0367176360
    8    1    3    3        0.0000000181
    8    1    3    4       -0.0072722629
    8    1    3    5       -0.0036349598
    8    1    3    6        0.0073151880
    8    1    3    7        0.0092181979
    8    1    3    8       -0.0000000119
    8    2    3    1       -0.0200166988
    8    2    3    2       -0.0508524287
    8    2    3    3        0.0000000200
    8    2    3    4       -0.0046124891
    8    2    3    5       -0.0014528690
    8    2    3    6        0.0103355635
    8    2    3    7        0.0113542844
    8    2    3    8       -0.0000000185
    8    3    3    1        0.0000000086
    8    3    3    2        0.0000000279
    8    3    3    3       -0.2006267799
    8    3    3    4        0.0000000011
    8    3    3    5       -0.0000000008
    8    3    3    6       -0.0000000112
    8    3    3    7       -0.0000000152
    8    3    3    8        0.1560546862
    8    4    3    1       -0.0029888055
    8    4    3    2        0.0005179896
    8    4    3    3       -0.0000000154
    8    4    3    4       -0.0051044935
    8    4    3    5       -0.0002542268
    8    4    3    6        0.0015112852
    8    4    3    7        0.0166897275
    8    4    3    8        0.0000000068
    8    5    3    1       -0.0014097531
    8    5    3    2        0.0029331572
    8    5    3    3       -0.0000000135
    8    5    3    4        0.0000556423
    8    5    3    5       -0.0042706586
    8    5    3    6        0.0120372031
    8    5    3    7        0.0004827635
    8    5    3    8        0.0000000052
    8    6    3    1        0.0055268905
    8    6    3    2        0.0205669577
    8    6    3    3       -0.0000000147
    8    6    3    4        0.0043998304
    8    6    3    5        0.0188398352
    8    6    3    6       -0.0164180757
    8    6    3    7       -0.0018253041
    8    6    3    8        0.0000000034
    8    7    3    1        0.0074008078
    8    7    3    2        0.0251430214
    8    7    3    3       -0.0000000189
    8    7    3    4        0.0281866538
    8    7    3    5        0.0024178560
    8    7    3    6       -0.0022339606
    8    7    3    7       -0.0173380767
    8    7    3    8        0.0000000040
    8    8    3    1       -0.0000000095
    8    8    3    2       -0.0000000572
    8    8    3    3        0.6424054447
    8    8    3    4       -0.0000000097
    8    8    3    5       -0.0000000040
    8    8    3    6        0.0000000132
    8    8    3    7        0.0000000168
    8    8    3    8       -0.1757793531
    8    1    4    2       -0.0000000063
    8    1    4    3       -0.0071850453
    8    1    4    4       -0.0000000053
    8    1    4    5       -0.0000000010
    8    1    4    6        0.0000000015
    8    1    4    7        0.0000000037
    8    1    4    8        0.0035256615
    8    2    4    1       -0.0000000034
    8    2    4    2       -0.0000000066
    8    2    4    3       -0.0041723303
    8    2    4    4       -0.0000000052
    8    2    4    6        0.0000000021
    8    2    4    7        0.0000000048
    8    2    4    8        0.0037033882
    8    3    4    1        0.0027389163
    8    3    4    2        0.0048169073
    8    3    4    3        0.0000000007
    8    3    4    4       -0.1406926198
    8    3    4    5       -0.0041654427
    8    3    4    6        0.0034148439
    8    3    4    7        0.1173075374
    8    3    4    8        0.0000000068
    8    4    4    1        0.0000000024
    8    4    4    2       -0.0000000002
    8    4    4    3       -0.0044801051
    8    4    4    4       -0.0000000182
    8    4    4    5       -0.0000000003
    8    4    4    6       -0.0000000006
    8    4    4    7        0.0000000054
    8    4    4    8        0.0168395027
    8    5    4    2        0.0000000017
    8    5    4    3       -0.0000037684
    8    5    4    4       -0.0000000086
    8    5    4    5       -0.0000000003
    8    5    4    6        0.0000000011
    8    5    4    7        0.0000000078
    8    5    4    8        0.0013264533
    8    6    4    1        0.0000000007
    8    6    4    2        0.0000000040
    8    6    4    3        0.0045891614
    8    6    4    4        0.0000000004
    8    6    4    5        0.0000000009
    8    6    4    6       -0.0000000004
    8    6    4    7       -0.0000000003
    8    6    4    8       -0.0002146754
    8    7    4    1       -0.0000000037
    8    7    4    2       -0.0000000040
    8    7    4    3        0.0274031365
    8    7    4    4       -0.0000000054
    8    7    4    5        0.0000000015
    8    7    4    7       -0.0000000007
    8    7    4    8       -0.0055083759
    8    8    4    1       -0.0040435578
    8    8    4    2        0.0078370019
    8    8    4    3       -0.0000000097
    8    8    4    4        0.5577330848
    8    8    4    5        0.0082340911
    8    8    4    6       -0.0043771820
    8    8    4    7       -0.1468195166
    8    8    4    8       -0.0000000150
    8    1    5    1       -0.0000000007
    8    1    5    2       -0.0000000035
    8    1    5    3       -0.0036190618
    8    1    5    4       -0.0000000010
    8    1    5    5       -0.0000000030
    8    1    5    6        0.0000000026
    8    1    5    7        0.0000000011
    8    1    5    8        0.0015727422
    8    2    5    1       -0.0000000021
    8    2    5    2       -0.0000000044
    8    2    5    3       -0.0011643632
    8    2    5    5       -0.0000000040
    8    2    5    6        0.0000000031
    8    2    5    7        0.0000000016
    8    2    5    8        0.0020663954
    8    3    5    1        0.0005849369
    8    3    5    2        0.0064613501
    8    3    5    3       -0.0000000010
    8    3    5    4       -0.0042508006
    8    3    5    5       -0.1179061560
    8    3    5    6        0.1079653055
    8    3    5    7       -0.0021461541
    8    3    5    8        0.0000000052
    8    4    5    2        0.0000000016
    8    4    5    3       -0.0003047342
    8    4    5    4       -0.0000000002
    8    4    5    5       -0.0000000096
    8    4    5    6        0.0000000098
    8    4    5    7        0.0000000007
    8    4    5    8        0.0013264533
    8    5    5    1        0.0000000023
    8    5    5    2        0.0000000005
    8    5    5    3       -0.0035002216
    8    5    5    4       -0.0000000003
    8    5    5    5       -0.0000000129
    8    5    5    6        0.0000000033
    8    5    5    7       -0.0000000010
    8    5    5    8        0.0150846349
    8    6    5    1       -0.0000000031
    8    6    5    2       -0.0000000037
    8    6    5    3        0.0178342419
    8    6    5    4        0.0000000008
    8    6    5    5       -0.0000000022
    8    6    5    6        0.0000000016
    8    6    5    7        0.0000000009
    8    6    5    8       -0.0055232708
    8    7    5    1        0.0000000007
    8    7    5    2        0.0000000039
    8    7    5    3        0.0026447009
    8    7    5    4        0.0000000015
    8    7    5    5        0.0000000009
    8    7    5    6        0.0000000006
    8    7    5    7       -0.0000000003
    8    7    5    8        0.0006082470
    8    8    5    1       -0.0010658717
    8    8    5    2       -0.0010208861
    8    8    5    3       -0.0000000040
    8    8    5    4        0.0082340911
    8    8    5    5        0.5030163873
    8    8    5    6       -0.1594325038
    8    8    5    7        0.0029043399
    8    8    5    8       -0.0000000128
    8    1    6    1       -0.0000000030
    8    1    6    2        0.0000000047
    8    1    6    3        0.0071499615
    8    1    6    4        0.0000000014
    8    1    6    5        0.0000000022
    8    1    6    6       -0.0000000048
    8    1    6    7       -0.0000000019
    8    1    6    8       -0.0079982029
    8    2    6    1        0.0000000026
    8    2    6    2        0.0000000092
    8    2    6    3        0.0107522277
    8    2    6    4        0.0000000020
    8    2    6    5        0.0000000049
    8    2    6    6       -0.0000000035
    8    2    6    7       -0.0000000025
    8    2    6    8       -0.0068896090
    8    3    6    1       -0.0035831392
    8    3    6    2        0.0155567592
    8    3    6    3       -0.0000000097
    8    3    6    4        0.0027095950
    8    3    6    5        0.1056774372
    8    3    6    6       -0.1433157873
    8    3    6    7        0.0034631102
    8    3    6    8        0.0000000034
    8    4    6    2        0.0000000017
    8    4    6    3        0.0012882161
    8    4    6    4       -0.0000000008
    8    4    6    5        0.0000000098
    8    4    6    6       -0.0000000109
    8    4    6    7        0.0000000002
    8    4    6    8       -0.0002146754
    8    5    6    1       -0.0000000029
    8    5    6    2        0.0000000007
    8    5    6    3        0.0123247785
    8    5    6    4        0.0000000014
    8    5    6    5        0.0000000022
    8    5    6    6       -0.0000000119
    8    5    6    7        0.0000000010
    8    5    6    8       -0.0055232708
    8    6    6    1        0.0000000043
    8    6    6    2        0.0000000041
    8    6    6    3       -0.0162478661
    8    6    6    4       -0.0000000004
    8    6    6    5        0.0000000011
    8    6    6    6       -0.0000000020
    8    6    6    7       -0.0000000008
    8    6    6    8        0.0200532568
    8    7    6    1       -0.0000000013
    8    7    6    2       -0.0000000046
    8    7    6    3       -0.0024746558
    8    7    6    5        0.0000000004
    8    7    6    6        0.0000000018
    8    7    6    7       -0.0000000010
    8    7    6    8        0.0046641921
    8    8    6    1        0.0052517811
    8    8    6    2       -0.0201048042
    8    8    6    3        0.0000000132
    8    8    6    4       -0.0043771820
    8    8    6    5       -0.1594325038
    8    8    6    6        0.5153832517
    8    8    6    7       -0.0017270153
    8    8    6    8       -0.0000000111
    8    1    7    1       -0.0000000042
    8    1    7    2        0.0000000057
    8    1    7    3        0.0089986346
    8    1    7    4        0.0000000032
    8    1    7    5        0.0000000010
    8    1    7    6       -0.0000000019
    8    1    7    7       -0.0000000069
    8    1    7    8       -0.0104891618
    8    2    7    1        0.0000000037
    8    2    7    2        0.0000000108
    8    2    7    3        0.0116550929
    8    2    7    4        0.0000000065
    8    2    7    5        0.0000000013
    8    2    7    6       -0.0000000025
    8    2    7    7       -0.0000000020
    8    2    7    8       -0.0075368630
    8    3    7    1       -0.0045329133
    8    3    7    2        0.0095833379
    8    3    7    3       -0.0000000136
    8    3    7    4        0.1119999631
    8    3    7    5       -0.0028623290
    8    3    7    6        0.0036064311
    8    3    7    7       -0.1678709214
    8    3    7    8        0.0000000040
    8    4    7    1       -0.0000000034
    8    4    7    2        0.0000000010
    8    4    7    3        0.0165755185
    8    4    7    4        0.0000000048
    8    4    7    5        0.0000000009
    8    4    7    7       -0.0000000180
    8    4    7    8       -0.0055083759
    8    5    7    2        0.0000000008
    8    5    7    3        0.0003163233
    8    5    7    4        0.0000000079
    8    5    7    5       -0.0000000015
    8    5    7    6        0.0000000012
    8    5    7    7       -0.0000000094
    8    5    7    8        0.0006082470
    8    6    7    1       -0.0000000012
    8    6    7    2       -0.0000000038
    8    6    7    3       -0.0019918983
    8    6    7    4       -0.0000000004
    8    6    7    5        0.0000000010
    8    6    7    6       -0.0000000008
    8    6    7    7        0.0000000006
    8    6    7    8        0.0046641921
    8    7    7    1        0.0000000061
    8    7    7    2        0.0000000055
    8    7    7    3       -0.0174650523
    8    7    7    4       -0.0000000010
    8    7    7    5       -0.0000000003
    8    7    7    6       -0.0000000011
    8    7    7    7       -0.0000000073
    8    7    7    8        0.0297410811
    8    8    7    1        0.0061668626
    8    8    7    2       -0.0108769133
    8    8    7    3        0.0000000168
    8    8    7    4       -0.1468195166
    8    8    7    5        0.0029043399
    8    8    7    6       -0.0017270153
    8    8    7    7        0.5763515639
    8    8    7    8       -0.0000000131
    8    1    8    1        0.0519563620
    8    1    8    2        0.0259327108
    8    1    8    3       -0.0000000119
    8    1    8    4        0.0033053194
    8    1    8    5        0.0014137686
    8    1    8    6       -0.0078950307
    8    1    8    7       -0.0103553157
    8    1    8    8        0.0000000157
    8    2    8    1        0.0259327108
    8    2    8    2        0.0492001437
    8    2    8    3       -0.0000000135
    8    2    8    4        0.0034649420
    8    2    8    5        0.0017588672
    8    2    8    6       -0.0073753802
    8    2    8    7       -0.0081707768
    8    2    8    8        0.0000000177
    8    3    8    1       -0.0000000119
    8    3    8    2       -0.0000000135
    8    3    8    3        0.1493459655
    8    3    8    4        0.0000000074
    8    3    8    5        0.0000000057
    8    3    8    6        0.0000000030
    8    3    8    7        0.0000000036
    8    3    8    8       -0.1757793531
    8    4    8    1        0.0033053194
    8    4    8    2        0.0034649420
    8    4    8    3        0.0000000074
    8    4    8    4        0.0161590153
    8    4    8    5        0.0012340664
    8    4    8    6       -0.0001282841
    8    4    8    7       -0.0057642956
    8    4    8    8       -0.0000000150
    8    5    8    1        0.0014137686
    8    5    8    2        0.0017588672
    8    5    8    3        0.0000000057
    8    5    8    4        0.0012340664
    8    5    8    5        0.0164481659
    8    5    8    6       -0.0058400324
    8    5    8    7        0.0007038642
    8    5    8    8       -0.0000000128
    8    6    8    1       -0.0078950307
    8    6    8    2       -0.0073753802
    8    6    8    3        0.0000000030
    8    6    8    4       -0.0001282841
    8    6    8    5       -0.0058400324
    8    6    8    6        0.0200793881
    8    6    8    7        0.0046362928
    8    6    8    8       -0.0000000111
    8    7    8    1       -0.0103553157
    8    7    8    2       -0.0081707768
    8    7    8    3        0.0000000036
    8    7    8    4       -0.0057642956
    8    7    8    5        0.0007038642
    8    7    8    6        0.0046362928
    8    7    8    7        0.0297666475
    8    7    8    8       -0.0000000131
    8    8    8    1        0.0000000157
    8    8    8    2        0.0000000177
    8    8    8    3       -0.1757793531
    8    8    8    4       -0.0000000150
    8    8    8    5       -0.0000000128
    8    8    8    6       -0.0000000111
    8    8    8    7       -0.0000000131
    8    8    8    8        0.5948028203
 end_two_electron_integrals

 Parallel integral file used      16 records with       0 large values


 Task  times  cpu:      524.9s     wall:      526.6s


                                NWChem Input Module
                                -------------------


 Summary of allocated global arrays
-----------------------------------
  No active global arrays


MA_summarize_allocated_blocks: starting scan ...
MA_summarize_allocated_blocks: scan completed: 0 heap blocks, 0 stack blocks
MA usage statistics:

	allocation statistics:
					      heap	     stack
					      ----	     -----
	current number of blocks	         0	         0
	maximum number of blocks	        18	        42
	current total bytes		         0	         0
	maximum total bytes		  25775960	4725685720
	maximum total K-bytes		     25776	   4725686
	maximum total M-bytes		        26	      4726


                                     CITATION
                                     --------
                Please cite the following reference when publishing
                           results obtained with NWChem:

          E. Apra, E. J. Bylaska, W. A. de Jong, N. Govind, K. Kowalski,
       T. P. Straatsma, M. Valiev, H. J. J. van Dam, Y. Alexeev, J. Anchell,
       V. Anisimov, F. W. Aquino, R. Atta-Fynn, J. Autschbach, N. P. Bauman,
     J. C. Becca, D. E. Bernholdt, K. Bhaskaran-Nair, S. Bogatko, P. Borowski,
         J. Boschen, J. Brabec, A. Bruner, E. Cauet, Y. Chen, G. N. Chuev,
      C. J. Cramer, J. Daily, M. J. O. Deegan, T. H. Dunning Jr., M. Dupuis,
   K. G. Dyall, G. I. Fann, S. A. Fischer, A. Fonari, H. Fruchtl, L. Gagliardi,
      J. Garza, N. Gawande, S. Ghosh, K. Glaesemann, A. W. Gotz, J. Hammond,
       V. Helms, E. D. Hermes, K. Hirao, S. Hirata, M. Jacquelin, L. Jensen,
   B. G. Johnson, H. Jonsson, R. A. Kendall, M. Klemm, R. Kobayashi, V. Konkov,
      S. Krishnamoorthy, M. Krishnan, Z. Lin, R. D. Lins, R. J. Littlefield,
      A. J. Logsdail, K. Lopata, W. Ma, A. V. Marenich, J. Martin del Campo,
   D. Mejia-Rodriguez, J. E. Moore, J. M. Mullin, T. Nakajima, D. R. Nascimento,
    J. A. Nichols, P. J. Nichols, J. Nieplocha, A. Otero-de-la-Roza, B. Palmer,
    A. Panyala, T. Pirojsirikul, B. Peng, R. Peverati, J. Pittner, L. Pollack,
   R. M. Richard, P. Sadayappan, G. C. Schatz, W. A. Shelton, D. W. Silverstein,
   D. M. A. Smith, T. A. Soares, D. Song, M. Swart, H. L. Taylor, G. S. Thomas,
            V. Tipparaju, D. G. Truhlar, K. Tsemekhman, T. Van Voorhis,
      A. Vazquez-Mayagoitia, P. Verma, O. Villa, A. Vishnu, K. D. Vogiatzis,
        D. Wang, J. H. Weare, M. J. Williamson, T. L. Windus, K. Wolinski,
        A. T. Wong, Q. Wu, C. Yang, Q. Yu, M. Zacharias, Z. Zhang, Y. Zhao,
                                and R. J. Harrison
                        "NWChem: Past, present, and future
                         J. Chem. Phys. 152, 184102 (2020)
                               doi:10.1063/5.0004997

                                      AUTHORS
                                      -------
  E. Apra, E. J. Bylaska, N. Govind, K. Kowalski, M. Valiev, D. Mejia-Rodriguez,
       A. Kunitsa, N. P. Bauman, A. Panyala, W. A. de Jong, T. P. Straatsma,
        H. J. J. van Dam, D. Wang, T. L. Windus, J. Hammond, J. Autschbach,
    K. Bhaskaran-Nair, J. Brabec, K. Lopata, S. A. Fischer, S. Krishnamoorthy,
     M. Jacquelin, W. Ma, M. Klemm, O. Villa, Y. Chen, V. Anisimov, F. Aquino,
    S. Hirata, M. T. Hackler, Eric Hermes, L. Jensen, J. E. Moore, J. C. Becca,
      V. Konjkov, T. Risthaus, M. Malagoli, A. Marenich, A. Otero-de-la-Roza,
        J. Mullin, P. Nichols, R. Peverati, J. Pittner, Y. Zhao, P.-D. Fan,
        A. Fonari, M. J. Williamson, R. J. Harrison, J. R. Rehr, M. Dupuis,
     D. Silverstein, D. M. A. Smith, J. Nieplocha, V. Tipparaju, M. Krishnan,
     B. E. Van Kuiken, A. Vazquez-Mayagoitia, M. Swart, Q. Wu, T. Van Voorhis,
     A. A. Auer, M. Nooijen, L. D. Crosby, E. Brown, G. Cisneros, G. I. Fann,
   H. Fruchtl, J. Garza, K. Hirao, R. A. Kendall, J. A. Nichols, K. Tsemekhman,
    K. Wolinski, J. Anchell, D. E. Bernholdt, P. Borowski, T. Clark, D. Clerc,
   H. Dachsel, M. J. O. Deegan, K. Dyall, D. Elwood, E. Glendening, M. Gutowski,
   A. C. Hess, J. Jaffe, B. G. Johnson, J. Ju, R. Kobayashi, R. Kutteh, Z. Lin,
   R. Littlefield, X. Long, B. Meng, T. Nakajima, S. Niu, L. Pollack, M. Rosing,
   K. Glaesemann, G. Sandrone, M. Stave, H. Taylor, G. Thomas, J. H. van Lenthe,
                               A. T. Wong, Z. Zhang.

 Total times  cpu:      530.4s     wall:      536.3s
