 argument  1 = input.nw
  NWChem w/ OpenMP: maximum threads =    1
 


============================== echo of input deck ==============================

echo
start H6
title "H6"

memory total 80 gb

geometry units bohr
symmetry c1
H 0 0 0
H 0 0 2.12
H 0 0 4.24
H 0 0 6.36
H 0 0 8.48
H 0 0 10.60
end

basis spherical
  * library cc-pVTZ
end

scf
thresh 1e-8
end

tce
  2eorb
  2emet 13
  ccsd
  thresh 1e-8
  maxiter 300
end

# set tce:print_integrals T
# set tce:qorb 6
# set tce:qela 3
# set tce:qelb 3

set tce:qducc T
set tce:nactv 3
set tce:nonhf T
set tce:ducc_model 6

set tce:printtol 0.02

task tce
================================================================================


                                         
                                         
 
 
             Northwest Computational Chemistry Package (NWChem) 7.2.3
             --------------------------------------------------------
 
 
                    Environmental Molecular Sciences Laboratory
                       Pacific Northwest National Laboratory
                                Richland, WA 99352
 
                              Copyright (c) 1994-2022
                       Pacific Northwest National Laboratory
                            Battelle Memorial Institute
 
             NWChem is an open-source computational chemistry package
                        distributed under the terms of the
                      Educational Community License (ECL) 2.0
             A copy of the license is included with this distribution
                              in the LICENSE.TXT file
 
                                  ACKNOWLEDGMENT
                                  --------------

            This software and its documentation were developed at the
            EMSL at Pacific Northwest National Laboratory, a multiprogram
            national laboratory, operated for the U.S. Department of Energy
            by Battelle under Contract Number DE-AC05-76RL01830. Support
            for this work was provided by the Department of Energy Office
            of Biological and Environmental Research, Office of Basic
            Energy Sciences, and the Office of Advanced Scientific Computing.


           Job information
           ---------------

    hostname        = koothan
    program         = /hpc/home/baum612/code/nwchem/bin/LINUX64/nwchem
    date            = Fri Nov 15 14:54:38 2024

    compiled        = Wed_Nov_13_16:23:19_2024
    source          = /hpc/home/baum612/code/nwchem
    nwchem branch   = 7.2.3
    nwchem revision = v7.2.0-beta1-1280-g0779ca2e41
    ga revision     = 5.8.0
    use scalapack   = T
    input           = input.nw
    prefix          = H6.
    data base       = ./H6.db
    status          = startup
    nproc           =        1
    time left       =     -1s



           Memory information
           ------------------

    heap     =   2684354560 doubles =    20480.0 Mbytes
    stack    =   2684354557 doubles =    20480.0 Mbytes
    global   =   5368709120 doubles =    40960.0 Mbytes (distinct from heap & stack)
    total    =  10737418237 doubles =    81920.0 Mbytes
    verify   = yes
    hardfail = no 


           Directory information
           ---------------------
 
  0 permanent = .
  0 scratch   = .
 
 
 
 
                                NWChem Input Module
                                -------------------
 
 
                                        H6
                                        --
 Turning off AUTOSYM since
 SYMMETRY directive was detected!
 

          ------
          auto-z
          ------
     1 autoz failed with cvr_scaling = 1.2 changing to 1.3
     2 autoz failed with cvr_scaling = 1.3 changing to 1.4
     3 autoz failed with cvr_scaling = 1.4 changing to 1.5
  Looking for out-of-plane bends
  autoz: insufficient variables                      5                    12
     4 autoz failed with cvr_scaling = 1.5 changing to 1.6
  Looking for out-of-plane bends
  autoz: insufficient variables                      5                    12
     5 autoz failed with cvr_scaling = 1.6 changing to 1.7
  Looking for out-of-plane bends
  autoz: insufficient variables                      5                    12

 AUTOZ failed to generate good internal coordinates.
 Cartesian coordinates will be used in optimizations.

 
 
                             Geometry "geometry" -> ""
                             -------------------------
 
 Output coordinates in a.u. (scale by  1.000000000 to convert to a.u.)
 
  No.       Tag          Charge          X              Y              Z
 ---- ---------------- ---------- -------------- -------------- --------------
    1 H                    1.0000     0.00000000     0.00000000    -5.30000000
    2 H                    1.0000     0.00000000     0.00000000    -3.18000000
    3 H                    1.0000     0.00000000     0.00000000    -1.06000000
    4 H                    1.0000     0.00000000     0.00000000     1.06000000
    5 H                    1.0000     0.00000000     0.00000000     3.18000000
    6 H                    1.0000     0.00000000     0.00000000     5.30000000
 
      Atomic Mass 
      ----------- 
 
      H                  1.007825
 

 Effective nuclear repulsion energy (a.u.)       4.1037735849

            Nuclear Dipole moment (a.u.) 
            ----------------------------
        X                 Y               Z
 ---------------- ---------------- ----------------
     0.0000000000     0.0000000000    -0.0000000000
 
 
            XYZ format geometry
            -------------------
     6
 geometry
 H                     0.00000000     0.00000000    -2.80463942
 H                     0.00000000     0.00000000    -1.68278365
 H                     0.00000000     0.00000000    -0.56092788
 H                     0.00000000     0.00000000     0.56092788
 H                     0.00000000     0.00000000     1.68278365
 H                     0.00000000     0.00000000     2.80463942
 


 Summary of "ao basis" -> "" (spherical)
 ------------------------------------------------------------------------------
       Tag                 Description            Shells   Functions and Types
 ---------------- ------------------------------  ------  ---------------------
 *                          cc-pVTZ                   on all atoms 


                      Basis "ao basis" -> "ao basis" (spherical)
                      -----
  H (Hydrogen)
  ------------
            Exponent  Coefficients 
       -------------- ---------------------------------------------------------
  1 S  3.38700000E+01  0.006068
  1 S  5.09500000E+00  0.045308
  1 S  1.15900000E+00  0.202822
 
  2 S  3.25800000E-01  1.000000
 
  3 S  1.02700000E-01  1.000000
 
  4 P  1.40700000E+00  1.000000
 
  5 P  3.88000000E-01  1.000000
 
  6 D  1.05700000E+00  1.000000
 


 Summary of "ao basis" -> "ao basis" (spherical)
 ------------------------------------------------------------------------------
       Tag                 Description            Shells   Functions and Types
 ---------------- ------------------------------  ------  ---------------------
 H                          cc-pVTZ                  6       14   3s2p1d


                                 NWChem SCF Module
                                 -----------------
 
 
                                        H6
 
 

  ao basis        = "ao basis"
  functions       =    84
  atoms           =     6
  closed shells   =     3
  open shells     =     0
  charge          =   0.00
  wavefunction    = RHF 
  input vectors   = atomic
  output vectors  = ./H6.movecs
  use symmetry    = F
  symmetry adapt  = F


 Summary of "ao basis" -> "ao basis" (spherical)
 ------------------------------------------------------------------------------
       Tag                 Description            Shells   Functions and Types
 ---------------- ------------------------------  ------  ---------------------
 H                          cc-pVTZ                  6       14   3s2p1d



 Forming initial guess at       1.7s

 
      Superposition of Atomic Density Guess
      -------------------------------------
 
 Sum of atomic energies:          -2.99885518
 
      Non-variational initial energy
      ------------------------------

 Total energy =      -2.584704
 1-e energy   =     -10.993265
 2-e energy   =       4.304787
 HOMO         =      -0.287270
 LUMO         =      -0.059364
 

 Starting SCF solution at       1.8s



 ----------------------------------------------
         Quadratically convergent ROHF

 Convergence threshold     :          1.000E-08
 Maximum no. of iterations :           30
 Final Fock-matrix accuracy:          1.000E-10
 ----------------------------------------------


              iter       energy          gnorm     gmax       time
             ----- ------------------- --------- --------- --------
                 1       -3.1909906379  2.14D-01  1.17D-01      2.0
                 2       -3.2005458489  6.07D-02  3.35D-02      2.4
                 3       -3.2010965286  2.87D-03  1.23D-03      2.8
                 4       -3.2010978574  1.18D-06  6.29D-07      3.4
                 5       -3.2010978574  7.28D-10  2.95D-10      4.1


       Final RHF  results 
       ------------------ 

         Total SCF energy =     -3.201097857407
      One-electron energy =    -11.455471085372
      Two-electron energy =      4.150599643059
 Nuclear repulsion energy =      4.103773584906

        Time for solution =      2.3s


             Final eigenvalues
             -----------------

              1      
    1   -0.6452
    2   -0.5432
    3   -0.3887
    4    0.0166
    5    0.1836
    6    0.2979
    7    0.3321
    8    0.4177
    9    0.4560
   10    0.5653
   11    0.5653
   12    0.6054
   13    0.6229
 
                       ROHF Final Molecular Orbital Analysis
                       -------------------------------------
 
 Vector    1  Occ=2.000000D+00  E=-6.452243D-01
              MO Center=  6.0D-17, -3.3D-16,  1.0D-11, r^2= 2.6D+00
   Bfn.  Coefficient  Atom+Function         Bfn.  Coefficient  Atom+Function  
  ----- ------------  ---------------      ----- ------------  ---------------
    30      0.209098  3 H  s                 44      0.209098  4 H  s          
    16      0.154900  2 H  s                 58      0.154900  5 H  s          
 
 Vector    2  Occ=2.000000D+00  E=-5.432472D-01
              MO Center= -8.7D-17, -4.2D-17, -3.7D-12, r^2= 5.3D+00
   Bfn.  Coefficient  Atom+Function         Bfn.  Coefficient  Atom+Function  
  ----- ------------  ---------------      ----- ------------  ---------------
    16      0.210040  2 H  s                 58     -0.210040  5 H  s          
     2      0.176767  1 H  s                 17      0.176612  2 H  s          
    59     -0.176612  5 H  s                 72     -0.176767  6 H  s          
 
 Vector    3  Occ=2.000000D+00  E=-3.886644D-01
              MO Center=  1.2D-16,  9.5D-17, -1.2D-11, r^2= 5.3D+00
   Bfn.  Coefficient  Atom+Function         Bfn.  Coefficient  Atom+Function  
  ----- ------------  ---------------      ----- ------------  ---------------
    31     -0.217153  3 H  s                 45     -0.217153  4 H  s          
     2      0.199756  1 H  s                 30     -0.199835  3 H  s          
    44     -0.199835  4 H  s                 72      0.199756  6 H  s          
     3      0.176098  1 H  s                 73      0.176098  6 H  s          
    17      0.172871  2 H  s                 59      0.172871  5 H  s          
 
 Vector    4  Occ=0.000000D+00  E= 1.659918D-02
              MO Center= -4.0D-18,  3.3D-17,  7.8D-12, r^2= 7.1D+00
   Bfn.  Coefficient  Atom+Function         Bfn.  Coefficient  Atom+Function  
  ----- ------------  ---------------      ----- ------------  ---------------
     3      0.704704  1 H  s                 73     -0.704704  6 H  s          
    17     -0.560432  2 H  s                 59      0.560432  5 H  s          
    30     -0.200695  3 H  s                 44      0.200695  4 H  s          
 
 Vector    5  Occ=0.000000D+00  E= 1.835592D-01
              MO Center=  1.8D-16, -3.1D-16,  9.6D-11, r^2= 1.1D+01
   Bfn.  Coefficient  Atom+Function         Bfn.  Coefficient  Atom+Function  
  ----- ------------  ---------------      ----- ------------  ---------------
    17      1.619233  2 H  s                 59      1.619233  5 H  s          
     3     -1.420339  1 H  s                 73     -1.420339  6 H  s          
    31     -0.714489  3 H  s                 45     -0.714489  4 H  s          
    16      0.191610  2 H  s                 58      0.191610  5 H  s          
 
 Vector    6  Occ=0.000000D+00  E= 2.978746D-01
              MO Center=  8.4D-17, -2.0D-17,  1.0D-10, r^2= 1.3D+01
   Bfn.  Coefficient  Atom+Function         Bfn.  Coefficient  Atom+Function  
  ----- ------------  ---------------      ----- ------------  ---------------
    31      4.548865  3 H  s                 45     -4.548865  4 H  s          
    17     -3.311070  2 H  s                 59      3.311070  5 H  s          
     3      2.058412  1 H  s                 73     -2.058412  6 H  s          
     2     -0.529130  1 H  s                 72      0.529130  6 H  s          
 
 Vector    7  Occ=0.000000D+00  E= 3.320545D-01
              MO Center= -2.0D-16,  3.1D-16, -6.6D-11, r^2= 4.7D+00
   Bfn.  Coefficient  Atom+Function         Bfn.  Coefficient  Atom+Function  
  ----- ------------  ---------------      ----- ------------  ---------------
    17      0.698721  2 H  s                 30     -0.700652  3 H  s          
    44     -0.700652  4 H  s                 59      0.698721  5 H  s          
    31      0.461515  3 H  s                 45      0.461515  4 H  s          
    16     -0.441447  2 H  s                 58     -0.441447  5 H  s          
     2     -0.253065  1 H  s                 72     -0.253065  6 H  s          
 
 Vector    8  Occ=0.000000D+00  E= 4.176795D-01
              MO Center=  9.6D-16, -3.5D-16,  4.1D-11, r^2= 6.8D+00
   Bfn.  Coefficient  Atom+Function         Bfn.  Coefficient  Atom+Function  
  ----- ------------  ---------------      ----- ------------  ---------------
    17      3.517320  2 H  s                 59     -3.517320  5 H  s          
    31     -2.856418  3 H  s                 45      2.856418  4 H  s          
     3     -1.015523  1 H  s                 73      1.015523  6 H  s          
    16     -0.927240  2 H  s                 58      0.927240  5 H  s          
     2     -0.400599  1 H  s                 72      0.400599  6 H  s          
 
 Vector    9  Occ=0.000000D+00  E= 4.560310D-01
              MO Center=  9.3D-18,  2.3D-16, -1.1D-10, r^2= 9.1D+00
   Bfn.  Coefficient  Atom+Function         Bfn.  Coefficient  Atom+Function  
  ----- ------------  ---------------      ----- ------------  ---------------
     3      1.039558  1 H  s                 73      1.039558  6 H  s          
     2     -0.932905  1 H  s                 72     -0.932905  6 H  s          
    31     -0.572493  3 H  s                 45     -0.572493  4 H  s          
    30      0.373762  3 H  s                 44      0.373762  4 H  s          
    16      0.197975  2 H  s                 58      0.197975  5 H  s          
 
 Vector   10  Occ=0.000000D+00  E= 5.653084D-01
              MO Center= -1.2D-16,  8.5D-17,  2.0D-11, r^2= 2.8D+00
   Bfn.  Coefficient  Atom+Function         Bfn.  Coefficient  Atom+Function  
  ----- ------------  ---------------      ----- ------------  ---------------
    36      0.406634  3 H  py                50      0.406634  4 H  py         
    22      0.319223  2 H  py                64      0.319223  5 H  py         
     8      0.181843  1 H  py                78      0.181843  6 H  py         
 
 Vector   11  Occ=0.000000D+00  E= 5.653084D-01
              MO Center=  2.6D-16, -1.0D-16,  2.0D-11, r^2= 2.8D+00
   Bfn.  Coefficient  Atom+Function         Bfn.  Coefficient  Atom+Function  
  ----- ------------  ---------------      ----- ------------  ---------------
    35      0.406634  3 H  px                49      0.406634  4 H  px         
    21      0.319223  2 H  px                63      0.319223  5 H  px         
     7      0.181843  1 H  px                77      0.181843  6 H  px         
 
 Vector   12  Occ=0.000000D+00  E= 6.054189D-01
              MO Center= -1.5D-16,  2.0D-16,  4.0D-10, r^2= 6.9D+00
   Bfn.  Coefficient  Atom+Function         Bfn.  Coefficient  Atom+Function  
  ----- ------------  ---------------      ----- ------------  ---------------
    17      3.683506  2 H  s                 59      3.683506  5 H  s          
    31     -2.182956  3 H  s                 45     -2.182956  4 H  s          
     3     -1.470694  1 H  s                 73     -1.470694  6 H  s          
    16     -1.061910  2 H  s                 58     -1.061910  5 H  s          
    30      0.742957  3 H  s                 44      0.742957  4 H  s          
 
 Vector   13  Occ=0.000000D+00  E= 6.228718D-01
              MO Center= -2.8D-16,  8.5D-17, -3.5D-10, r^2= 6.7D+00
   Bfn.  Coefficient  Atom+Function         Bfn.  Coefficient  Atom+Function  
  ----- ------------  ---------------      ----- ------------  ---------------
    31      2.730812  3 H  s                 45     -2.730812  4 H  s          
    16     -0.709389  2 H  s                 58      0.709389  5 H  s          
     2      0.702765  1 H  s                 72     -0.702765  6 H  s          
     3     -0.685323  1 H  s                 73      0.685323  6 H  s          
    17     -0.487223  2 H  s                 59      0.487223  5 H  s          
 

 center of mass
 --------------
 x =   0.00000000 y =   0.00000000 z =  -0.00000000

 moments of inertia (a.u.)
 ------------------
          79.267451900000           0.000000000000           0.000000000000
           0.000000000000          79.267451900000           0.000000000000
           0.000000000000           0.000000000000           0.000000000000
 
  Mulliken analysis of the total density
  --------------------------------------

    Atom       Charge   Shell Charges
 -----------   ------   -------------------------------------------------------
    1 H    1     0.96   0.17  0.47  0.30  0.00  0.01  0.00
    2 H    1     1.07   0.19  0.50  0.35  0.00  0.02  0.00
    3 H    1     0.97   0.19  0.51  0.24  0.00  0.03  0.00
    4 H    1     0.97   0.19  0.51  0.24  0.00  0.03  0.00
    5 H    1     1.07   0.19  0.50  0.35  0.00  0.02  0.00
    6 H    1     0.96   0.17  0.47  0.30  0.00  0.01  0.00
 
       Multipole analysis of the density wrt the origin
       ------------------------------------------------
 
     L   x y z        total         open         nuclear
     -   - - -        -----         ----         -------
     0   0 0 0     -0.000000      0.000000      6.000000
 
     1   1 0 0     -0.000000      0.000000      0.000000
     1   0 1 0      0.000000      0.000000      0.000000
     1   0 0 1      0.000000      0.000000     -0.000000
 
     2   2 0 0     -5.530608      0.000000      0.000000
     2   1 1 0     -0.000000      0.000000      0.000000
     2   1 0 1      0.000000      0.000000      0.000000
     2   0 2 0     -5.530608      0.000000      0.000000
     2   0 1 1      0.000000      0.000000      0.000000
     2   0 0 2     -3.983227      0.000000     78.652000
 
                   NWChem Extensible Many-Electron Theory Module
                   ---------------------------------------------
 
              ======================================================
                   This portion of the program was automatically
                  generated by a Tensor Contraction Engine (TCE).
                  The development of this portion of the program
                 and TCE was supported by US Department of Energy,
                Office of Science, Office of Basic Energy Science.
                      TCE is a product of Battelle and PNNL.
              Please cite: S.Hirata, J.Phys.Chem.A 107, 9887 (2003).
              ======================================================
 
                                        H6
 
 
            General Information
            -------------------
      Number of processors :     1
         Wavefunction type : Restricted Hartree-Fock
          No. of electrons :     6
           Alpha electrons :     3
            Beta electrons :     3
           No. of orbitals :   168
            Alpha orbitals :    84
             Beta orbitals :    84
        Alpha frozen cores :     0
         Beta frozen cores :     0
     Alpha frozen virtuals :     0
      Beta frozen virtuals :     0
         Spin multiplicity : singlet 
    Number of AO functions :    84
       Number of AO shells :    36
        Use of symmetry is : off
      Symmetry adaption is : off
         Schwarz screening : 0.10D-09
 
          Correlation Information
          -----------------------
          Calculation type : Coupled-cluster singles & doubles                           
   Perturbative correction : none                                                        
            Max iterations :      300
        Residual threshold : 0.10D-07
     T(0) DIIS level shift : 0.00D+00
     L(0) DIIS level shift : 0.00D+00
     T(1) DIIS level shift : 0.00D+00
     L(1) DIIS level shift : 0.00D+00
     T(R) DIIS level shift : 0.00D+00
     T(I) DIIS level shift : 0.00D+00
   CC-T/L Amplitude update :  5-th order DIIS
                I/O scheme : Global Array Library
        L-threshold :  0.10D-07
        EOM-threshold :  0.10D-07
 no EOMCCSD initial starts read in
 TCE RESTART OPTIONS
 READ_INT:   F
 WRITE_INT:  F
 READ_TA:    F
 WRITE_TA:   F
 READ_XA:    F
 WRITE_XA:   F
 READ_IN3:   F
 WRITE_IN3:  F
 SLICE:      F
 D4D5:       F
 quantumc:   F
 qrotation:  F
 pwtce:      F
 qducc:      T
 nacto:                          0
 nrotv:                          0
 nrot:                           0
 
            Memory Information
            ------------------
          Available GA space size is    5368702064 doubles
          Available MA space size is    5368706460 doubles
 
 Maximum block size        32 doubles

 tile_dim =     27

 Block   Spin    Irrep     Size     Offset   Alpha
 -------------------------------------------------
   1    alpha     a      3 doubles       0       1
   2    beta      a      3 doubles       3       1
   3    alpha     a     27 doubles       6       3
   4    alpha     a     27 doubles      33       4
   5    alpha     a     27 doubles      60       5
   6    beta      a     27 doubles      87       3
   7    beta      a     27 doubles     114       4
   8    beta      a     27 doubles     141       5

 Global array virtual files algorithm will be used

 Parallel file system coherency ......... OK
 
 Fock matrix recomputed
 1-e file size   =             7056
 1-e file name   = ./H6.f1
 Cpu & wall time / sec            0.2            0.2
 4-electron integrals stored in orbital form
 
 v2    file size   =         12304143
 4-index algorithm nr.  13 is used
 imaxsize =       30
 imaxsize ichop =        0
 Cpu & wall time / sec            8.3            8.3
 T1-number-of-tasks                     3
 
 t1 file size   =              243
 t1 file name   = ./H6.t1
 t1 file handle =       -998
 T2-number-of-boxes                    15
 
 t2 file size   =            98415
 t2 file name   = ./H6.t2
 t2 file handle =       -996
CCSD iterations
 ---------------------------------------------------------
 Iter          Residuum       Correlation     Cpu    Wall 
 ---------------------------------------------------------
NEW TASK SCHEDULING
CCSD_T1_NTS --- OK
CCSD_T2_NTS --- OK
    1   0.1313285653850  -0.1196337368608     0.9     0.9
    2   0.0513594312760  -0.1400329022141     0.9     0.9
    3   0.0250931031072  -0.1472042832935     0.9     0.9
    4   0.0138158239008  -0.1501873323731     0.9     0.9
    5   0.0082139590616  -0.1516519830745     0.9     0.9
 MICROCYCLE DIIS UPDATE:                     5                     5
    6   0.0025258525372  -0.1533998686846     0.9     0.9
    7   0.0015140714240  -0.1533910060639     0.9     0.9
    8   0.0009262885748  -0.1534027825415     0.9     0.9
    9   0.0006437670547  -0.1534113443763     0.9     0.9
   10   0.0004316348961  -0.1534237259509     0.9     0.9
 MICROCYCLE DIIS UPDATE:                    10                     5
   11   0.0000782690836  -0.1534515967358     0.9     0.9
   12   0.0000323469275  -0.1534585625577     0.9     0.9
   13   0.0000172935220  -0.1534622640438     0.9     0.9
   14   0.0000097498063  -0.1534638729622     0.9     0.9
   15   0.0000058156742  -0.1534647638028     0.9     0.9
 MICROCYCLE DIIS UPDATE:                    15                     5
   16   0.0000017567358  -0.1534658498184     0.9     0.9
   17   0.0000011167269  -0.1534658757930     0.9     0.9
   18   0.0000006897494  -0.1534658894779     0.9     0.9
   19   0.0000004833496  -0.1534658971081     0.9     0.9
   20   0.0000003245850  -0.1534659071607     0.8     0.8
 MICROCYCLE DIIS UPDATE:                    20                     5
   21   0.0000000572070  -0.1534659279492     0.8     0.8
   22   0.0000000242308  -0.1534659342314     0.8     0.8
   23   0.0000000125272  -0.1534659367777     0.8     0.8
   24   0.0000000069167  -0.1534659379602     0.8     0.8
 -----------------------------------------------------------------
 Iterations converged
 CCSD correlation energy / hartree =        -0.153465937960243
 CCSD total energy / hartree       =        -3.354563795367410

 Singles contributions
     4a   (alpha) ---     2a   (alpha)       -0.0217952411
     9a   (alpha) ---     3a   (alpha)       -0.0222454517

 Doubles contributions
     4a   (alpha)     5a   (alpha) ---     2a   (alpha)     3a   (alpha)        0.0345855428
     4a   (alpha)     5a   (alpha) ---     3a   (alpha)     2a   (alpha)       -0.0345855428
     5a   (alpha)     4a   (alpha) ---     2a   (alpha)     3a   (alpha)       -0.0345855428
     5a   (alpha)     4a   (alpha) ---     3a   (alpha)     2a   (alpha)        0.0345855428
     4a   (alpha)     4a   (beta ) ---     1a   (alpha)     1a   (beta )       -0.0425845205
     4a   (alpha)     4a   (beta ) ---     2a   (alpha)     2a   (beta )       -0.0643405368
     4a   (alpha)     4a   (beta ) ---     3a   (alpha)     3a   (beta )       -0.1713331133
     4a   (alpha)     5a   (beta ) ---     1a   (alpha)     2a   (beta )        0.0260767850
     4a   (alpha)     5a   (beta ) ---     2a   (alpha)     3a   (beta )        0.0605093899
     4a   (alpha)     5a   (beta ) ---     3a   (alpha)     2a   (beta )        0.0259238471
     4a   (alpha)     6a   (beta ) ---     1a   (alpha)     3a   (beta )       -0.0221430872
     4a   (alpha)     6a   (beta ) ---     3a   (alpha)     3a   (beta )        0.0505379058
     4a   (alpha)     7a   (beta ) ---     2a   (alpha)     3a   (beta )        0.0229972372
     4a   (alpha)     9a   (beta ) ---     1a   (alpha)     2a   (beta )        0.0246769317
     4a   (alpha)     9a   (beta ) ---     2a   (alpha)     1a   (beta )        0.0205383938
     4a   (alpha)     9a   (beta ) ---     2a   (alpha)     3a   (beta )        0.0418357756
     4a   (alpha)     9a   (beta ) ---     3a   (alpha)     2a   (beta )        0.0314544217
     4a   (alpha)    12a   (beta ) ---     2a   (alpha)     3a   (beta )       -0.0248075157
     4a   (alpha)    13a   (beta ) ---     1a   (alpha)     3a   (beta )       -0.0408600654
     4a   (alpha)    13a   (beta ) ---     2a   (alpha)     2a   (beta )       -0.0263000259
     4a   (alpha)    13a   (beta ) ---     3a   (alpha)     1a   (beta )       -0.0234956579
     4a   (alpha)    18a   (beta ) ---     1a   (alpha)     3a   (beta )        0.0290294280
     5a   (alpha)     4a   (beta ) ---     2a   (alpha)     1a   (beta )        0.0260767850
     5a   (alpha)     4a   (beta ) ---     2a   (alpha)     3a   (beta )        0.0259238471
     5a   (alpha)     4a   (beta ) ---     3a   (alpha)     2a   (beta )        0.0605093899
     5a   (alpha)     5a   (beta ) ---     1a   (alpha)     1a   (beta )       -0.0212618381
     5a   (alpha)     5a   (beta ) ---     2a   (alpha)     2a   (beta )       -0.0404183531
     5a   (alpha)     5a   (beta ) ---     3a   (alpha)     3a   (beta )       -0.0365695247
     5a   (alpha)     9a   (beta ) ---     2a   (alpha)     2a   (beta )       -0.0229633908
     5a   (alpha)    13a   (beta ) ---     1a   (alpha)     2a   (beta )        0.0219618225
     5a   (alpha)    13a   (beta ) ---     2a   (alpha)     3a   (beta )        0.0202750072
     6a   (alpha)     4a   (beta ) ---     3a   (alpha)     1a   (beta )       -0.0221430872
     6a   (alpha)     4a   (beta ) ---     3a   (alpha)     3a   (beta )        0.0505379058
     6a   (alpha)     6a   (beta ) ---     3a   (alpha)     3a   (beta )       -0.0285574922
     7a   (alpha)     4a   (beta ) ---     3a   (alpha)     2a   (beta )        0.0229972372
     9a   (alpha)     4a   (beta ) ---     1a   (alpha)     2a   (beta )        0.0205383938
     9a   (alpha)     4a   (beta ) ---     2a   (alpha)     1a   (beta )        0.0246769317
     9a   (alpha)     4a   (beta ) ---     2a   (alpha)     3a   (beta )        0.0314544217
     9a   (alpha)     4a   (beta ) ---     3a   (alpha)     2a   (beta )        0.0418357756
     9a   (alpha)     5a   (beta ) ---     2a   (alpha)     2a   (beta )       -0.0229633908
     9a   (alpha)     9a   (beta ) ---     2a   (alpha)     2a   (beta )       -0.0242004729
     9a   (alpha)     9a   (beta ) ---     3a   (alpha)     3a   (beta )       -0.0206085030
    10a   (alpha)    10a   (beta ) ---     1a   (alpha)     1a   (beta )       -0.0222894667
    11a   (alpha)    11a   (beta ) ---     1a   (alpha)     1a   (beta )       -0.0222894667
    12a   (alpha)     4a   (beta ) ---     3a   (alpha)     2a   (beta )       -0.0248075157
    13a   (alpha)     4a   (beta ) ---     1a   (alpha)     3a   (beta )       -0.0234956579
    13a   (alpha)     4a   (beta ) ---     2a   (alpha)     2a   (beta )       -0.0263000259
    13a   (alpha)     4a   (beta ) ---     3a   (alpha)     1a   (beta )       -0.0408600654
    13a   (alpha)     5a   (beta ) ---     2a   (alpha)     1a   (beta )        0.0219618225
    13a   (alpha)     5a   (beta ) ---     3a   (alpha)     2a   (beta )        0.0202750072
    13a   (alpha)    13a   (beta ) ---     2a   (alpha)     2a   (beta )       -0.0207444523
    18a   (alpha)     4a   (beta ) ---     3a   (alpha)     1a   (beta )        0.0290294280
 Ground state specification:
 exp(T)|Ref>~(1+T)|Ref>
 ------- a(p)+/a(q) strings ----------

 singles norm

 doubles norm

 Reference string
  0.985637919338386      :(1a)+ (2a)+ (3a)+ (1b)+ (2b)+ (3b)+ |0>

 Singles strings

 Doubles strings
 -0.168872413266044      :(4a)+ (4b)+ (3b)  (3a)  (1a)+ (2a)+ (3a)+ (1b)+ (2b)+ 
 (3b)+ |0>
 -------------------------------------
 enrep_tce =    4.10377358490566     
  EHF(total)         =        -3.20109786
  Shift (HFtot-HFA)  =         0.00000000
 ALL OCCUPIED ORBITALS ARE ACTIVE IN DUCC --> NO SHIFT
 Number of active orbitals                     6
 Number of active alpha electrons                     3
 Number of active beta electrons                     3
  nos                      6
  nvs                    162
 noas                      3
 nobs                      3
 nvas                     81
 nvbs                     81
 nactv                      3
 DUCC MODEL =                      6
 NONHF =  T
 F-T1 correlation    =   9.558928219109840E-013
 V-T1-T1 correlation =   6.008967110825341E-005
 V-T2 correlation    =  -0.153526027629768     
 Total correlation   =  -0.153465937957704     
 F-T1(Ext) correlation         =   7.293842443426329E-013
 V-T1(Ext)-T1(Ext) correlation =   6.621582748331284E-005
 V-T2(Ext) correlation         =  -0.114981758274068     
 Total Ext correlation         =  -0.114915542445856     
1-BODY TIME =  656.108 SECONDS.
  HHHH TIME =  627.748 SECONDS.
  PPPP TIME =   15.608 SECONDS.
  HHHP TIME =   35.046 SECONDS.
  PPPH TIME =   21.701 SECONDS.
  HPHP TIME =   37.243 SECONDS.
  HHPP TIME =   21.845 SECONDS.
 ONE-BODY UNITARY CHECK
 TWO-BODY UNITARY CHECK
 TWO-BODY ANTISYMMETRY CHECK
 TRANSFORMED ~FOCK~ MATRIX
    1    1        -0.6777770037
    1    3         0.0015936259
    1    5        -0.0027528430
    2    2        -0.5766598990
    2    4         0.0019137899
    2    6         0.0071654775
    3    1         0.0015936259
    3    3        -0.4237293540
    3    5        -0.0070133332
    4    2         0.0019137899
    4    4         0.0303666655
    4    6        -0.0038277211
    5    1        -0.0027528430
    5    3        -0.0070133332
    5    5         0.1928574970
    6    2         0.0071654775
    6    4        -0.0038277211
    6    6         0.3034600155
 begin_one_electron_integrals
    1    1        -2.0989600079
    1    3         0.1316933422
    1    5        -0.0671533685
    2    2        -1.8811930572
    2    4         0.1918938438
    2    6         0.0593079477
    3    1         0.1316933422
    3    3        -1.7620091316
    3    5        -0.1813160449
    4    2         0.1918938438
    4    4        -1.5155634567
    4    6         0.2812647572
    5    1        -0.0671533685
    5    3        -0.1813160449
    5    5        -1.1447164259
    6    2         0.0593079477
    6    4         0.2812647572
    6    6        -0.9360864796
 end_one_electron_integrals
 begin_two_electron_integrals
    1    1    1    1        0.3806493157
    1    1    1    3       -0.0666434569
    1    1    1    5        0.0070269286
    1    2    1    2        0.1130799216
    1    2    1    4       -0.0398677453
    1    2    1    6       -0.0015134045
    1    3    1    1       -0.0666434569
    1    3    1    3        0.0817218165
    1    3    1    5        0.0240056974
    1    4    1    2       -0.0398677453
    1    4    1    4        0.0614672229
    1    4    1    6       -0.0256885682
    1    5    1    1        0.0070269286
    1    5    1    3        0.0240056974
    1    5    1    5        0.0321381610
    1    6    1    2       -0.0015134045
    1    6    1    4       -0.0256885682
    1    6    1    6        0.0231604823
    1    1    2    2        0.3034987765
    1    1    2    4       -0.0642584468
    1    1    2    6       -0.0043815440
    1    2    2    1        0.1133753037
    1    2    2    3        0.0839618703
    1    2    2    5        0.0351373429
    1    3    2    2        0.0200468159
    1    3    2    4        0.0410128296
    1    3    2    6       -0.0291701474
    1    4    2    1       -0.0399116081
    1    4    2    3        0.0046361066
    1    4    2    5       -0.0307201674
    1    5    2    2        0.0303223522
    1    5    2    4       -0.0152948436
    1    5    2    6       -0.0131803940
    1    6    2    1       -0.0010604355
    1    6    2    3       -0.0204273571
    1    6    2    5       -0.0035114173
    1    1    3    1       -0.0666434569
    1    1    3    3        0.3145870534
    1    1    3    5        0.0632235034
    1    2    3    2        0.0861998452
    1    2    3    4        0.0579899040
    1    2    3    6       -0.0457770954
    1    3    3    1        0.0822626675
    1    3    3    3       -0.0195880209
    1    3    3    5       -0.0305652383
    1    4    3    2        0.0031790211
    1    4    3    4       -0.0062708649
    1    4    3    6        0.0171789715
    1    5    3    1        0.0235353595
    1    5    3    3        0.0006504986
    1    5    3    5        0.0058933848
    1    6    3    2       -0.0198387596
    1    6    3    4        0.0019191765
    1    6    3    6        0.0027169820
    1    1    4    2       -0.0642584468
    1    1    4    4        0.2987247495
    1    1    4    6       -0.0756977298
    1    2    4    1       -0.0399116081
    1    2    4    3        0.0604485040
    1    2    4    5       -0.0675472239
    1    3    4    2        0.0413943203
    1    3    4    4       -0.0154355973
    1    3    4    6        0.0274493608
    1    4    4    1        0.0561772243
    1    4    4    3       -0.0077189979
    1    4    4    5        0.0034528922
    1    5    4    2       -0.0134753995
    1    5    4    4        0.0056304929
    1    5    4    6        0.0010762425
    1    6    4    1       -0.0223211785
    1    6    4    3        0.0028774834
    1    6    4    5        0.0066976044
    1    1    5    1        0.0070269286
    1    1    5    3        0.0632235034
    1    1    5    5        0.2375642289
    1    2    5    2        0.0349045290
    1    2    5    4       -0.0670728173
    1    2    5    6       -0.0426012865
    1    3    5    1        0.0235353595
    1    3    5    3       -0.0324894473
    1    3    5    5        0.0071974098
    1    4    5    2       -0.0278356102
    1    4    5    4        0.0035741499
    1    4    5    6        0.0041386582
    1    5    5    1        0.0266434849
    1    5    5    3        0.0061574318
    1    5    5    5        0.0103562688
    1    6    5    2       -0.0025894170
    1    6    5    4        0.0066674861
    1    6    5    6       -0.0004799050
    1    1    6    2       -0.0043815440
    1    1    6    4       -0.0756977298
    1    1    6    6        0.2160816840
    1    2    6    1       -0.0010604355
    1    2    6    3       -0.0471287922
    1    2    6    5       -0.0422980869
    1    3    6    2       -0.0298413068
    1    3    6    4        0.0270344175
    1    3    6    6        0.0026848438
    1    4    6    1       -0.0223211785
    1    4    6    3        0.0174947291
    1    4    6    5        0.0043568210
    1    5    6    2       -0.0109250795
    1    5    6    4        0.0013807511
    1    5    6    6        0.0008185114
    1    6    6    1        0.0188116129
    1    6    6    3        0.0014336172
    1    6    6    5       -0.0005562632
    2    1    1    2        0.1133753037
    2    1    1    4       -0.0399116081
    2    1    1    6       -0.0010604355
    2    2    1    1        0.3034987765
    2    2    1    3        0.0200468159
    2    2    1    5        0.0303223522
    2    3    1    2        0.0839618703
    2    3    1    4        0.0046361066
    2    3    1    6       -0.0204273571
    2    4    1    1       -0.0642584468
    2    4    1    3        0.0410128296
    2    4    1    5       -0.0152948436
    2    5    1    2        0.0351373429
    2    5    1    4       -0.0307201674
    2    5    1    6       -0.0035114173
    2    6    1    1       -0.0043815440
    2    6    1    3       -0.0291701474
    2    6    1    5       -0.0131803940
    2    1    2    1        0.1130799216
    2    1    2    3        0.0861998452
    2    1    2    5        0.0349045290
    2    2    2    2        0.3248043416
    2    2    2    4       -0.0167764082
    2    2    2    6       -0.0366701423
    2    3    2    1        0.0861998452
    2    3    2    3        0.0990743867
    2    3    2    5        0.0152387330
    2    4    2    2       -0.0167764082
    2    4    2    4        0.0650210535
    2    4    2    6       -0.0205203610
    2    5    2    1        0.0349045290
    2    5    2    3        0.0152387330
    2    5    2    5        0.0429431705
    2    6    2    2       -0.0366701423
    2    6    2    4       -0.0205203610
    2    6    2    6        0.0293641298
    2    1    3    2        0.0839618703
    2    1    3    4        0.0604485040
    2    1    3    6       -0.0471287922
    2    2    3    1        0.0200468159
    2    2    3    3        0.2927485821
    2    2    3    5        0.0272758123
    2    3    3    2        0.0993905967
    2    3    3    4        0.0565597680
    2    3    3    6       -0.0342832976
    2    4    3    1        0.0413943203
    2    4    3    3       -0.0140192961
    2    4    3    5       -0.0431086542
    2    5    3    2        0.0143604009
    2    5    3    4       -0.0119204597
    2    5    3    6       -0.0146213022
    2    6    3    1       -0.0298413068
    2    6    3    3       -0.0210264864
    2    6    3    5        0.0031925314
    2    1    4    1       -0.0398677453
    2    1    4    3        0.0579899040
    2    1    4    5       -0.0670728173
    2    2    4    2       -0.0167764082
    2    2    4    4        0.2818293070
    2    2    4    6       -0.0463366589
    2    3    4    1        0.0031790211
    2    3    4    3        0.0589541547
    2    3    4    5       -0.0707357663
    2    4    4    2        0.0591295346
    2    4    4    4       -0.0157078092
    2    4    4    6        0.0182866998
    2    5    4    1       -0.0278356102
    2    5    4    3       -0.0083024418
    2    5    4    5       -0.0062984039
    2    6    4    2       -0.0164482645
    2    6    4    4       -0.0147918744
    2    6    4    6        0.0038933147
    2    1    5    2        0.0351373429
    2    1    5    4       -0.0675472239
    2    1    5    6       -0.0422980869
    2    2    5    1        0.0303223522
    2    2    5    3        0.0272758123
    2    2    5    5        0.2446952115
    2    3    5    2        0.0143604009
    2    3    5    4       -0.0701768183
    2    3    5    6       -0.0441056452
    2    4    5    1       -0.0134753995
    2    4    5    3       -0.0374952276
    2    4    5    5       -0.0066387907
    2    5    5    2        0.0363469391
    2    5    5    4       -0.0072198224
    2    5    5    6        0.0010634225
    2    6    5    1       -0.0109250795
    2    6    5    3        0.0018297001
    2    6    5    5       -0.0129381737
    2    1    6    1       -0.0015134045
    2    1    6    3       -0.0457770954
    2    1    6    5       -0.0426012865
    2    2    6    2       -0.0366701423
    2    2    6    4       -0.0463366589
    2    2    6    6        0.2193998675
    2    3    6    1       -0.0198387596
    2    3    6    3       -0.0371418888
    2    3    6    5       -0.0435039750
    2    4    6    2       -0.0164482645
    2    4    6    4        0.0175850673
    2    4    6    6        0.0043372419
    2    5    6    1       -0.0025894170
    2    5    6    3       -0.0144061429
    2    5    6    5        0.0000838968
    2    6    6    2        0.0234550562
    2    6    6    4        0.0040002041
    2    6    6    6       -0.0105599528
    3    1    1    1       -0.0666434569
    3    1    1    3        0.0822626675
    3    1    1    5        0.0235353595
    3    2    1    2        0.0861998452
    3    2    1    4        0.0031790211
    3    2    1    6       -0.0198387596
    3    3    1    1        0.3145870534
    3    3    1    3       -0.0195880209
    3    3    1    5        0.0006504986
    3    4    1    2        0.0579899040
    3    4    1    4       -0.0062708649
    3    4    1    6        0.0019191765
    3    5    1    1        0.0632235034
    3    5    1    3       -0.0305652383
    3    5    1    5        0.0058933848
    3    6    1    2       -0.0457770954
    3    6    1    4        0.0171789715
    3    6    1    6        0.0027169820
    3    1    2    2        0.0200468159
    3    1    2    4        0.0413943203
    3    1    2    6       -0.0298413068
    3    2    2    1        0.0839618703
    3    2    2    3        0.0993905967
    3    2    2    5        0.0143604009
    3    3    2    2        0.2927485821
    3    3    2    4       -0.0140192961
    3    3    2    6       -0.0210264864
    3    4    2    1        0.0604485040
    3    4    2    3        0.0565597680
    3    4    2    5       -0.0119204597
    3    5    2    2        0.0272758123
    3    5    2    4       -0.0431086542
    3    5    2    6        0.0031925314
    3    6    2    1       -0.0471287922
    3    6    2    3       -0.0342832976
    3    6    2    5       -0.0146213022
    3    1    3    1        0.0817218165
    3    1    3    3       -0.0195880209
    3    1    3    5       -0.0324894473
    3    2    3    2        0.0990743867
    3    2    3    4        0.0589541547
    3    2    3    6       -0.0371418888
    3    3    3    1       -0.0195880209
    3    3    3    3        0.3052617709
    3    3    3    5        0.0311998408
    3    4    3    2        0.0589541547
    3    4    3    4        0.0797056647
    3    4    3    6       -0.0391718086
    3    5    3    1       -0.0324894473
    3    5    3    3        0.0311998408
    3    5    3    5        0.0391364008
    3    6    3    2       -0.0371418888
    3    6    3    4       -0.0391718086
    3    6    3    6        0.0367458878
    3    1    4    2        0.0410128296
    3    1    4    4       -0.0154355973
    3    1    4    6        0.0270344175
    3    2    4    1        0.0046361066
    3    2    4    3        0.0565597680
    3    2    4    5       -0.0701768183
    3    3    4    2       -0.0140192961
    3    3    4    4        0.2835806774
    3    3    4    6       -0.0557790111
    3    4    4    1       -0.0077189979
    3    4    4    3        0.0670325868
    3    4    4    5       -0.0490224629
    3    5    4    2       -0.0374952276
    3    5    4    4        0.0193768092
    3    5    4    6       -0.0226661667
    3    6    4    1        0.0174947291
    3    6    4    3       -0.0317648783
    3    6    4    5        0.0182566522
    3    1    5    1        0.0240056974
    3    1    5    3       -0.0305652383
    3    1    5    5        0.0071974098
    3    2    5    2        0.0152387330
    3    2    5    4       -0.0707357663
    3    2    5    6       -0.0435039750
    3    3    5    1        0.0006504986
    3    3    5    3        0.0311998408
    3    3    5    5        0.2363733829
    3    4    5    2       -0.0083024418
    3    4    5    4       -0.0459702117
    3    4    5    6       -0.0361564028
    3    5    5    1        0.0061574318
    3    5    5    3        0.0367012998
    3    5    5    5        0.0088296828
    3    6    5    2       -0.0144061429
    3    6    5    4        0.0174601518
    3    6    5    6        0.0075195394
    3    1    6    2       -0.0291701474
    3    1    6    4        0.0274493608
    3    1    6    6        0.0026848438
    3    2    6    1       -0.0204273571
    3    2    6    3       -0.0342832976
    3    2    6    5       -0.0441056452
    3    3    6    2       -0.0210264864
    3    3    6    4       -0.0557790111
    3    3    6    6        0.2211117330
    3    4    6    1        0.0028774834
    3    4    6    3       -0.0317648783
    3    4    6    5       -0.0339514432
    3    5    6    2        0.0018297001
    3    5    6    4       -0.0210323734
    3    5    6    6        0.0017627671
    3    6    6    1        0.0014336172
    3    6    6    3        0.0313734048
    3    6    6    5        0.0070826895
    4    1    1    2       -0.0399116081
    4    1    1    4        0.0561772243
    4    1    1    6       -0.0223211785
    4    2    1    1       -0.0642584468
    4    2    1    3        0.0413943203
    4    2    1    5       -0.0134753995
    4    3    1    2        0.0604485040
    4    3    1    4       -0.0077189979
    4    3    1    6        0.0028774834
    4    4    1    1        0.2987247495
    4    4    1    3       -0.0154355973
    4    4    1    5        0.0056304929
    4    5    1    2       -0.0675472239
    4    5    1    4        0.0034528922
    4    5    1    6        0.0066976044
    4    6    1    1       -0.0756977298
    4    6    1    3        0.0274493608
    4    6    1    5        0.0010762425
    4    1    2    1       -0.0398677453
    4    1    2    3        0.0031790211
    4    1    2    5       -0.0278356102
    4    2    2    2       -0.0167764082
    4    2    2    4        0.0591295346
    4    2    2    6       -0.0164482645
    4    3    2    1        0.0579899040
    4    3    2    3        0.0589541547
    4    3    2    5       -0.0083024418
    4    4    2    2        0.2818293070
    4    4    2    4       -0.0157078092
    4    4    2    6       -0.0147918744
    4    5    2    1       -0.0670728173
    4    5    2    3       -0.0707357663
    4    5    2    5       -0.0062984039
    4    6    2    2       -0.0463366589
    4    6    2    4        0.0182866998
    4    6    2    6        0.0038933147
    4    1    3    2        0.0046361066
    4    1    3    4       -0.0077189979
    4    1    3    6        0.0174947291
    4    2    3    1        0.0410128296
    4    2    3    3       -0.0140192961
    4    2    3    5       -0.0374952276
    4    3    3    2        0.0565597680
    4    3    3    4        0.0670325868
    4    3    3    6       -0.0317648783
    4    4    3    1       -0.0154355973
    4    4    3    3        0.2835806774
    4    4    3    5        0.0193768092
    4    5    3    2       -0.0701768183
    4    5    3    4       -0.0490224629
    4    5    3    6        0.0182566522
    4    6    3    1        0.0270344175
    4    6    3    3       -0.0557790111
    4    6    3    5       -0.0226661667
    4    1    4    1        0.0614672229
    4    1    4    3       -0.0062708649
    4    1    4    5        0.0035741499
    4    2    4    2        0.0650210535
    4    2    4    4       -0.0157078092
    4    2    4    6        0.0175850673
    4    3    4    1       -0.0062708649
    4    3    4    3        0.0797056647
    4    3    4    5       -0.0459702117
    4    4    4    2       -0.0157078092
    4    4    4    4        0.2703021399
    4    4    4    6       -0.0418598554
    4    5    4    1        0.0035741499
    4    5    4    3       -0.0459702117
    4    5    4    5        0.0667422431
    4    6    4    2        0.0175850673
    4    6    4    4       -0.0418598554
    4    6    4    6        0.0353881746
    4    1    5    2       -0.0307201674
    4    1    5    4        0.0034528922
    4    1    5    6        0.0043568210
    4    2    5    1       -0.0152948436
    4    2    5    3       -0.0431086542
    4    2    5    5       -0.0066387907
    4    3    5    2       -0.0119204597
    4    3    5    4       -0.0490224629
    4    3    5    6       -0.0339514432
    4    4    5    1        0.0056304929
    4    4    5    3        0.0193768092
    4    4    5    5        0.2284967889
    4    5    5    2       -0.0072198224
    4    5    5    4        0.0669208870
    4    5    5    6        0.0497587106
    4    6    5    1        0.0013807511
    4    6    5    3       -0.0210323734
    4    6    5    5       -0.0108437631
    4    1    6    1       -0.0256885682
    4    1    6    3        0.0171789715
    4    1    6    5        0.0041386582
    4    2    6    2       -0.0205203610
    4    2    6    4        0.0182866998
    4    2    6    6        0.0043372419
    4    3    6    1        0.0019191765
    4    3    6    3       -0.0391718086
    4    3    6    5       -0.0361564028
    4    4    6    2       -0.0147918744
    4    4    6    4       -0.0418598554
    4    4    6    6        0.2129422538
    4    5    6    1        0.0066674861
    4    5    6    3        0.0174601518
    4    5    6    5        0.0497420765
    4    6    6    2        0.0040002041
    4    6    6    4        0.0356078356
    4    6    6    6       -0.0101118478
    5    1    1    1        0.0070269286
    5    1    1    3        0.0235353595
    5    1    1    5        0.0266434849
    5    2    1    2        0.0349045290
    5    2    1    4       -0.0278356102
    5    2    1    6       -0.0025894170
    5    3    1    1        0.0632235034
    5    3    1    3       -0.0324894473
    5    3    1    5        0.0061574318
    5    4    1    2       -0.0670728173
    5    4    1    4        0.0035741499
    5    4    1    6        0.0066674861
    5    5    1    1        0.2375642289
    5    5    1    3        0.0071974098
    5    5    1    5        0.0103562688
    5    6    1    2       -0.0426012865
    5    6    1    4        0.0041386582
    5    6    1    6       -0.0004799050
    5    1    2    2        0.0303223522
    5    1    2    4       -0.0134753995
    5    1    2    6       -0.0109250795
    5    2    2    1        0.0351373429
    5    2    2    3        0.0143604009
    5    2    2    5        0.0363469391
    5    3    2    2        0.0272758123
    5    3    2    4       -0.0374952276
    5    3    2    6        0.0018297001
    5    4    2    1       -0.0675472239
    5    4    2    3       -0.0701768183
    5    4    2    5       -0.0072198224
    5    5    2    2        0.2446952115
    5    5    2    4       -0.0066387907
    5    5    2    6       -0.0129381737
    5    6    2    1       -0.0422980869
    5    6    2    3       -0.0441056452
    5    6    2    5        0.0010634225
    5    1    3    1        0.0240056974
    5    1    3    3        0.0006504986
    5    1    3    5        0.0061574318
    5    2    3    2        0.0152387330
    5    2    3    4       -0.0083024418
    5    2    3    6       -0.0144061429
    5    3    3    1       -0.0305652383
    5    3    3    3        0.0311998408
    5    3    3    5        0.0367012998
    5    4    3    2       -0.0707357663
    5    4    3    4       -0.0459702117
    5    4    3    6        0.0174601518
    5    5    3    1        0.0071974098
    5    5    3    3        0.2363733829
    5    5    3    5        0.0088296828
    5    6    3    2       -0.0435039750
    5    6    3    4       -0.0361564028
    5    6    3    6        0.0075195394
    5    1    4    2       -0.0152948436
    5    1    4    4        0.0056304929
    5    1    4    6        0.0013807511
    5    2    4    1       -0.0307201674
    5    2    4    3       -0.0119204597
    5    2    4    5       -0.0072198224
    5    3    4    2       -0.0431086542
    5    3    4    4        0.0193768092
    5    3    4    6       -0.0210323734
    5    4    4    1        0.0034528922
    5    4    4    3       -0.0490224629
    5    4    4    5        0.0669208870
    5    5    4    2       -0.0066387907
    5    5    4    4        0.2284967889
    5    5    4    6       -0.0108437631
    5    6    4    1        0.0043568210
    5    6    4    3       -0.0339514432
    5    6    4    5        0.0497587106
    5    1    5    1        0.0321381610
    5    1    5    3        0.0058933848
    5    1    5    5        0.0103562688
    5    2    5    2        0.0429431705
    5    2    5    4       -0.0062984039
    5    2    5    6        0.0000838968
    5    3    5    1        0.0058933848
    5    3    5    3        0.0391364008
    5    3    5    5        0.0088296828
    5    4    5    2       -0.0062984039
    5    4    5    4        0.0667422431
    5    4    5    6        0.0497420765
    5    5    5    1        0.0103562688
    5    5    5    3        0.0088296828
    5    5    5    5        0.2191649655
    5    6    5    2        0.0000838968
    5    6    5    4        0.0497420765
    5    6    5    6        0.0522261672
    5    1    6    2       -0.0131803940
    5    1    6    4        0.0010762425
    5    1    6    6        0.0008185114
    5    2    6    1       -0.0035114173
    5    2    6    3       -0.0146213022
    5    2    6    5        0.0010634225
    5    3    6    2        0.0031925314
    5    3    6    4       -0.0226661667
    5    3    6    6        0.0017627671
    5    4    6    1        0.0066976044
    5    4    6    3        0.0182566522
    5    4    6    5        0.0497587106
    5    5    6    2       -0.0129381737
    5    5    6    4       -0.0108437631
    5    5    6    6        0.2021004100
    5    6    6    1       -0.0005562632
    5    6    6    3        0.0070826895
    5    6    6    5        0.0521970170
    5    6    6    6       -0.0000000005
    6    1    1    2       -0.0010604355
    6    1    1    4       -0.0223211785
    6    1    1    6        0.0188116129
    6    2    1    1       -0.0043815440
    6    2    1    3       -0.0298413068
    6    2    1    5       -0.0109250795
    6    3    1    2       -0.0471287922
    6    3    1    4        0.0174947291
    6    3    1    6        0.0014336172
    6    4    1    1       -0.0756977298
    6    4    1    3        0.0270344175
    6    4    1    5        0.0013807511
    6    5    1    2       -0.0422980869
    6    5    1    4        0.0043568210
    6    5    1    6       -0.0005562632
    6    6    1    1        0.2160816840
    6    6    1    3        0.0026848438
    6    6    1    5        0.0008185114
    6    1    2    1       -0.0015134045
    6    1    2    3       -0.0198387596
    6    1    2    5       -0.0025894170
    6    2    2    2       -0.0366701423
    6    2    2    4       -0.0164482645
    6    2    2    6        0.0234550562
    6    3    2    1       -0.0457770954
    6    3    2    3       -0.0371418888
    6    3    2    5       -0.0144061429
    6    4    2    2       -0.0463366589
    6    4    2    4        0.0175850673
    6    4    2    6        0.0040002041
    6    5    2    1       -0.0426012865
    6    5    2    3       -0.0435039750
    6    5    2    5        0.0000838968
    6    6    2    2        0.2193998675
    6    6    2    4        0.0043372419
    6    6    2    6       -0.0105599528
    6    1    3    2       -0.0204273571
    6    1    3    4        0.0028774834
    6    1    3    6        0.0014336172
    6    2    3    1       -0.0291701474
    6    2    3    3       -0.0210264864
    6    2    3    5        0.0018297001
    6    3    3    2       -0.0342832976
    6    3    3    4       -0.0317648783
    6    3    3    6        0.0313734048
    6    4    3    1        0.0274493608
    6    4    3    3       -0.0557790111
    6    4    3    5       -0.0210323734
    6    5    3    2       -0.0441056452
    6    5    3    4       -0.0339514432
    6    5    3    6        0.0070826895
    6    6    3    1        0.0026848438
    6    6    3    3        0.2211117330
    6    6    3    5        0.0017627671
    6    1    4    1       -0.0256885682
    6    1    4    3        0.0019191765
    6    1    4    5        0.0066674861
    6    2    4    2       -0.0205203610
    6    2    4    4       -0.0147918744
    6    2    4    6        0.0040002041
    6    3    4    1        0.0171789715
    6    3    4    3       -0.0391718086
    6    3    4    5        0.0174601518
    6    4    4    2        0.0182866998
    6    4    4    4       -0.0418598554
    6    4    4    6        0.0356078356
    6    5    4    1        0.0041386582
    6    5    4    3       -0.0361564028
    6    5    4    5        0.0497420765
    6    6    4    2        0.0043372419
    6    6    4    4        0.2129422538
    6    6    4    6       -0.0101118478
    6    1    5    2       -0.0035114173
    6    1    5    4        0.0066976044
    6    1    5    6       -0.0005562632
    6    2    5    1       -0.0131803940
    6    2    5    3        0.0031925314
    6    2    5    5       -0.0129381737
    6    3    5    2       -0.0146213022
    6    3    5    4        0.0182566522
    6    3    5    6        0.0070826895
    6    4    5    1        0.0010762425
    6    4    5    3       -0.0226661667
    6    4    5    5       -0.0108437631
    6    5    5    2        0.0010634225
    6    5    5    4        0.0497587106
    6    5    5    6        0.0521970170
    6    6    5    1        0.0008185114
    6    6    5    3        0.0017627671
    6    6    5    5        0.2021004100
    6    6    5    6       -0.0000000005
    6    1    6    1        0.0231604823
    6    1    6    3        0.0027169820
    6    1    6    5       -0.0004799050
    6    2    6    2        0.0293641298
    6    2    6    4        0.0038933147
    6    2    6    6       -0.0105599528
    6    3    6    1        0.0027169820
    6    3    6    3        0.0367458878
    6    3    6    5        0.0075195394
    6    4    6    2        0.0038933147
    6    4    6    4        0.0353881746
    6    4    6    6       -0.0101118478
    6    5    6    1       -0.0004799050
    6    5    6    3        0.0075195394
    6    5    6    5        0.0522261672
    6    5    6    6       -0.0000000005
    6    6    6    2       -0.0105599528
    6    6    6    4       -0.0101118478
    6    6    6    5       -0.0000000005
    6    6    6    6        0.1975907631
 end_two_electron_integrals

 Task  times  cpu:     1576.0s     wall:     1576.0s
 
 
                                NWChem Input Module
                                -------------------
 
 
 Summary of allocated global arrays
-----------------------------------
  No active global arrays


MA_summarize_allocated_blocks: starting scan ...
MA_summarize_allocated_blocks: scan completed: 0 heap blocks, 0 stack blocks
MA usage statistics:

	allocation statistics:
					      heap	     stack
					      ----	     -----
	current number of blocks	         0	         0
	maximum number of blocks	        16	        42
	current total bytes		         0	         0
	maximum total bytes		     80104	20728605000
	maximum total K-bytes		        81	  20728605
	maximum total M-bytes		         1	     20729
 
 
                                     CITATION
                                     --------
                Please cite the following reference when publishing
                           results obtained with NWChem:
 
          E. Apra, E. J. Bylaska, W. A. de Jong, N. Govind, K. Kowalski,
       T. P. Straatsma, M. Valiev, H. J. J. van Dam, Y. Alexeev, J. Anchell,
       V. Anisimov, F. W. Aquino, R. Atta-Fynn, J. Autschbach, N. P. Bauman,
     J. C. Becca, D. E. Bernholdt, K. Bhaskaran-Nair, S. Bogatko, P. Borowski,
         J. Boschen, J. Brabec, A. Bruner, E. Cauet, Y. Chen, G. N. Chuev,
      C. J. Cramer, J. Daily, M. J. O. Deegan, T. H. Dunning Jr., M. Dupuis,
   K. G. Dyall, G. I. Fann, S. A. Fischer, A. Fonari, H. Fruchtl, L. Gagliardi,
      J. Garza, N. Gawande, S. Ghosh, K. Glaesemann, A. W. Gotz, J. Hammond,
       V. Helms, E. D. Hermes, K. Hirao, S. Hirata, M. Jacquelin, L. Jensen,
   B. G. Johnson, H. Jonsson, R. A. Kendall, M. Klemm, R. Kobayashi, V. Konkov,
      S. Krishnamoorthy, M. Krishnan, Z. Lin, R. D. Lins, R. J. Littlefield,
      A. J. Logsdail, K. Lopata, W. Ma, A. V. Marenich, J. Martin del Campo,
   D. Mejia-Rodriguez, J. E. Moore, J. M. Mullin, T. Nakajima, D. R. Nascimento,
    J. A. Nichols, P. J. Nichols, J. Nieplocha, A. Otero-de-la-Roza, B. Palmer,
    A. Panyala, T. Pirojsirikul, B. Peng, R. Peverati, J. Pittner, L. Pollack,
   R. M. Richard, P. Sadayappan, G. C. Schatz, W. A. Shelton, D. W. Silverstein,
   D. M. A. Smith, T. A. Soares, D. Song, M. Swart, H. L. Taylor, G. S. Thomas,
            V. Tipparaju, D. G. Truhlar, K. Tsemekhman, T. Van Voorhis,
      A. Vazquez-Mayagoitia, P. Verma, O. Villa, A. Vishnu, K. D. Vogiatzis,
        D. Wang, J. H. Weare, M. J. Williamson, T. L. Windus, K. Wolinski,
        A. T. Wong, Q. Wu, C. Yang, Q. Yu, M. Zacharias, Z. Zhang, Y. Zhao,
                                and R. J. Harrison
                        "NWChem: Past, present, and future
                         J. Chem. Phys. 152, 184102 (2020)
                               doi:10.1063/5.0004997
 
                                      AUTHORS
                                      -------
  E. Apra, E. J. Bylaska, N. Govind, K. Kowalski, M. Valiev, D. Mejia-Rodriguez,
       A. Kunitsa, N. P. Bauman, A. Panyala, W. A. de Jong, T. P. Straatsma,
   H. J. J. van Dam, D. Wang, T. L. Windus, J. Hammond, J. Autschbach, A. Woods,
    K. Bhaskaran-Nair, J. Brabec, K. Lopata, S. A. Fischer, S. Krishnamoorthy,
     M. Jacquelin, W. Ma, M. Klemm, O. Villa, Y. Chen, V. Anisimov, F. Aquino,
     S. Hirata, M. T. Hackler, E. Hermes, L. Jensen, J. E. Moore, J. C. Becca,
      V. Konjkov, T. Risthaus, M. Malagoli, A. Marenich, A. Otero-de-la-Roza,
        J. Mullin, P. Nichols, R. Peverati, J. Pittner, Y. Zhao, P.-D. Fan,
        A. Fonari, M. J. Williamson, R. J. Harrison, J. R. Rehr, M. Dupuis,
     D. Silverstein, D. M. A. Smith, J. Nieplocha, V. Tipparaju, M. Krishnan,
     B. E. Van Kuiken, A. Vazquez-Mayagoitia, M. Swart, Q. Wu, T. Van Voorhis,
     A. A. Auer, M. Nooijen, L. D. Crosby, E. Brown, G. Cisneros, G. I. Fann,
   H. Fruchtl, J. Garza, K. Hirao, R. A. Kendall, J. A. Nichols, K. Tsemekhman,
    K. Wolinski, J. Anchell, D. E. Bernholdt, P. Borowski, T. Clark, D. Clerc,
   H. Dachsel, M. J. O. Deegan, K. Dyall, D. Elwood, E. Glendening, M. Gutowski,
   A. C. Hess, J. Jaffe, B. G. Johnson, J. Ju, R. Kobayashi, R. Kutteh, Z. Lin,
   R. Littlefield, X. Long, B. Meng, T. Nakajima, S. Niu, L. Pollack, M. Rosing,
   K. Glaesemann, G. Sandrone, M. Stave, H. Taylor, G. Thomas, J. H. van Lenthe,
                               A. T. Wong, Z. Zhang.

 Total times  cpu:     1577.7s     wall:     1577.7s
