 argument  1 = input.nw
  NWChem w/ OpenMP: maximum threads =    1
 


============================== echo of input deck ==============================

echo
start H6
title "H6"

memory total 80 gb

geometry units bohr
symmetry c1
H 0 0 0
H 0 0 2.65
H 0 0 5.30
H 0 0 7.95
H 0 0 10.60
H 0 0 13.25
end

basis spherical
  * library cc-pVTZ
end

scf
thresh 1e-8
end

tce
  2eorb
  2emet 13
  ccsd
  thresh 1e-8
  maxiter 300
end

# set tce:print_integrals T
# set tce:qorb 6
# set tce:qela 3
# set tce:qelb 3

set tce:qducc T
set tce:nactv 3
set tce:nonhf T
set tce:ducc_model 6

set tce:printtol 0.02

task tce
================================================================================


                                         
                                         
 
 
             Northwest Computational Chemistry Package (NWChem) 7.2.3
             --------------------------------------------------------
 
 
                    Environmental Molecular Sciences Laboratory
                       Pacific Northwest National Laboratory
                                Richland, WA 99352
 
                              Copyright (c) 1994-2022
                       Pacific Northwest National Laboratory
                            Battelle Memorial Institute
 
             NWChem is an open-source computational chemistry package
                        distributed under the terms of the
                      Educational Community License (ECL) 2.0
             A copy of the license is included with this distribution
                              in the LICENSE.TXT file
 
                                  ACKNOWLEDGMENT
                                  --------------

            This software and its documentation were developed at the
            EMSL at Pacific Northwest National Laboratory, a multiprogram
            national laboratory, operated for the U.S. Department of Energy
            by Battelle under Contract Number DE-AC05-76RL01830. Support
            for this work was provided by the Department of Energy Office
            of Biological and Environmental Research, Office of Basic
            Energy Sciences, and the Office of Advanced Scientific Computing.


           Job information
           ---------------

    hostname        = koothan
    program         = /hpc/home/baum612/code/nwchem/bin/LINUX64/nwchem
    date            = Fri Nov 15 18:06:42 2024

    compiled        = Wed_Nov_13_16:23:19_2024
    source          = /hpc/home/baum612/code/nwchem
    nwchem branch   = 7.2.3
    nwchem revision = v7.2.0-beta1-1280-g0779ca2e41
    ga revision     = 5.8.0
    use scalapack   = T
    input           = input.nw
    prefix          = H6.
    data base       = ./H6.db
    status          = startup
    nproc           =        1
    time left       =     -1s



           Memory information
           ------------------

    heap     =   2684354560 doubles =    20480.0 Mbytes
    stack    =   2684354557 doubles =    20480.0 Mbytes
    global   =   5368709120 doubles =    40960.0 Mbytes (distinct from heap & stack)
    total    =  10737418237 doubles =    81920.0 Mbytes
    verify   = yes
    hardfail = no 


           Directory information
           ---------------------
 
  0 permanent = .
  0 scratch   = .
 
 
 
 
                                NWChem Input Module
                                -------------------
 
 
                                        H6
                                        --
 Turning off AUTOSYM since
 SYMMETRY directive was detected!
 

          ------
          auto-z
          ------
     1 autoz failed with cvr_scaling = 1.2 changing to 1.3
     2 autoz failed with cvr_scaling = 1.3 changing to 1.4
     3 autoz failed with cvr_scaling = 1.4 changing to 1.5
     4 autoz failed with cvr_scaling = 1.5 changing to 1.6
     5 autoz failed with cvr_scaling = 1.6 changing to 1.7

 AUTOZ failed to generate good internal coordinates.
 Cartesian coordinates will be used in optimizations.

 
 
                             Geometry "geometry" -> ""
                             -------------------------
 
 Output coordinates in a.u. (scale by  1.000000000 to convert to a.u.)
 
  No.       Tag          Charge          X              Y              Z
 ---- ---------------- ---------- -------------- -------------- --------------
    1 H                    1.0000     0.00000000     0.00000000    -6.62500000
    2 H                    1.0000     0.00000000     0.00000000    -3.97500000
    3 H                    1.0000     0.00000000     0.00000000    -1.32500000
    4 H                    1.0000     0.00000000     0.00000000     1.32500000
    5 H                    1.0000     0.00000000     0.00000000     3.97500000
    6 H                    1.0000     0.00000000     0.00000000     6.62500000
 
      Atomic Mass 
      ----------- 
 
      H                  1.007825
 

 Effective nuclear repulsion energy (a.u.)       3.2830188679

            Nuclear Dipole moment (a.u.) 
            ----------------------------
        X                 Y               Z
 ---------------- ---------------- ----------------
     0.0000000000     0.0000000000    -0.0000000000
 
 
            XYZ format geometry
            -------------------
     6
 geometry
 H                     0.00000000     0.00000000    -3.50579927
 H                     0.00000000     0.00000000    -2.10347956
 H                     0.00000000     0.00000000    -0.70115985
 H                     0.00000000     0.00000000     0.70115985
 H                     0.00000000     0.00000000     2.10347956
 H                     0.00000000     0.00000000     3.50579927
 


 Summary of "ao basis" -> "" (spherical)
 ------------------------------------------------------------------------------
       Tag                 Description            Shells   Functions and Types
 ---------------- ------------------------------  ------  ---------------------
 *                          cc-pVTZ                   on all atoms 


                      Basis "ao basis" -> "ao basis" (spherical)
                      -----
  H (Hydrogen)
  ------------
            Exponent  Coefficients 
       -------------- ---------------------------------------------------------
  1 S  3.38700000E+01  0.006068
  1 S  5.09500000E+00  0.045308
  1 S  1.15900000E+00  0.202822
 
  2 S  3.25800000E-01  1.000000
 
  3 S  1.02700000E-01  1.000000
 
  4 P  1.40700000E+00  1.000000
 
  5 P  3.88000000E-01  1.000000
 
  6 D  1.05700000E+00  1.000000
 


 Summary of "ao basis" -> "ao basis" (spherical)
 ------------------------------------------------------------------------------
       Tag                 Description            Shells   Functions and Types
 ---------------- ------------------------------  ------  ---------------------
 H                          cc-pVTZ                  6       14   3s2p1d


                                 NWChem SCF Module
                                 -----------------
 
 
                                        H6
 
 

  ao basis        = "ao basis"
  functions       =    84
  atoms           =     6
  closed shells   =     3
  open shells     =     0
  charge          =   0.00
  wavefunction    = RHF 
  input vectors   = atomic
  output vectors  = ./H6.movecs
  use symmetry    = F
  symmetry adapt  = F


 Summary of "ao basis" -> "ao basis" (spherical)
 ------------------------------------------------------------------------------
       Tag                 Description            Shells   Functions and Types
 ---------------- ------------------------------  ------  ---------------------
 H                          cc-pVTZ                  6       14   3s2p1d



 Forming initial guess at       1.7s

 
      Superposition of Atomic Density Guess
      -------------------------------------
 
 Sum of atomic energies:          -2.99885518
 
      Non-variational initial energy
      ------------------------------

 Total energy =      -2.344314
 1-e energy   =      -9.496464
 2-e energy   =       3.869131
 HOMO         =      -0.270986
 LUMO         =      -0.114742
 

 Starting SCF solution at       1.8s



 ----------------------------------------------
         Quadratically convergent ROHF

 Convergence threshold     :          1.000E-08
 Maximum no. of iterations :           30
 Final Fock-matrix accuracy:          1.000E-10
 ----------------------------------------------


              iter       energy          gnorm     gmax       time
             ----- ------------------- --------- --------- --------
                 1       -3.0538358621  1.80D-01  1.04D-01      1.9
                 2       -3.0638417412  6.37D-02  2.41D-02      2.2
                 3       -3.0644078269  3.47D-03  2.09D-03      2.5
                 4       -3.0644117366  3.72D-06  2.85D-06      3.0
                 5       -3.0644117366  1.56D-10  6.77D-11      3.6


       Final RHF  results 
       ------------------ 

         Total SCF energy =     -3.064411736563
      One-electron energy =     -9.867354102126
      Two-electron energy =      3.519923497639
 Nuclear repulsion energy =      3.283018867925

        Time for solution =      1.9s


             Final eigenvalues
             -----------------

              1      
    1   -0.5527
    2   -0.4832
    3   -0.3779
    4   -0.0464
    5    0.0961
    6    0.2407
    7    0.3477
    8    0.3886
    9    0.4135
   10    0.4755
   11    0.5600
   12    0.5820
   13    0.5820
 
                       ROHF Final Molecular Orbital Analysis
                       -------------------------------------
 
 Vector    1  Occ=2.000000D+00  E=-5.526561D-01
              MO Center=  2.1D-16,  6.0D-17, -7.0D-13, r^2= 3.9D+00
   Bfn.  Coefficient  Atom+Function         Bfn.  Coefficient  Atom+Function  
  ----- ------------  ---------------      ----- ------------  ---------------
    30      0.205276  3 H  s                 44      0.205276  4 H  s          
    16      0.154986  2 H  s                 58      0.154986  5 H  s          
 
 Vector    2  Occ=2.000000D+00  E=-4.832287D-01
              MO Center=  3.3D-18,  8.3D-18, -3.0D-12, r^2= 8.1D+00
   Bfn.  Coefficient  Atom+Function         Bfn.  Coefficient  Atom+Function  
  ----- ------------  ---------------      ----- ------------  ---------------
    16      0.201025  2 H  s                 58     -0.201025  5 H  s          
    17      0.190377  2 H  s                 59     -0.190377  5 H  s          
     2      0.176653  1 H  s                 72     -0.176653  6 H  s          
 
 Vector    3  Occ=2.000000D+00  E=-3.778687D-01
              MO Center= -2.0D-16,  3.7D-17,  5.1D-12, r^2= 7.4D+00
   Bfn.  Coefficient  Atom+Function         Bfn.  Coefficient  Atom+Function  
  ----- ------------  ---------------      ----- ------------  ---------------
    31      0.216397  3 H  s                 45      0.216397  4 H  s          
     3     -0.187539  1 H  s                 73     -0.187539  6 H  s          
     2     -0.184567  1 H  s                 30      0.184261  3 H  s          
    44      0.184261  4 H  s                 72     -0.184567  6 H  s          
    17     -0.163182  2 H  s                 59     -0.163182  5 H  s          
 
 Vector    4  Occ=0.000000D+00  E=-4.644365D-02
              MO Center= -3.6D-17, -9.7D-18, -5.7D-12, r^2= 8.5D+00
   Bfn.  Coefficient  Atom+Function         Bfn.  Coefficient  Atom+Function  
  ----- ------------  ---------------      ----- ------------  ---------------
     3      0.455330  1 H  s                 73     -0.455330  6 H  s          
    31     -0.298664  3 H  s                 45      0.298664  4 H  s          
    17     -0.258041  2 H  s                 59      0.258041  5 H  s          
    30     -0.176531  3 H  s                 44      0.176531  4 H  s          
     2      0.154723  1 H  s                 72     -0.154723  6 H  s          
 
 Vector    5  Occ=0.000000D+00  E= 9.611925D-02
              MO Center= -9.9D-17, -2.9D-17, -4.0D-12, r^2= 1.1D+01
   Bfn.  Coefficient  Atom+Function         Bfn.  Coefficient  Atom+Function  
  ----- ------------  ---------------      ----- ------------  ---------------
    17      0.869175  2 H  s                 59      0.869175  5 H  s          
     3     -0.787174  1 H  s                 73     -0.787174  6 H  s          
    31     -0.352166  3 H  s                 45     -0.352166  4 H  s          
    16      0.196757  2 H  s                 58      0.196757  5 H  s          
 
 Vector    6  Occ=0.000000D+00  E= 2.406562D-01
              MO Center=  1.4D-18,  6.4D-19,  2.1D-11, r^2= 1.1D+01
   Bfn.  Coefficient  Atom+Function         Bfn.  Coefficient  Atom+Function  
  ----- ------------  ---------------      ----- ------------  ---------------
    31      1.958538  3 H  s                 45     -1.958538  4 H  s          
    17     -1.579674  2 H  s                 59      1.579674  5 H  s          
     3      1.127701  1 H  s                 73     -1.127701  6 H  s          
     2     -0.222427  1 H  s                 72      0.222427  6 H  s          
    30      0.154374  3 H  s                 44     -0.154374  4 H  s          
 
 Vector    7  Occ=0.000000D+00  E= 3.477043D-01
              MO Center= -8.5D-17, -4.6D-16, -1.1D-10, r^2= 7.3D+00
   Bfn.  Coefficient  Atom+Function         Bfn.  Coefficient  Atom+Function  
  ----- ------------  ---------------      ----- ------------  ---------------
    30      0.644768  3 H  s                 44      0.644768  4 H  s          
    31     -0.552436  3 H  s                 45     -0.552436  4 H  s          
     2      0.486668  1 H  s                 72      0.486668  6 H  s          
    16      0.479464  2 H  s                 58      0.479464  5 H  s          
     3     -0.428492  1 H  s                 73     -0.428492  6 H  s          
 
 Vector    8  Occ=0.000000D+00  E= 3.885897D-01
              MO Center= -1.7D-16,  2.6D-16,  7.1D-11, r^2= 1.1D+01
   Bfn.  Coefficient  Atom+Function         Bfn.  Coefficient  Atom+Function  
  ----- ------------  ---------------      ----- ------------  ---------------
    17     -0.746522  2 H  s                 59      0.746522  5 H  s          
     2      0.732025  1 H  s                 72     -0.732025  6 H  s          
     3     -0.544914  1 H  s                 73      0.544914  6 H  s          
    16      0.433325  2 H  s                 58     -0.433325  5 H  s          
    30      0.405939  3 H  s                 44     -0.405939  4 H  s          
 
 Vector    9  Occ=0.000000D+00  E= 4.134648D-01
              MO Center= -2.1D-16,  1.2D-16,  1.8D-11, r^2= 1.3D+01
   Bfn.  Coefficient  Atom+Function         Bfn.  Coefficient  Atom+Function  
  ----- ------------  ---------------      ----- ------------  ---------------
     3      1.128238  1 H  s                 73      1.128238  6 H  s          
     2     -0.811508  1 H  s                 72     -0.811508  6 H  s          
    31     -0.466225  3 H  s                 45     -0.466225  4 H  s          
    30      0.456182  3 H  s                 44      0.456182  4 H  s          
    17     -0.401666  2 H  s                 59     -0.401666  5 H  s          
 
 Vector   10  Occ=0.000000D+00  E= 4.755062D-01
              MO Center= -1.7D-16,  2.3D-16, -7.7D-11, r^2= 1.1D+01
   Bfn.  Coefficient  Atom+Function         Bfn.  Coefficient  Atom+Function  
  ----- ------------  ---------------      ----- ------------  ---------------
    17      1.581827  2 H  s                 59     -1.581827  5 H  s          
     3     -1.182699  1 H  s                 73      1.182699  6 H  s          
    16     -0.861924  2 H  s                 58      0.861924  5 H  s          
     2      0.580896  1 H  s                 72     -0.580896  6 H  s          
 
 Vector   11  Occ=0.000000D+00  E= 5.600307D-01
              MO Center=  1.5D-16, -2.4D-16,  3.1D-11, r^2= 7.8D+00
   Bfn.  Coefficient  Atom+Function         Bfn.  Coefficient  Atom+Function  
  ----- ------------  ---------------      ----- ------------  ---------------
    17      2.304078  2 H  s                 59      2.304078  5 H  s          
    31     -1.343456  3 H  s                 45     -1.343456  4 H  s          
    16     -0.922425  2 H  s                 58     -0.922425  5 H  s          
     3     -0.899419  1 H  s                 73     -0.899419  6 H  s          
    30      0.576774  3 H  s                 44      0.576774  4 H  s          
 
 Vector   12  Occ=0.000000D+00  E= 5.820379D-01
              MO Center= -1.5D-16,  3.0D-16,  6.1D-12, r^2= 3.8D+00
   Bfn.  Coefficient  Atom+Function         Bfn.  Coefficient  Atom+Function  
  ----- ------------  ---------------      ----- ------------  ---------------
    36      0.440315  3 H  py                50      0.440315  4 H  py         
    22      0.347273  2 H  py                64      0.347273  5 H  py         
     8      0.189009  1 H  py                78      0.189009  6 H  py         
 
 Vector   13  Occ=0.000000D+00  E= 5.820379D-01
              MO Center= -6.9D-17, -1.2D-16,  6.1D-12, r^2= 3.8D+00
   Bfn.  Coefficient  Atom+Function         Bfn.  Coefficient  Atom+Function  
  ----- ------------  ---------------      ----- ------------  ---------------
    35      0.440315  3 H  px                49      0.440315  4 H  px         
    21      0.347273  2 H  px                63      0.347273  5 H  px         
     7      0.189009  1 H  px                77      0.189009  6 H  px         
 

 center of mass
 --------------
 x =   0.00000000 y =   0.00000000 z =  -0.00000000

 moments of inertia (a.u.)
 ------------------
         123.855393593750           0.000000000000           0.000000000000
           0.000000000000         123.855393593750           0.000000000000
           0.000000000000           0.000000000000           0.000000000000
 
  Mulliken analysis of the total density
  --------------------------------------

    Atom       Charge   Shell Charges
 -----------   ------   -------------------------------------------------------
    1 H    1     0.97   0.14  0.43  0.38  0.00  0.01  0.00
    2 H    1     1.05   0.15  0.46  0.41  0.00  0.02  0.00
    3 H    1     0.99   0.15  0.46  0.36  0.00  0.02  0.00
    4 H    1     0.99   0.15  0.46  0.36  0.00  0.02  0.00
    5 H    1     1.05   0.15  0.46  0.41  0.00  0.02  0.00
    6 H    1     0.97   0.14  0.43  0.38  0.00  0.01  0.00
 
       Multipole analysis of the density wrt the origin
       ------------------------------------------------
 
     L   x y z        total         open         nuclear
     -   - - -        -----         ----         -------
     0   0 0 0     -0.000000      0.000000      6.000000
 
     1   1 0 0     -0.000000      0.000000      0.000000
     1   0 1 0     -0.000000      0.000000      0.000000
     1   0 0 1     -0.000000      0.000000     -0.000000
 
     2   2 0 0     -6.425719      0.000000      0.000000
     2   1 1 0     -0.000000      0.000000      0.000000
     2   1 0 1      0.000000      0.000000      0.000000
     2   0 2 0     -6.425719      0.000000      0.000000
     2   0 1 1     -0.000000      0.000000      0.000000
     2   0 0 2     -2.333443      0.000000    122.893750
 
                   NWChem Extensible Many-Electron Theory Module
                   ---------------------------------------------
 
              ======================================================
                   This portion of the program was automatically
                  generated by a Tensor Contraction Engine (TCE).
                  The development of this portion of the program
                 and TCE was supported by US Department of Energy,
                Office of Science, Office of Basic Energy Science.
                      TCE is a product of Battelle and PNNL.
              Please cite: S.Hirata, J.Phys.Chem.A 107, 9887 (2003).
              ======================================================
 
                                        H6
 
 
            General Information
            -------------------
      Number of processors :     1
         Wavefunction type : Restricted Hartree-Fock
          No. of electrons :     6
           Alpha electrons :     3
            Beta electrons :     3
           No. of orbitals :   168
            Alpha orbitals :    84
             Beta orbitals :    84
        Alpha frozen cores :     0
         Beta frozen cores :     0
     Alpha frozen virtuals :     0
      Beta frozen virtuals :     0
         Spin multiplicity : singlet 
    Number of AO functions :    84
       Number of AO shells :    36
        Use of symmetry is : off
      Symmetry adaption is : off
         Schwarz screening : 0.10D-09
 
          Correlation Information
          -----------------------
          Calculation type : Coupled-cluster singles & doubles                           
   Perturbative correction : none                                                        
            Max iterations :      300
        Residual threshold : 0.10D-07
     T(0) DIIS level shift : 0.00D+00
     L(0) DIIS level shift : 0.00D+00
     T(1) DIIS level shift : 0.00D+00
     L(1) DIIS level shift : 0.00D+00
     T(R) DIIS level shift : 0.00D+00
     T(I) DIIS level shift : 0.00D+00
   CC-T/L Amplitude update :  5-th order DIIS
                I/O scheme : Global Array Library
        L-threshold :  0.10D-07
        EOM-threshold :  0.10D-07
 no EOMCCSD initial starts read in
 TCE RESTART OPTIONS
 READ_INT:   F
 WRITE_INT:  F
 READ_TA:    F
 WRITE_TA:   F
 READ_XA:    F
 WRITE_XA:   F
 READ_IN3:   F
 WRITE_IN3:  F
 SLICE:      F
 D4D5:       F
 quantumc:   F
 qrotation:  F
 pwtce:      F
 qducc:      T
 nacto:                          0
 nrotv:                          0
 nrot:                           0
 
            Memory Information
            ------------------
          Available GA space size is    5368702064 doubles
          Available MA space size is    5368706460 doubles
 
 Maximum block size        32 doubles

 tile_dim =     27

 Block   Spin    Irrep     Size     Offset   Alpha
 -------------------------------------------------
   1    alpha     a      3 doubles       0       1
   2    beta      a      3 doubles       3       1
   3    alpha     a     27 doubles       6       3
   4    alpha     a     27 doubles      33       4
   5    alpha     a     27 doubles      60       5
   6    beta      a     27 doubles      87       3
   7    beta      a     27 doubles     114       4
   8    beta      a     27 doubles     141       5

 Global array virtual files algorithm will be used

 Parallel file system coherency ......... OK
 
 Fock matrix recomputed
 1-e file size   =             7056
 1-e file name   = ./H6.f1
 Cpu & wall time / sec            0.1            0.1
 4-electron integrals stored in orbital form
 
 v2    file size   =         12304143
 4-index algorithm nr.  13 is used
 imaxsize =       30
 imaxsize ichop =        0
 Cpu & wall time / sec            7.7            7.7
 T1-number-of-tasks                     3
 
 t1 file size   =              243
 t1 file name   = ./H6.t1
 t1 file handle =       -998
 T2-number-of-boxes                    15
 
 t2 file size   =            98415
 t2 file name   = ./H6.t2
 t2 file handle =       -996
CCSD iterations
 ---------------------------------------------------------
 Iter          Residuum       Correlation     Cpu    Wall 
 ---------------------------------------------------------
NEW TASK SCHEDULING
CCSD_T1_NTS --- OK
CCSD_T2_NTS --- OK
    1   0.1461448097737  -0.1260635208305     0.9     0.9
    2   0.0662459954824  -0.1520401723983     0.9     0.9
    3   0.0369087494872  -0.1632776963271     0.9     0.9
    4   0.0224001610694  -0.1688093603331     0.9     0.9
    5   0.0144753909692  -0.1719433616861     0.9     0.9
 MICROCYCLE DIIS UPDATE:                     5                     5
    6   0.0057761083359  -0.1765593920342     0.9     0.9
    7   0.0040847058170  -0.1765628717783     0.9     0.9
    8   0.0029731179294  -0.1765938145411     0.9     0.9
    9   0.0023192964102  -0.1766345764533     0.9     0.9
   10   0.0017629238246  -0.1766906066589     0.9     0.9
 MICROCYCLE DIIS UPDATE:                    10                     5
   11   0.0003912189967  -0.1768852918960     0.9     0.9
   12   0.0001868313266  -0.1769315184545     0.9     0.9
   13   0.0001143983245  -0.1769579357855     0.9     0.9
   14   0.0000724207124  -0.1769704067369     0.9     0.9
   15   0.0000489094529  -0.1769782482924     0.8     0.8
 MICROCYCLE DIIS UPDATE:                    15                     5
   16   0.0000194482418  -0.1769908374867     0.8     0.8
   17   0.0000138109455  -0.1769906488883     0.8     0.8
   18   0.0000098022235  -0.1769905544395     0.8     0.8
   19   0.0000076482268  -0.1769905375612     0.8     0.8
   20   0.0000057295146  -0.1769906417847     0.8     0.8
 MICROCYCLE DIIS UPDATE:                    20                     5
   21   0.0000014799872  -0.1769910560630     0.8     0.8
   22   0.0000007028346  -0.1769912431626     0.8     0.8
   23   0.0000004150568  -0.1769913410422     0.8     0.8
   24   0.0000002664202  -0.1769913901861     0.9     0.9
   25   0.0000001811455  -0.1769914215844     0.8     0.8
 MICROCYCLE DIIS UPDATE:                    25                     5
   26   0.0000000677909  -0.1769914773605     0.9     0.9
   27   0.0000000455453  -0.1769914765891     0.9     0.9
   28   0.0000000327046  -0.1769914762878     0.8     0.8
   29   0.0000000256612  -0.1769914763076     0.8     0.8
   30   0.0000000196304  -0.1769914766914     0.9     0.9
 MICROCYCLE DIIS UPDATE:                    30                     5
   31   0.0000000054683  -0.1769914781190     0.9     0.9
 -----------------------------------------------------------------
 Iterations converged
 CCSD correlation energy / hartree =        -0.176991478119000
 CCSD total energy / hartree       =        -3.241403214681505

 Singles contributions
     8a   (alpha) ---     2a   (alpha)        0.0274579596
     9a   (alpha) ---     3a   (alpha)        0.0292698963

 Doubles contributions
     4a   (alpha)     5a   (alpha) ---     2a   (alpha)     3a   (alpha)       -0.0454559395
     4a   (alpha)     5a   (alpha) ---     3a   (alpha)     2a   (alpha)        0.0454559395
     4a   (alpha)     6a   (alpha) ---     1a   (alpha)     3a   (alpha)        0.0324028114
     4a   (alpha)     6a   (alpha) ---     3a   (alpha)     1a   (alpha)       -0.0324028114
     5a   (alpha)     4a   (alpha) ---     2a   (alpha)     3a   (alpha)        0.0454559395
     5a   (alpha)     4a   (alpha) ---     3a   (alpha)     2a   (alpha)       -0.0454559395
     6a   (alpha)     4a   (alpha) ---     1a   (alpha)     3a   (alpha)       -0.0324028114
     6a   (alpha)     4a   (alpha) ---     3a   (alpha)     1a   (alpha)        0.0324028114
     4a   (alpha)     4a   (beta ) ---     1a   (alpha)     1a   (beta )       -0.0583588361
     4a   (alpha)     4a   (beta ) ---     2a   (alpha)     2a   (beta )       -0.0847897596
     4a   (alpha)     4a   (beta ) ---     3a   (alpha)     3a   (beta )       -0.2486699462
     4a   (alpha)     5a   (beta ) ---     1a   (alpha)     2a   (beta )        0.0436945441
     4a   (alpha)     5a   (beta ) ---     2a   (alpha)     1a   (beta )        0.0265090520
     4a   (alpha)     5a   (beta ) ---     2a   (alpha)     3a   (beta )       -0.1123709717
     4a   (alpha)     5a   (beta ) ---     3a   (alpha)     2a   (beta )       -0.0669150322
     4a   (alpha)     6a   (beta ) ---     1a   (alpha)     1a   (beta )        0.0253037084
     4a   (alpha)     6a   (beta ) ---     1a   (alpha)     3a   (beta )        0.0764944817
     4a   (alpha)     6a   (beta ) ---     3a   (alpha)     1a   (beta )        0.0440916702
     4a   (alpha)     6a   (beta ) ---     3a   (alpha)     3a   (beta )        0.0367570949
     4a   (alpha)     7a   (beta ) ---     2a   (alpha)     3a   (beta )        0.0241545917
     4a   (alpha)     7a   (beta ) ---     3a   (alpha)     2a   (beta )        0.0212200589
     4a   (alpha)     8a   (beta ) ---     1a   (alpha)     3a   (beta )        0.0413408407
     4a   (alpha)     8a   (beta ) ---     3a   (alpha)     1a   (beta )        0.0316785532
     4a   (alpha)     9a   (beta ) ---     1a   (alpha)     2a   (beta )        0.0233252405
     4a   (alpha)     9a   (beta ) ---     2a   (alpha)     1a   (beta )        0.0215282388
     4a   (alpha)     9a   (beta ) ---     2a   (alpha)     3a   (beta )       -0.0351588321
     4a   (alpha)     9a   (beta ) ---     3a   (alpha)     2a   (beta )       -0.0295225346
     4a   (alpha)    10a   (beta ) ---     1a   (alpha)     3a   (beta )        0.0354449145
     4a   (alpha)    10a   (beta ) ---     2a   (alpha)     2a   (beta )       -0.0361389441
     4a   (alpha)    10a   (beta ) ---     3a   (alpha)     1a   (beta )        0.0205541931
     4a   (alpha)    10a   (beta ) ---     3a   (alpha)     3a   (beta )       -0.0321914226
     4a   (alpha)    11a   (beta ) ---     2a   (alpha)     3a   (beta )        0.0272582206
     4a   (alpha)    16a   (beta ) ---     1a   (alpha)     3a   (beta )       -0.0308497430
     4a   (alpha)    16a   (beta ) ---     3a   (alpha)     1a   (beta )       -0.0201880623
     4a   (alpha)    16a   (beta ) ---     3a   (alpha)     3a   (beta )       -0.0224794097
     5a   (alpha)     4a   (beta ) ---     1a   (alpha)     2a   (beta )        0.0265090520
     5a   (alpha)     4a   (beta ) ---     2a   (alpha)     1a   (beta )        0.0436945441
     5a   (alpha)     4a   (beta ) ---     2a   (alpha)     3a   (beta )       -0.0669150322
     5a   (alpha)     4a   (beta ) ---     3a   (alpha)     2a   (beta )       -0.1123709717
     5a   (alpha)     5a   (beta ) ---     1a   (alpha)     1a   (beta )       -0.0395540461
     5a   (alpha)     5a   (beta ) ---     1a   (alpha)     3a   (beta )        0.0255633488
     5a   (alpha)     5a   (beta ) ---     2a   (alpha)     2a   (beta )       -0.0903959188
     5a   (alpha)     5a   (beta ) ---     3a   (alpha)     1a   (beta )        0.0255633488
     5a   (alpha)     5a   (beta ) ---     3a   (alpha)     3a   (beta )       -0.0626760455
     5a   (alpha)     6a   (beta ) ---     1a   (alpha)     2a   (beta )        0.0392773027
     5a   (alpha)     6a   (beta ) ---     2a   (alpha)     1a   (beta )        0.0243411307
     5a   (alpha)     6a   (beta ) ---     2a   (alpha)     3a   (beta )       -0.0247176790
     5a   (alpha)     9a   (beta ) ---     2a   (alpha)     2a   (beta )       -0.0293726739
     5a   (alpha)    10a   (beta ) ---     1a   (alpha)     2a   (beta )        0.0305502418
     5a   (alpha)    10a   (beta ) ---     2a   (alpha)     1a   (beta )        0.0278413907
     5a   (alpha)    10a   (beta ) ---     2a   (alpha)     3a   (beta )       -0.0269124025
     5a   (alpha)    10a   (beta ) ---     3a   (alpha)     2a   (beta )       -0.0275423933
     5a   (alpha)    11a   (beta ) ---     2a   (alpha)     2a   (beta )        0.0257920512
     6a   (alpha)     4a   (beta ) ---     1a   (alpha)     1a   (beta )        0.0253037084
     6a   (alpha)     4a   (beta ) ---     1a   (alpha)     3a   (beta )        0.0440916702
     6a   (alpha)     4a   (beta ) ---     3a   (alpha)     1a   (beta )        0.0764944817
     6a   (alpha)     4a   (beta ) ---     3a   (alpha)     3a   (beta )        0.0367570949
     6a   (alpha)     5a   (beta ) ---     1a   (alpha)     2a   (beta )        0.0243411307
     6a   (alpha)     5a   (beta ) ---     2a   (alpha)     1a   (beta )        0.0392773027
     6a   (alpha)     5a   (beta ) ---     3a   (alpha)     2a   (beta )       -0.0247176790
     6a   (alpha)     6a   (beta ) ---     1a   (alpha)     1a   (beta )       -0.0462333967
     6a   (alpha)     6a   (beta ) ---     2a   (alpha)     2a   (beta )       -0.0238542235
     6a   (alpha)     6a   (beta ) ---     3a   (alpha)     3a   (beta )       -0.0332646846
     6a   (alpha)    16a   (beta ) ---     1a   (alpha)     1a   (beta )        0.0207732405
     7a   (alpha)     4a   (beta ) ---     2a   (alpha)     3a   (beta )        0.0212200589
     7a   (alpha)     4a   (beta ) ---     3a   (alpha)     2a   (beta )        0.0241545917
     8a   (alpha)     4a   (beta ) ---     1a   (alpha)     3a   (beta )        0.0316785532
     8a   (alpha)     4a   (beta ) ---     3a   (alpha)     1a   (beta )        0.0413408407
     9a   (alpha)     4a   (beta ) ---     1a   (alpha)     2a   (beta )        0.0215282388
     9a   (alpha)     4a   (beta ) ---     2a   (alpha)     1a   (beta )        0.0233252405
     9a   (alpha)     4a   (beta ) ---     2a   (alpha)     3a   (beta )       -0.0295225346
     9a   (alpha)     4a   (beta ) ---     3a   (alpha)     2a   (beta )       -0.0351588321
     9a   (alpha)     5a   (beta ) ---     2a   (alpha)     2a   (beta )       -0.0293726739
    10a   (alpha)     4a   (beta ) ---     1a   (alpha)     3a   (beta )        0.0205541931
    10a   (alpha)     4a   (beta ) ---     2a   (alpha)     2a   (beta )       -0.0361389441
    10a   (alpha)     4a   (beta ) ---     3a   (alpha)     1a   (beta )        0.0354449145
    10a   (alpha)     4a   (beta ) ---     3a   (alpha)     3a   (beta )       -0.0321914226
    10a   (alpha)     5a   (beta ) ---     1a   (alpha)     2a   (beta )        0.0278413907
    10a   (alpha)     5a   (beta ) ---     2a   (alpha)     1a   (beta )        0.0305502418
    10a   (alpha)     5a   (beta ) ---     2a   (alpha)     3a   (beta )       -0.0275423933
    10a   (alpha)     5a   (beta ) ---     3a   (alpha)     2a   (beta )       -0.0269124025
    10a   (alpha)    10a   (beta ) ---     2a   (alpha)     2a   (beta )       -0.0215472348
    11a   (alpha)     4a   (beta ) ---     3a   (alpha)     2a   (beta )        0.0272582206
    11a   (alpha)     5a   (beta ) ---     2a   (alpha)     2a   (beta )        0.0257920512
    16a   (alpha)     4a   (beta ) ---     1a   (alpha)     3a   (beta )       -0.0201880623
    16a   (alpha)     4a   (beta ) ---     3a   (alpha)     1a   (beta )       -0.0308497430
    16a   (alpha)     4a   (beta ) ---     3a   (alpha)     3a   (beta )       -0.0224794097
    16a   (alpha)     6a   (beta ) ---     1a   (alpha)     1a   (beta )        0.0207732405
 Ground state specification:
 exp(T)|Ref>~(1+T)|Ref>
 ------- a(p)+/a(q) strings ----------

 singles norm

 doubles norm

 Reference string
  0.959106882315933      :(1a)+ (2a)+ (3a)+ (1b)+ (2b)+ (3b)+ |0>

 Singles strings

 Doubles strings
 -0.238501056807767      :(4a)+ (4b)+ (3b)  (3a)  (1a)+ (2a)+ (3a)+ (1b)+ (2b)+ 
 (3b)+ |0>
 -0.107775772314071      :(4a)+ (5b)+ (3b)  (2a)  (1a)+ (2a)+ (3a)+ (1b)+ (2b)+ 
 (3b)+ |0>
 -0.107775772314071      :(5a)+ (4b)+ (2b)  (3a)  (1a)+ (2a)+ (3a)+ (1b)+ (2b)+ 
 (3b)+ |0>
 -------------------------------------
 enrep_tce =    3.28301886792453     
  EHF(total)         =        -3.06441174
  Shift (HFtot-HFA)  =         0.00000000
 ALL OCCUPIED ORBITALS ARE ACTIVE IN DUCC --> NO SHIFT
 Number of active orbitals                     6
 Number of active alpha electrons                     3
 Number of active beta electrons                     3
  nos                      6
  nvs                    162
 noas                      3
 nobs                      3
 nvas                     81
 nvbs                     81
 nactv                      3
 DUCC MODEL =                      6
 NONHF =  T
 F-T1 correlation    =   1.237385719324649E-011
 V-T1-T1 correlation =   1.902521876177871E-004
 V-T2 correlation    =  -0.177181730306767     
 Total correlation   =  -0.176991478106776     
 F-T1(Ext) correlation         =  -3.009331792500600E-012
 V-T1(Ext)-T1(Ext) correlation =   1.997327713303391E-004
 V-T2(Ext) correlation         =  -0.101386869136572     
 Total Ext correlation         =  -0.101187136368251     
1-BODY TIME =  649.794 SECONDS.
  HHHH TIME =  622.372 SECONDS.
  PPPP TIME =   15.134 SECONDS.
  HHHP TIME =   35.404 SECONDS.
  PPPH TIME =   21.407 SECONDS.
  HPHP TIME =   38.274 SECONDS.
  HHPP TIME =   21.515 SECONDS.
 ONE-BODY UNITARY CHECK
 TWO-BODY UNITARY CHECK
 TWO-BODY ANTISYMMETRY CHECK
 TRANSFORMED ~FOCK~ MATRIX
    1    1        -0.5777647984
    1    3         0.0012353512
    1    5        -0.0015931611
    2    2        -0.5108671311
    2    4         0.0021846941
    2    6         0.0055118351
    3    1         0.0012353512
    3    3        -0.4062219909
    3    5         0.0040867264
    4    2         0.0021846941
    4    4        -0.0298184564
    4    6        -0.0021124836
    5    1        -0.0015931611
    5    3         0.0040867264
    5    5         0.1095369545
    6    2         0.0055118351
    6    4        -0.0021124836
    6    6         0.2504296993
 begin_one_electron_integrals
    1    1        -1.7795056465
    1    3        -0.1090576026
    1    5        -0.0589518733
    2    2        -1.6138811329
    2    4         0.1500937114
    2    6         0.0556803127
    3    1        -0.1090576026
    3    3        -1.5547322739
    3    5         0.1358164995
    4    2         0.1500937114
    4    4        -1.4210048876
    4    6         0.1910668986
    5    1        -0.0589518733
    5    3         0.1358164995
    5    5        -1.2192354328
    6    2         0.0556803127
    6    4         0.1910668986
    6    6        -1.0930313269
 end_one_electron_integrals
 begin_two_electron_integrals
    1    1    1    1        0.3235720910
    1    1    1    3        0.0592998178
    1    1    1    5        0.0065995263
    1    2    1    2        0.1019395164
    1    2    1    4       -0.0352969591
    1    2    1    6       -0.0001716803
    1    3    1    1        0.0592998178
    1    3    1    3        0.0802991234
    1    3    1    5       -0.0205235420
    1    4    1    2       -0.0352969591
    1    4    1    4        0.0617641078
    1    4    1    6       -0.0262955956
    1    5    1    1        0.0065995263
    1    5    1    3       -0.0205235420
    1    5    1    5        0.0392054107
    1    6    1    2       -0.0001716803
    1    6    1    4       -0.0262955956
    1    6    1    6        0.0423394616
    1    1    2    2        0.2559318823
    1    1    2    4       -0.0531554300
    1    1    2    6       -0.0077681340
    1    2    2    1        0.1020204517
    1    2    2    3       -0.0793899401
    1    2    2    5        0.0273721399
    1    3    2    2       -0.0252269346
    1    3    2    4       -0.0408209806
    1    3    2    6        0.0245027530
    1    4    2    1       -0.0351762902
    1    4    2    3       -0.0067086157
    1    4    2    5       -0.0385199560
    1    5    2    2        0.0253485822
    1    5    2    4       -0.0230658948
    1    5    2    6       -0.0267981206
    1    6    2    1       -0.0001259912
    1    6    2    3        0.0177646472
    1    6    2    5       -0.0144565505
    1    1    3    1        0.0592998178
    1    1    3    3        0.2742341773
    1    1    3    5       -0.0552762443
    1    2    3    2       -0.0798759682
    1    2    3    4       -0.0545786937
    1    2    3    6        0.0405675114
    1    3    3    1        0.0801429103
    1    3    3    3        0.0220570651
    1    3    3    5       -0.0382042239
    1    4    3    2       -0.0057605203
    1    4    3    4        0.0071169674
    1    4    3    6       -0.0422666825
    1    5    3    1       -0.0206712103
    1    5    3    3       -0.0053850313
    1    5    3    5       -0.0120501448
    1    6    3    2        0.0173740058
    1    6    3    4       -0.0207523035
    1    6    3    6        0.0117241115
    1    1    4    2       -0.0531554300
    1    1    4    4        0.2742155923
    1    1    4    6       -0.0697258286
    1    2    4    1       -0.0351762902
    1    2    4    3       -0.0558814617
    1    2    4    5       -0.0771039662
    1    3    4    2       -0.0409721656
    1    3    4    4        0.0189142415
    1    3    4    6       -0.0568672700
    1    4    4    1        0.0609454990
    1    4    4    3        0.0091604523
    1    4    4    5        0.0029193073
    1    5    4    2       -0.0215593910
    1    5    4    4        0.0014578777
    1    5    4    6        0.0091406637
    1    6    4    1       -0.0245556151
    1    6    4    3       -0.0205382758
    1    6    4    5        0.0094952682
    1    1    5    1        0.0065995263
    1    1    5    3       -0.0552762443
    1    1    5    5        0.2415609642
    1    2    5    2        0.0270977202
    1    2    5    4       -0.0769186874
    1    2    5    6       -0.0676605053
    1    3    5    1       -0.0206712103
    1    3    5    3       -0.0400549161
    1    3    5    5       -0.0109728333
    1    4    5    2       -0.0364590523
    1    4    5    4        0.0030903898
    1    4    5    6        0.0178932518
    1    5    5    1        0.0352941202
    1    5    5    3       -0.0126551504
    1    5    5    5        0.0152064004
    1    6    5    2       -0.0124662630
    1    6    5    4        0.0101033462
    1    6    5    6       -0.0011897805
    1    1    6    2       -0.0077681340
    1    1    6    4       -0.0697258286
    1    1    6    6        0.2596461535
    1    2    6    1       -0.0001259912
    1    2    6    3        0.0419431656
    1    2    6    5       -0.0675372218
    1    3    6    2        0.0253722933
    1    3    6    4       -0.0570207936
    1    3    6    6        0.0310087051
    1    4    6    1       -0.0245556151
    1    4    6    3       -0.0406986416
    1    4    6    5        0.0174163834
    1    5    6    2       -0.0233150061
    1    5    6    4        0.0094451419
    1    5    6    6        0.0031229779
    1    6    6    1        0.0366897378
    1    6    6    3        0.0131208935
    1    6    6    5       -0.0006595338
    2    1    1    2        0.1020204517
    2    1    1    4       -0.0351762902
    2    1    1    6       -0.0001259912
    2    2    1    1        0.2559318823
    2    2    1    3       -0.0252269346
    2    2    1    5        0.0253485822
    2    3    1    2       -0.0793899401
    2    3    1    4       -0.0067086157
    2    3    1    6        0.0177646472
    2    4    1    1       -0.0531554300
    2    4    1    3       -0.0408209806
    2    4    1    5       -0.0230658948
    2    5    1    2        0.0273721399
    2    5    1    4       -0.0385199560
    2    5    1    6       -0.0144565505
    2    6    1    1       -0.0077681340
    2    6    1    3        0.0245027530
    2    6    1    5       -0.0267981206
    2    1    2    1        0.1019395164
    2    1    2    3       -0.0798759682
    2    1    2    5        0.0270977202
    2    2    2    2        0.2815361110
    2    2    2    4       -0.0071535760
    2    2    2    6       -0.0323050410
    2    3    2    1       -0.0798759682
    2    3    2    3        0.0923979824
    2    3    2    5       -0.0033663535
    2    4    2    2       -0.0071535760
    2    4    2    4        0.0629497064
    2    4    2    6        0.0019772403
    2    5    2    1        0.0270977202
    2    5    2    3       -0.0033663535
    2    5    2    5        0.0577377235
    2    6    2    2       -0.0323050410
    2    6    2    4        0.0019772403
    2    6    2    6        0.0314986253
    2    1    3    2       -0.0793899401
    2    1    3    4       -0.0558814617
    2    1    3    6        0.0419431656
    2    2    3    1       -0.0252269346
    2    2    3    3        0.2524180493
    2    2    3    5       -0.0116488430
    2    3    3    2        0.0932015205
    2    3    3    4        0.0526496111
    2    3    3    6       -0.0150293692
    2    4    3    1       -0.0409721656
    2    4    3    3       -0.0084856301
    2    4    3    5        0.0533152470
    2    5    3    2       -0.0029429713
    2    5    3    4        0.0233589902
    2    5    3    6        0.0265156998
    2    6    3    1        0.0253722933
    2    6    3    3       -0.0087412644
    2    6    3    5        0.0071163377
    2    1    4    1       -0.0352969591
    2    1    4    3       -0.0545786937
    2    1    4    5       -0.0769186874
    2    2    4    2       -0.0071535760
    2    2    4    4        0.2539236057
    2    2    4    6       -0.0092259156
    2    3    4    1       -0.0057605203
    2    3    4    3        0.0527755922
    2    3    4    5        0.0811316227
    2    4    4    2        0.0598145182
    2    4    4    4       -0.0152335045
    2    4    4    6        0.0333442253
    2    5    4    1       -0.0364590523
    2    5    4    3        0.0197996837
    2    5    4    5       -0.0032352638
    2    6    4    2        0.0033830372
    2    6    4    4       -0.0042631657
    2    6    4    6       -0.0113108080
    2    1    5    2        0.0273721399
    2    1    5    4       -0.0771039662
    2    1    5    6       -0.0675372218
    2    2    5    1        0.0253485822
    2    2    5    3       -0.0116488430
    2    2    5    5        0.2521027850
    2    3    5    2       -0.0029429713
    2    3    5    4        0.0811498697
    2    3    5    6        0.0608770591
    2    4    5    1       -0.0215593910
    2    4    5    3        0.0477278977
    2    4    5    5       -0.0085244018
    2    5    5    2        0.0518867485
    2    5    5    4       -0.0043079786
    2    5    5    6       -0.0105745221
    2    6    5    1       -0.0233150061
    2    6    5    3        0.0085424251
    2    6    5    5       -0.0194340710
    2    1    6    1       -0.0001716803
    2    1    6    3        0.0405675114
    2    1    6    5       -0.0676605053
    2    2    6    2       -0.0323050410
    2    2    6    4       -0.0092259156
    2    2    6    6        0.2264812839
    2    3    6    1        0.0173740058
    2    3    6    3       -0.0155245960
    2    3    6    5        0.0603763526
    2    4    6    2        0.0033830372
    2    4    6    4        0.0323352334
    2    4    6    6       -0.0270501335
    2    5    6    1       -0.0124662630
    2    5    6    3        0.0268440199
    2    5    6    5       -0.0112087295
    2    6    6    2        0.0274902882
    2    6    6    4       -0.0116311822
    2    6    6    6       -0.0041161341
    3    1    1    1        0.0592998178
    3    1    1    3        0.0801429103
    3    1    1    5       -0.0206712103
    3    2    1    2       -0.0798759682
    3    2    1    4       -0.0057605203
    3    2    1    6        0.0173740058
    3    3    1    1        0.2742341773
    3    3    1    3        0.0220570651
    3    3    1    5       -0.0053850313
    3    4    1    2       -0.0545786937
    3    4    1    4        0.0071169674
    3    4    1    6       -0.0207523035
    3    5    1    1       -0.0552762443
    3    5    1    3       -0.0382042239
    3    5    1    5       -0.0120501448
    3    6    1    2        0.0405675114
    3    6    1    4       -0.0422666825
    3    6    1    6        0.0117241115
    3    1    2    2       -0.0252269346
    3    1    2    4       -0.0409721656
    3    1    2    6        0.0253722933
    3    2    2    1       -0.0793899401
    3    2    2    3        0.0932015205
    3    2    2    5       -0.0029429713
    3    3    2    2        0.2524180493
    3    3    2    4       -0.0084856301
    3    3    2    6       -0.0087412644
    3    4    2    1       -0.0558814617
    3    4    2    3        0.0526496111
    3    4    2    5        0.0233589902
    3    5    2    2       -0.0116488430
    3    5    2    4        0.0533152470
    3    5    2    6        0.0071163377
    3    6    2    1        0.0419431656
    3    6    2    3       -0.0150293692
    3    6    2    5        0.0265156998
    3    1    3    1        0.0802991234
    3    1    3    3        0.0220570651
    3    1    3    5       -0.0400549161
    3    2    3    2        0.0923979824
    3    2    3    4        0.0527755922
    3    2    3    6       -0.0155245960
    3    3    3    1        0.0220570651
    3    3    3    3        0.2685502607
    3    3    3    5       -0.0214937799
    3    4    3    2        0.0527755922
    3    4    3    4        0.0756923815
    3    4    3    6       -0.0248938818
    3    5    3    1       -0.0400549161
    3    5    3    3       -0.0214937799
    3    5    3    5        0.0502684027
    3    6    3    2       -0.0155245960
    3    6    3    4       -0.0248938818
    3    6    3    6        0.0438399854
    3    1    4    2       -0.0408209806
    3    1    4    4        0.0189142415
    3    1    4    6       -0.0570207936
    3    2    4    1       -0.0067086157
    3    2    4    3        0.0526496111
    3    2    4    5        0.0811498697
    3    3    4    2       -0.0084856301
    3    3    4    4        0.2607234600
    3    3    4    6       -0.0383713727
    3    4    4    1        0.0091604523
    3    4    4    3        0.0657788678
    3    4    4    5        0.0511030590
    3    5    4    2        0.0477278977
    3    5    4    4       -0.0139939245
    3    5    4    6        0.0333799495
    3    6    4    1       -0.0406986416
    3    6    4    3       -0.0202942737
    3    6    4    5       -0.0112608752
    3    1    5    1       -0.0205235420
    3    1    5    3       -0.0382042239
    3    1    5    5       -0.0109728333
    3    2    5    2       -0.0033663535
    3    2    5    4        0.0811316227
    3    2    5    6        0.0603763526
    3    3    5    1       -0.0053850313
    3    3    5    3       -0.0214937799
    3    3    5    5        0.2389562462
    3    4    5    2        0.0197996837
    3    4    5    4        0.0489710384
    3    4    5    6        0.0421941290
    3    5    5    1       -0.0126551504
    3    5    5    3        0.0492867350
    3    5    5    5       -0.0105089473
    3    6    5    2        0.0268440199
    3    6    5    4       -0.0116505514
    3    6    5    6       -0.0207039000
    3    1    6    2        0.0245027530
    3    1    6    4       -0.0568672700
    3    1    6    6        0.0310087051
    3    2    6    1        0.0177646472
    3    2    6    3       -0.0150293692
    3    2    6    5        0.0608770591
    3    3    6    2       -0.0087412644
    3    3    6    4       -0.0383713727
    3    3    6    6        0.2383595775
    3    4    6    1       -0.0205382758
    3    4    6    3       -0.0202942737
    3    4    6    5        0.0407165581
    3    5    6    2        0.0085424251
    3    5    6    4        0.0314109521
    3    5    6    6       -0.0281931533
    3    6    6    1        0.0131208935
    3    6    6    3        0.0413329777
    3    6    6    5       -0.0207035369
    4    1    1    2       -0.0351762902
    4    1    1    4        0.0609454990
    4    1    1    6       -0.0245556151
    4    2    1    1       -0.0531554300
    4    2    1    3       -0.0409721656
    4    2    1    5       -0.0215593910
    4    3    1    2       -0.0558814617
    4    3    1    4        0.0091604523
    4    3    1    6       -0.0205382758
    4    4    1    1        0.2742155923
    4    4    1    3        0.0189142415
    4    4    1    5        0.0014578777
    4    5    1    2       -0.0771039662
    4    5    1    4        0.0029193073
    4    5    1    6        0.0094952682
    4    6    1    1       -0.0697258286
    4    6    1    3       -0.0568672700
    4    6    1    5        0.0091406637
    4    1    2    1       -0.0352969591
    4    1    2    3       -0.0057605203
    4    1    2    5       -0.0364590523
    4    2    2    2       -0.0071535760
    4    2    2    4        0.0598145182
    4    2    2    6        0.0033830372
    4    3    2    1       -0.0545786937
    4    3    2    3        0.0527755922
    4    3    2    5        0.0197996837
    4    4    2    2        0.2539236057
    4    4    2    4       -0.0152335045
    4    4    2    6       -0.0042631657
    4    5    2    1       -0.0769186874
    4    5    2    3        0.0811316227
    4    5    2    5       -0.0032352638
    4    6    2    2       -0.0092259156
    4    6    2    4        0.0333442253
    4    6    2    6       -0.0113108080
    4    1    3    2       -0.0067086157
    4    1    3    4        0.0091604523
    4    1    3    6       -0.0406986416
    4    2    3    1       -0.0408209806
    4    2    3    3       -0.0084856301
    4    2    3    5        0.0477278977
    4    3    3    2        0.0526496111
    4    3    3    4        0.0657788678
    4    3    3    6       -0.0202942737
    4    4    3    1        0.0189142415
    4    4    3    3        0.2607234600
    4    4    3    5       -0.0139939245
    4    5    3    2        0.0811498697
    4    5    3    4        0.0511030590
    4    5    3    6       -0.0112608752
    4    6    3    1       -0.0570207936
    4    6    3    3       -0.0383713727
    4    6    3    5        0.0333799495
    4    1    4    1        0.0617641078
    4    1    4    3        0.0071169674
    4    1    4    5        0.0030903898
    4    2    4    2        0.0629497064
    4    2    4    4       -0.0152335045
    4    2    4    6        0.0323352334
    4    3    4    1        0.0071169674
    4    3    4    3        0.0756923815
    4    3    4    5        0.0489710384
    4    4    4    2       -0.0152335045
    4    4    4    4        0.2553996960
    4    4    4    6       -0.0336541182
    4    5    4    1        0.0030903898
    4    5    4    3        0.0489710384
    4    5    4    5        0.0762826172
    4    6    4    2        0.0323352334
    4    6    4    4       -0.0336541182
    4    6    4    6        0.0496474296
    4    1    5    2       -0.0385199560
    4    1    5    4        0.0029193073
    4    1    5    6        0.0174163834
    4    2    5    1       -0.0230658948
    4    2    5    3        0.0533152470
    4    2    5    5       -0.0085244018
    4    3    5    2        0.0233589902
    4    3    5    4        0.0511030590
    4    3    5    6        0.0407165581
    4    4    5    1        0.0014578777
    4    4    5    3       -0.0139939245
    4    4    5    5        0.2311197927
    4    5    5    2       -0.0043079786
    4    5    5    4        0.0765748540
    4    5    5    6        0.0581706776
    4    6    5    1        0.0094451419
    4    6    5    3        0.0314109521
    4    6    5    5       -0.0050410643
    4    1    6    1       -0.0262955956
    4    1    6    3       -0.0422666825
    4    1    6    5        0.0178932518
    4    2    6    2        0.0019772403
    4    2    6    4        0.0333442253
    4    2    6    6       -0.0270501335
    4    3    6    1       -0.0207523035
    4    3    6    3       -0.0248938818
    4    3    6    5        0.0421941290
    4    4    6    2       -0.0042631657
    4    4    6    4       -0.0336541182
    4    4    6    6        0.2301061946
    4    5    6    1        0.0101033462
    4    5    6    3       -0.0116505514
    4    5    6    5        0.0582136488
    4    6    6    2       -0.0116311822
    4    6    6    4        0.0500361163
    4    6    6    6       -0.0337878575
    5    1    1    1        0.0065995263
    5    1    1    3       -0.0206712103
    5    1    1    5        0.0352941202
    5    2    1    2        0.0270977202
    5    2    1    4       -0.0364590523
    5    2    1    6       -0.0124662630
    5    3    1    1       -0.0552762443
    5    3    1    3       -0.0400549161
    5    3    1    5       -0.0126551504
    5    4    1    2       -0.0769186874
    5    4    1    4        0.0030903898
    5    4    1    6        0.0101033462
    5    5    1    1        0.2415609642
    5    5    1    3       -0.0109728333
    5    5    1    5        0.0152064004
    5    6    1    2       -0.0676605053
    5    6    1    4        0.0178932518
    5    6    1    6       -0.0011897805
    5    1    2    2        0.0253485822
    5    1    2    4       -0.0215593910
    5    1    2    6       -0.0233150061
    5    2    2    1        0.0273721399
    5    2    2    3       -0.0029429713
    5    2    2    5        0.0518867485
    5    3    2    2       -0.0116488430
    5    3    2    4        0.0477278977
    5    3    2    6        0.0085424251
    5    4    2    1       -0.0771039662
    5    4    2    3        0.0811498697
    5    4    2    5       -0.0043079786
    5    5    2    2        0.2521027850
    5    5    2    4       -0.0085244018
    5    5    2    6       -0.0194340710
    5    6    2    1       -0.0675372218
    5    6    2    3        0.0608770591
    5    6    2    5       -0.0105745221
    5    1    3    1       -0.0205235420
    5    1    3    3       -0.0053850313
    5    1    3    5       -0.0126551504
    5    2    3    2       -0.0033663535
    5    2    3    4        0.0197996837
    5    2    3    6        0.0268440199
    5    3    3    1       -0.0382042239
    5    3    3    3       -0.0214937799
    5    3    3    5        0.0492867350
    5    4    3    2        0.0811316227
    5    4    3    4        0.0489710384
    5    4    3    6       -0.0116505514
    5    5    3    1       -0.0109728333
    5    5    3    3        0.2389562462
    5    5    3    5       -0.0105089473
    5    6    3    2        0.0603763526
    5    6    3    4        0.0421941290
    5    6    3    6       -0.0207039000
    5    1    4    2       -0.0230658948
    5    1    4    4        0.0014578777
    5    1    4    6        0.0094451419
    5    2    4    1       -0.0385199560
    5    2    4    3        0.0233589902
    5    2    4    5       -0.0043079786
    5    3    4    2        0.0533152470
    5    3    4    4       -0.0139939245
    5    3    4    6        0.0314109521
    5    4    4    1        0.0029193073
    5    4    4    3        0.0511030590
    5    4    4    5        0.0765748540
    5    5    4    2       -0.0085244018
    5    5    4    4        0.2311197927
    5    5    4    6       -0.0050410643
    5    6    4    1        0.0174163834
    5    6    4    3        0.0407165581
    5    6    4    5        0.0581706776
    5    1    5    1        0.0392054107
    5    1    5    3       -0.0120501448
    5    1    5    5        0.0152064004
    5    2    5    2        0.0577377235
    5    2    5    4       -0.0032352638
    5    2    5    6       -0.0112087295
    5    3    5    1       -0.0120501448
    5    3    5    3        0.0502684027
    5    3    5    5       -0.0105089473
    5    4    5    2       -0.0032352638
    5    4    5    4        0.0762826172
    5    4    5    6        0.0582136488
    5    5    5    1        0.0152064004
    5    5    5    3       -0.0105089473
    5    5    5    5        0.2319501821
    5    6    5    2       -0.0112087295
    5    6    5    4        0.0582136488
    5    6    5    6        0.0577087932
    5    1    6    2       -0.0267981206
    5    1    6    4        0.0091406637
    5    1    6    6        0.0031229779
    5    2    6    1       -0.0144565505
    5    2    6    3        0.0265156998
    5    2    6    5       -0.0105745221
    5    3    6    2        0.0071163377
    5    3    6    4        0.0333799495
    5    3    6    6       -0.0281931533
    5    4    6    1        0.0094952682
    5    4    6    3       -0.0112608752
    5    4    6    5        0.0581706776
    5    5    6    2       -0.0194340710
    5    5    6    4       -0.0050410643
    5    5    6    6        0.2137765082
    5    6    6    1       -0.0006595338
    5    6    6    3       -0.0207035369
    5    6    6    5        0.0577355594
    6    1    1    2       -0.0001259912
    6    1    1    4       -0.0245556151
    6    1    1    6        0.0366897378
    6    2    1    1       -0.0077681340
    6    2    1    3        0.0253722933
    6    2    1    5       -0.0233150061
    6    3    1    2        0.0419431656
    6    3    1    4       -0.0406986416
    6    3    1    6        0.0131208935
    6    4    1    1       -0.0697258286
    6    4    1    3       -0.0570207936
    6    4    1    5        0.0094451419
    6    5    1    2       -0.0675372218
    6    5    1    4        0.0174163834
    6    5    1    6       -0.0006595338
    6    6    1    1        0.2596461535
    6    6    1    3        0.0310087051
    6    6    1    5        0.0031229779
    6    1    2    1       -0.0001716803
    6    1    2    3        0.0173740058
    6    1    2    5       -0.0124662630
    6    2    2    2       -0.0323050410
    6    2    2    4        0.0033830372
    6    2    2    6        0.0274902882
    6    3    2    1        0.0405675114
    6    3    2    3       -0.0155245960
    6    3    2    5        0.0268440199
    6    4    2    2       -0.0092259156
    6    4    2    4        0.0323352334
    6    4    2    6       -0.0116311822
    6    5    2    1       -0.0676605053
    6    5    2    3        0.0603763526
    6    5    2    5       -0.0112087295
    6    6    2    2        0.2264812839
    6    6    2    4       -0.0270501335
    6    6    2    6       -0.0041161341
    6    1    3    2        0.0177646472
    6    1    3    4       -0.0205382758
    6    1    3    6        0.0131208935
    6    2    3    1        0.0245027530
    6    2    3    3       -0.0087412644
    6    2    3    5        0.0085424251
    6    3    3    2       -0.0150293692
    6    3    3    4       -0.0202942737
    6    3    3    6        0.0413329777
    6    4    3    1       -0.0568672700
    6    4    3    3       -0.0383713727
    6    4    3    5        0.0314109521
    6    5    3    2        0.0608770591
    6    5    3    4        0.0407165581
    6    5    3    6       -0.0207035369
    6    6    3    1        0.0310087051
    6    6    3    3        0.2383595775
    6    6    3    5       -0.0281931533
    6    1    4    1       -0.0262955956
    6    1    4    3       -0.0207523035
    6    1    4    5        0.0101033462
    6    2    4    2        0.0019772403
    6    2    4    4       -0.0042631657
    6    2    4    6       -0.0116311822
    6    3    4    1       -0.0422666825
    6    3    4    3       -0.0248938818
    6    3    4    5       -0.0116505514
    6    4    4    2        0.0333442253
    6    4    4    4       -0.0336541182
    6    4    4    6        0.0500361163
    6    5    4    1        0.0178932518
    6    5    4    3        0.0421941290
    6    5    4    5        0.0582136488
    6    6    4    2       -0.0270501335
    6    6    4    4        0.2301061946
    6    6    4    6       -0.0337878575
    6    1    5    2       -0.0144565505
    6    1    5    4        0.0094952682
    6    1    5    6       -0.0006595338
    6    2    5    1       -0.0267981206
    6    2    5    3        0.0071163377
    6    2    5    5       -0.0194340710
    6    3    5    2        0.0265156998
    6    3    5    4       -0.0112608752
    6    3    5    6       -0.0207035369
    6    4    5    1        0.0091406637
    6    4    5    3        0.0333799495
    6    4    5    5       -0.0050410643
    6    5    5    2       -0.0105745221
    6    5    5    4        0.0581706776
    6    5    5    6        0.0577355594
    6    6    5    1        0.0031229779
    6    6    5    3       -0.0281931533
    6    6    5    5        0.2137765082
    6    1    6    1        0.0423394616
    6    1    6    3        0.0117241115
    6    1    6    5       -0.0011897805
    6    2    6    2        0.0314986253
    6    2    6    4       -0.0113108080
    6    2    6    6       -0.0041161341
    6    3    6    1        0.0117241115
    6    3    6    3        0.0438399854
    6    3    6    5       -0.0207039000
    6    4    6    2       -0.0113108080
    6    4    6    4        0.0496474296
    6    4    6    6       -0.0337878575
    6    5    6    1       -0.0011897805
    6    5    6    3       -0.0207039000
    6    5    6    5        0.0577087932
    6    6    6    2       -0.0041161341
    6    6    6    4       -0.0337878575
    6    6    6    6        0.2251071195
 end_two_electron_integrals

 Task  times  cpu:     1567.5s     wall:     1567.5s
 
 
                                NWChem Input Module
                                -------------------
 
 
 Summary of allocated global arrays
-----------------------------------
  No active global arrays


MA_summarize_allocated_blocks: starting scan ...
MA_summarize_allocated_blocks: scan completed: 0 heap blocks, 0 stack blocks
MA usage statistics:

	allocation statistics:
					      heap	     stack
					      ----	     -----
	current number of blocks	         0	         0
	maximum number of blocks	        16	        42
	current total bytes		         0	         0
	maximum total bytes		     80104	20728605000
	maximum total K-bytes		        81	  20728605
	maximum total M-bytes		         1	     20729
 
 
                                     CITATION
                                     --------
                Please cite the following reference when publishing
                           results obtained with NWChem:
 
          E. Apra, E. J. Bylaska, W. A. de Jong, N. Govind, K. Kowalski,
       T. P. Straatsma, M. Valiev, H. J. J. van Dam, Y. Alexeev, J. Anchell,
       V. Anisimov, F. W. Aquino, R. Atta-Fynn, J. Autschbach, N. P. Bauman,
     J. C. Becca, D. E. Bernholdt, K. Bhaskaran-Nair, S. Bogatko, P. Borowski,
         J. Boschen, J. Brabec, A. Bruner, E. Cauet, Y. Chen, G. N. Chuev,
      C. J. Cramer, J. Daily, M. J. O. Deegan, T. H. Dunning Jr., M. Dupuis,
   K. G. Dyall, G. I. Fann, S. A. Fischer, A. Fonari, H. Fruchtl, L. Gagliardi,
      J. Garza, N. Gawande, S. Ghosh, K. Glaesemann, A. W. Gotz, J. Hammond,
       V. Helms, E. D. Hermes, K. Hirao, S. Hirata, M. Jacquelin, L. Jensen,
   B. G. Johnson, H. Jonsson, R. A. Kendall, M. Klemm, R. Kobayashi, V. Konkov,
      S. Krishnamoorthy, M. Krishnan, Z. Lin, R. D. Lins, R. J. Littlefield,
      A. J. Logsdail, K. Lopata, W. Ma, A. V. Marenich, J. Martin del Campo,
   D. Mejia-Rodriguez, J. E. Moore, J. M. Mullin, T. Nakajima, D. R. Nascimento,
    J. A. Nichols, P. J. Nichols, J. Nieplocha, A. Otero-de-la-Roza, B. Palmer,
    A. Panyala, T. Pirojsirikul, B. Peng, R. Peverati, J. Pittner, L. Pollack,
   R. M. Richard, P. Sadayappan, G. C. Schatz, W. A. Shelton, D. W. Silverstein,
   D. M. A. Smith, T. A. Soares, D. Song, M. Swart, H. L. Taylor, G. S. Thomas,
            V. Tipparaju, D. G. Truhlar, K. Tsemekhman, T. Van Voorhis,
      A. Vazquez-Mayagoitia, P. Verma, O. Villa, A. Vishnu, K. D. Vogiatzis,
        D. Wang, J. H. Weare, M. J. Williamson, T. L. Windus, K. Wolinski,
        A. T. Wong, Q. Wu, C. Yang, Q. Yu, M. Zacharias, Z. Zhang, Y. Zhao,
                                and R. J. Harrison
                        "NWChem: Past, present, and future
                         J. Chem. Phys. 152, 184102 (2020)
                               doi:10.1063/5.0004997
 
                                      AUTHORS
                                      -------
  E. Apra, E. J. Bylaska, N. Govind, K. Kowalski, M. Valiev, D. Mejia-Rodriguez,
       A. Kunitsa, N. P. Bauman, A. Panyala, W. A. de Jong, T. P. Straatsma,
   H. J. J. van Dam, D. Wang, T. L. Windus, J. Hammond, J. Autschbach, A. Woods,
    K. Bhaskaran-Nair, J. Brabec, K. Lopata, S. A. Fischer, S. Krishnamoorthy,
     M. Jacquelin, W. Ma, M. Klemm, O. Villa, Y. Chen, V. Anisimov, F. Aquino,
     S. Hirata, M. T. Hackler, E. Hermes, L. Jensen, J. E. Moore, J. C. Becca,
      V. Konjkov, T. Risthaus, M. Malagoli, A. Marenich, A. Otero-de-la-Roza,
        J. Mullin, P. Nichols, R. Peverati, J. Pittner, Y. Zhao, P.-D. Fan,
        A. Fonari, M. J. Williamson, R. J. Harrison, J. R. Rehr, M. Dupuis,
     D. Silverstein, D. M. A. Smith, J. Nieplocha, V. Tipparaju, M. Krishnan,
     B. E. Van Kuiken, A. Vazquez-Mayagoitia, M. Swart, Q. Wu, T. Van Voorhis,
     A. A. Auer, M. Nooijen, L. D. Crosby, E. Brown, G. Cisneros, G. I. Fann,
   H. Fruchtl, J. Garza, K. Hirao, R. A. Kendall, J. A. Nichols, K. Tsemekhman,
    K. Wolinski, J. Anchell, D. E. Bernholdt, P. Borowski, T. Clark, D. Clerc,
   H. Dachsel, M. J. O. Deegan, K. Dyall, D. Elwood, E. Glendening, M. Gutowski,
   A. C. Hess, J. Jaffe, B. G. Johnson, J. Ju, R. Kobayashi, R. Kutteh, Z. Lin,
   R. Littlefield, X. Long, B. Meng, T. Nakajima, S. Niu, L. Pollack, M. Rosing,
   K. Glaesemann, G. Sandrone, M. Stave, H. Taylor, G. Thomas, J. H. van Lenthe,
                               A. T. Wong, Z. Zhang.

 Total times  cpu:     1569.2s     wall:     1569.2s
