 argument  1 = input.nw
  NWChem w/ OpenMP: maximum threads =    1
 


============================== echo of input deck ==============================

echo
start H6
title "H6"

memory total 80 gb

geometry units bohr
symmetry c1
H 0 0 0
H 0 0 2.80
H 0 0 5.60
H 0 0 8.40
H 0 0 11.20
H 0 0 14.00
end

basis spherical
  * library cc-pVTZ
end

scf
thresh 1e-8
end

tce
  2eorb
  2emet 13
  ccsd
  thresh 1e-8
  maxiter 300
end

# set tce:print_integrals T
# set tce:qorb 6
# set tce:qela 3
# set tce:qelb 3

set tce:qducc T
set tce:nactv 3
set tce:nonhf T
set tce:ducc_model 6

set tce:printtol 0.02

task tce
================================================================================


                                         
                                         
 
 
             Northwest Computational Chemistry Package (NWChem) 7.2.3
             --------------------------------------------------------
 
 
                    Environmental Molecular Sciences Laboratory
                       Pacific Northwest National Laboratory
                                Richland, WA 99352
 
                              Copyright (c) 1994-2022
                       Pacific Northwest National Laboratory
                            Battelle Memorial Institute
 
             NWChem is an open-source computational chemistry package
                        distributed under the terms of the
                      Educational Community License (ECL) 2.0
             A copy of the license is included with this distribution
                              in the LICENSE.TXT file
 
                                  ACKNOWLEDGMENT
                                  --------------

            This software and its documentation were developed at the
            EMSL at Pacific Northwest National Laboratory, a multiprogram
            national laboratory, operated for the U.S. Department of Energy
            by Battelle under Contract Number DE-AC05-76RL01830. Support
            for this work was provided by the Department of Energy Office
            of Biological and Environmental Research, Office of Basic
            Energy Sciences, and the Office of Advanced Scientific Computing.


           Job information
           ---------------

    hostname        = koothan
    program         = /hpc/home/baum612/code/nwchem/bin/LINUX64/nwchem
    date            = Fri Nov 15 10:50:45 2024

    compiled        = Wed_Nov_13_16:23:19_2024
    source          = /hpc/home/baum612/code/nwchem
    nwchem branch   = 7.2.3
    nwchem revision = v7.2.0-beta1-1280-g0779ca2e41
    ga revision     = 5.8.0
    use scalapack   = T
    input           = input.nw
    prefix          = H6.
    data base       = ./H6.db
    status          = startup
    nproc           =        1
    time left       =     -1s



           Memory information
           ------------------

    heap     =   2684354560 doubles =    20480.0 Mbytes
    stack    =   2684354557 doubles =    20480.0 Mbytes
    global   =   5368709120 doubles =    40960.0 Mbytes (distinct from heap & stack)
    total    =  10737418237 doubles =    81920.0 Mbytes
    verify   = yes
    hardfail = no 


           Directory information
           ---------------------
 
  0 permanent = .
  0 scratch   = .
 
 
 
 
                                NWChem Input Module
                                -------------------
 
 
                                        H6
                                        --
 Turning off AUTOSYM since
 SYMMETRY directive was detected!
 

          ------
          auto-z
          ------
     1 autoz failed with cvr_scaling = 1.2 changing to 1.3
     2 autoz failed with cvr_scaling = 1.3 changing to 1.4
     3 autoz failed with cvr_scaling = 1.4 changing to 1.5
     4 autoz failed with cvr_scaling = 1.5 changing to 1.6
     5 autoz failed with cvr_scaling = 1.6 changing to 1.7

 AUTOZ failed to generate good internal coordinates.
 Cartesian coordinates will be used in optimizations.

 
 
                             Geometry "geometry" -> ""
                             -------------------------
 
 Output coordinates in a.u. (scale by  1.000000000 to convert to a.u.)
 
  No.       Tag          Charge          X              Y              Z
 ---- ---------------- ---------- -------------- -------------- --------------
    1 H                    1.0000     0.00000000     0.00000000    -7.00000000
    2 H                    1.0000     0.00000000     0.00000000    -4.20000000
    3 H                    1.0000     0.00000000     0.00000000    -1.40000000
    4 H                    1.0000     0.00000000     0.00000000     1.40000000
    5 H                    1.0000     0.00000000     0.00000000     4.20000000
    6 H                    1.0000     0.00000000     0.00000000     7.00000000
 
      Atomic Mass 
      ----------- 
 
      H                  1.007825
 

 Effective nuclear repulsion energy (a.u.)       3.1071428571

            Nuclear Dipole moment (a.u.) 
            ----------------------------
        X                 Y               Z
 ---------------- ---------------- ----------------
     0.0000000000     0.0000000000     0.0000000000
 
 
            XYZ format geometry
            -------------------
     6
 geometry
 H                     0.00000000     0.00000000    -3.70424074
 H                     0.00000000     0.00000000    -2.22254445
 H                     0.00000000     0.00000000    -0.74084815
 H                     0.00000000     0.00000000     0.74084815
 H                     0.00000000     0.00000000     2.22254445
 H                     0.00000000     0.00000000     3.70424074
 


 Summary of "ao basis" -> "" (spherical)
 ------------------------------------------------------------------------------
       Tag                 Description            Shells   Functions and Types
 ---------------- ------------------------------  ------  ---------------------
 *                          cc-pVTZ                   on all atoms 


                      Basis "ao basis" -> "ao basis" (spherical)
                      -----
  H (Hydrogen)
  ------------
            Exponent  Coefficients 
       -------------- ---------------------------------------------------------
  1 S  3.38700000E+01  0.006068
  1 S  5.09500000E+00  0.045308
  1 S  1.15900000E+00  0.202822
 
  2 S  3.25800000E-01  1.000000
 
  3 S  1.02700000E-01  1.000000
 
  4 P  1.40700000E+00  1.000000
 
  5 P  3.88000000E-01  1.000000
 
  6 D  1.05700000E+00  1.000000
 


 Summary of "ao basis" -> "ao basis" (spherical)
 ------------------------------------------------------------------------------
       Tag                 Description            Shells   Functions and Types
 ---------------- ------------------------------  ------  ---------------------
 H                          cc-pVTZ                  6       14   3s2p1d


                                 NWChem SCF Module
                                 -----------------
 
 
                                        H6
 
 

  ao basis        = "ao basis"
  functions       =    84
  atoms           =     6
  closed shells   =     3
  open shells     =     0
  charge          =   0.00
  wavefunction    = RHF 
  input vectors   = atomic
  output vectors  = ./H6.movecs
  use symmetry    = F
  symmetry adapt  = F


 Summary of "ao basis" -> "ao basis" (spherical)
 ------------------------------------------------------------------------------
       Tag                 Description            Shells   Functions and Types
 ---------------- ------------------------------  ------  ---------------------
 H                          cc-pVTZ                  6       14   3s2p1d



 Forming initial guess at       0.4s

 
      Superposition of Atomic Density Guess
      -------------------------------------
 
 Sum of atomic energies:          -2.99885518
 
      Non-variational initial energy
      ------------------------------

 Total energy =      -2.296380
 1-e energy   =      -9.163247
 2-e energy   =       3.759724
 HOMO         =      -0.265727
 LUMO         =      -0.125226
 

 Starting SCF solution at       0.4s



 ----------------------------------------------
         Quadratically convergent ROHF

 Convergence threshold     :          1.000E-08
 Maximum no. of iterations :           30
 Final Fock-matrix accuracy:          1.000E-10
 ----------------------------------------------


              iter       energy          gnorm     gmax       time
             ----- ------------------- --------- --------- --------
                 1       -3.0124602748  1.75D-01  9.96D-02      0.6
                 2       -3.0232238158  1.75D-02  1.08D-02      0.8
                 3       -3.0232832415  1.18D-04  4.15D-05      1.1
                 4       -3.0232832433  1.38D-08  5.82D-09      1.6
                 5       -3.0232832433  2.91D-10  1.77D-10      1.8


       Final RHF  results 
       ------------------ 

         Total SCF energy =     -3.023283243338
      One-electron energy =     -9.508644063108
      Two-electron energy =      3.378217962628
 Nuclear repulsion energy =      3.107142857143

        Time for solution =      1.4s


             Final eigenvalues
             -----------------

              1      
    1   -0.5326
    2   -0.4695
    3   -0.3740
    4   -0.0591
    5    0.0734
    6    0.2119
    7    0.3526
    8    0.3824
    9    0.4100
   10    0.4633
   11    0.5474
   12    0.5872
   13    0.5872
 
                       ROHF Final Molecular Orbital Analysis
                       -------------------------------------
 
 Vector    1  Occ=2.000000D+00  E=-5.326063D-01
              MO Center=  2.3D-17,  3.4D-18, -9.0D-12, r^2= 4.3D+00
   Bfn.  Coefficient  Atom+Function         Bfn.  Coefficient  Atom+Function  
  ----- ------------  ---------------      ----- ------------  ---------------
    30      0.203038  3 H  s                 44      0.203038  4 H  s          
    16      0.153738  2 H  s                 58      0.153738  5 H  s          
 
 Vector    2  Occ=2.000000D+00  E=-4.694792D-01
              MO Center= -3.0D-17,  2.2D-17,  3.5D-12, r^2= 9.0D+00
   Bfn.  Coefficient  Atom+Function         Bfn.  Coefficient  Atom+Function  
  ----- ------------  ---------------      ----- ------------  ---------------
    16      0.198005  2 H  s                 58     -0.198005  5 H  s          
    17      0.195416  2 H  s                 59     -0.195416  5 H  s          
     2      0.175741  1 H  s                 72     -0.175741  6 H  s          
 
 Vector    3  Occ=2.000000D+00  E=-3.740186D-01
              MO Center=  2.2D-17, -2.4D-17,  7.2D-12, r^2= 8.0D+00
   Bfn.  Coefficient  Atom+Function         Bfn.  Coefficient  Atom+Function  
  ----- ------------  ---------------      ----- ------------  ---------------
    31      0.218732  3 H  s                 45      0.218732  4 H  s          
     3     -0.191104  1 H  s                 73     -0.191104  6 H  s          
     2     -0.180756  1 H  s                 30      0.181072  3 H  s          
    44      0.181072  4 H  s                 72     -0.180756  6 H  s          
    17     -0.163147  2 H  s                 59     -0.163147  5 H  s          
 
 Vector    4  Occ=0.000000D+00  E=-5.910524D-02
              MO Center= -1.6D-19, -1.9D-18, -2.4D-11, r^2= 9.0D+00
   Bfn.  Coefficient  Atom+Function         Bfn.  Coefficient  Atom+Function  
  ----- ------------  ---------------      ----- ------------  ---------------
     3      0.422398  1 H  s                 73     -0.422398  6 H  s          
    31     -0.310038  3 H  s                 45      0.310038  4 H  s          
    17     -0.229232  2 H  s                 59      0.229232  5 H  s          
    30     -0.172453  3 H  s                 44      0.172453  4 H  s          
     2      0.155018  1 H  s                 72     -0.155018  6 H  s          
 
 Vector    5  Occ=0.000000D+00  E= 7.335182D-02
              MO Center=  1.7D-17, -2.2D-16,  6.4D-11, r^2= 1.2D+01
   Bfn.  Coefficient  Atom+Function         Bfn.  Coefficient  Atom+Function  
  ----- ------------  ---------------      ----- ------------  ---------------
    17      0.763281  2 H  s                 59      0.763281  5 H  s          
     3     -0.693592  1 H  s                 73     -0.693592  6 H  s          
    31     -0.303454  3 H  s                 45     -0.303454  4 H  s          
    16      0.194006  2 H  s                 58      0.194006  5 H  s          
 
 Vector    6  Occ=0.000000D+00  E= 2.118612D-01
              MO Center=  1.0D-18,  4.4D-18, -1.7D-11, r^2= 9.6D+00
   Bfn.  Coefficient  Atom+Function         Bfn.  Coefficient  Atom+Function  
  ----- ------------  ---------------      ----- ------------  ---------------
    31      1.541940  3 H  s                 45     -1.541940  4 H  s          
    17     -1.256556  2 H  s                 59      1.256556  5 H  s          
     3      0.885491  1 H  s                 73     -0.885491  6 H  s          
    30      0.188086  3 H  s                 44     -0.188086  4 H  s          
 
 Vector    7  Occ=0.000000D+00  E= 3.525984D-01
              MO Center=  5.7D-16,  2.5D-16,  1.7D-10, r^2= 8.2D+00
   Bfn.  Coefficient  Atom+Function         Bfn.  Coefficient  Atom+Function  
  ----- ------------  ---------------      ----- ------------  ---------------
    30      0.648955  3 H  s                 44      0.648955  4 H  s          
    31     -0.559586  3 H  s                 45     -0.559586  4 H  s          
     2      0.514791  1 H  s                 72      0.514791  6 H  s          
    16      0.491959  2 H  s                 58      0.491959  5 H  s          
     3     -0.474229  1 H  s                 73     -0.474229  6 H  s          
 
 Vector    8  Occ=0.000000D+00  E= 3.824356D-01
              MO Center=  1.7D-16, -1.4D-17, -2.8D-10, r^2= 1.3D+01
   Bfn.  Coefficient  Atom+Function         Bfn.  Coefficient  Atom+Function  
  ----- ------------  ---------------      ----- ------------  ---------------
     2      0.804218  1 H  s                 72     -0.804218  6 H  s          
     3     -0.773530  1 H  s                 73      0.773530  6 H  s          
    17     -0.405928  2 H  s                 59      0.405928  5 H  s          
    16      0.381638  2 H  s                 30      0.379863  3 H  s          
    44     -0.379863  4 H  s                 58     -0.381638  5 H  s          
 
 Vector    9  Occ=0.000000D+00  E= 4.100150D-01
              MO Center=  1.4D-16, -4.6D-17, -5.4D-12, r^2= 1.4D+01
   Bfn.  Coefficient  Atom+Function         Bfn.  Coefficient  Atom+Function  
  ----- ------------  ---------------      ----- ------------  ---------------
     3      1.103834  1 H  s                 73      1.103834  6 H  s          
     2     -0.800504  1 H  s                 72     -0.800504  6 H  s          
    30      0.489608  3 H  s                 44      0.489608  4 H  s          
    31     -0.480869  3 H  s                 45     -0.480869  4 H  s          
    17     -0.394913  2 H  s                 59     -0.394913  5 H  s          
 
 Vector   10  Occ=0.000000D+00  E= 4.632968D-01
              MO Center=  3.0D-16, -1.4D-17,  9.5D-11, r^2= 1.1D+01
   Bfn.  Coefficient  Atom+Function         Bfn.  Coefficient  Atom+Function  
  ----- ------------  ---------------      ----- ------------  ---------------
    17      1.564885  2 H  s                 59     -1.564885  5 H  s          
     3     -1.108099  1 H  s                 73      1.108099  6 H  s          
    16     -0.875029  2 H  s                 58      0.875029  5 H  s          
     2      0.523474  1 H  s                 72     -0.523474  6 H  s          
    30     -0.188909  3 H  s                 44      0.188909  4 H  s          
 
 Vector   11  Occ=0.000000D+00  E= 5.474355D-01
              MO Center=  4.3D-17,  1.4D-18,  3.6D-10, r^2= 8.2D+00
   Bfn.  Coefficient  Atom+Function         Bfn.  Coefficient  Atom+Function  
  ----- ------------  ---------------      ----- ------------  ---------------
    17      2.098126  2 H  s                 59      2.098126  5 H  s          
    31     -1.218359  3 H  s                 45     -1.218359  4 H  s          
    16     -0.919708  2 H  s                 58     -0.919708  5 H  s          
     3     -0.814462  1 H  s                 73     -0.814462  6 H  s          
    30      0.569424  3 H  s                 44      0.569424  4 H  s          
 
 Vector   12  Occ=0.000000D+00  E= 5.872110D-01
              MO Center= -1.6D-16,  2.1D-16, -1.4D-11, r^2= 4.2D+00
   Bfn.  Coefficient  Atom+Function         Bfn.  Coefficient  Atom+Function  
  ----- ------------  ---------------      ----- ------------  ---------------
    36      0.414678  3 H  py                50      0.414678  4 H  py         
    22      0.326857  2 H  py                64      0.326857  5 H  py         
    35     -0.214166  3 H  px                49     -0.214166  4 H  px         
     8      0.177074  1 H  py                78      0.177074  6 H  py         
    21     -0.168810  2 H  px                63     -0.168810  5 H  px         
 
 Vector   13  Occ=0.000000D+00  E= 5.872110D-01
              MO Center= -8.9D-16, -4.4D-16, -1.4D-11, r^2= 4.2D+00
   Bfn.  Coefficient  Atom+Function         Bfn.  Coefficient  Atom+Function  
  ----- ------------  ---------------      ----- ------------  ---------------
    35      0.414678  3 H  px                49      0.414678  4 H  px         
    21      0.326857  2 H  px                63      0.326857  5 H  px         
    36      0.214166  3 H  py                50      0.214166  4 H  py         
     7      0.177074  1 H  px                77      0.177074  6 H  px         
    22      0.168810  2 H  py                64      0.168810  5 H  py         
 

 center of mass
 --------------
 x =   0.00000000 y =   0.00000000 z =   0.00000000

 moments of inertia (a.u.)
 ------------------
         138.273590000000           0.000000000000           0.000000000000
           0.000000000000         138.273590000000           0.000000000000
           0.000000000000           0.000000000000           0.000000000000
 
  Mulliken analysis of the total density
  --------------------------------------

    Atom       Charge   Shell Charges
 -----------   ------   -------------------------------------------------------
    1 H    1     0.97   0.14  0.42  0.40  0.00  0.01  0.00
    2 H    1     1.04   0.15  0.44  0.43  0.00  0.02  0.00
    3 H    1     0.99   0.15  0.45  0.38  0.00  0.02  0.00
    4 H    1     0.99   0.15  0.45  0.38  0.00  0.02  0.00
    5 H    1     1.04   0.15  0.44  0.43  0.00  0.02  0.00
    6 H    1     0.97   0.14  0.42  0.40  0.00  0.01  0.00
 
       Multipole analysis of the density wrt the origin
       ------------------------------------------------
 
     L   x y z        total         open         nuclear
     -   - - -        -----         ----         -------
     0   0 0 0     -0.000000      0.000000      6.000000
 
     1   1 0 0     -0.000000      0.000000      0.000000
     1   0 1 0     -0.000000      0.000000      0.000000
     1   0 0 1     -0.000000      0.000000      0.000000
 
     2   2 0 0     -6.649302      0.000000      0.000000
     2   1 1 0     -0.000000      0.000000      0.000000
     2   1 0 1      0.000000      0.000000      0.000000
     2   0 2 0     -6.649302      0.000000      0.000000
     2   0 1 1      0.000000      0.000000      0.000000
     2   0 0 2     -1.902644      0.000000    137.200000
 
                   NWChem Extensible Many-Electron Theory Module
                   ---------------------------------------------
 
              ======================================================
                   This portion of the program was automatically
                  generated by a Tensor Contraction Engine (TCE).
                  The development of this portion of the program
                 and TCE was supported by US Department of Energy,
                Office of Science, Office of Basic Energy Science.
                      TCE is a product of Battelle and PNNL.
              Please cite: S.Hirata, J.Phys.Chem.A 107, 9887 (2003).
              ======================================================
 
                                        H6
 
 
            General Information
            -------------------
      Number of processors :     1
         Wavefunction type : Restricted Hartree-Fock
          No. of electrons :     6
           Alpha electrons :     3
            Beta electrons :     3
           No. of orbitals :   168
            Alpha orbitals :    84
             Beta orbitals :    84
        Alpha frozen cores :     0
         Beta frozen cores :     0
     Alpha frozen virtuals :     0
      Beta frozen virtuals :     0
         Spin multiplicity : singlet 
    Number of AO functions :    84
       Number of AO shells :    36
        Use of symmetry is : off
      Symmetry adaption is : off
         Schwarz screening : 0.10D-09
 
          Correlation Information
          -----------------------
          Calculation type : Coupled-cluster singles & doubles                           
   Perturbative correction : none                                                        
            Max iterations :      300
        Residual threshold : 0.10D-07
     T(0) DIIS level shift : 0.00D+00
     L(0) DIIS level shift : 0.00D+00
     T(1) DIIS level shift : 0.00D+00
     L(1) DIIS level shift : 0.00D+00
     T(R) DIIS level shift : 0.00D+00
     T(I) DIIS level shift : 0.00D+00
   CC-T/L Amplitude update :  5-th order DIIS
                I/O scheme : Global Array Library
        L-threshold :  0.10D-07
        EOM-threshold :  0.10D-07
 no EOMCCSD initial starts read in
 TCE RESTART OPTIONS
 READ_INT:   F
 WRITE_INT:  F
 READ_TA:    F
 WRITE_TA:   F
 READ_XA:    F
 WRITE_XA:   F
 READ_IN3:   F
 WRITE_IN3:  F
 SLICE:      F
 D4D5:       F
 quantumc:   F
 qrotation:  F
 pwtce:      F
 qducc:      T
 nacto:                          0
 nrotv:                          0
 nrot:                           0
 
            Memory Information
            ------------------
          Available GA space size is    5368702064 doubles
          Available MA space size is    5368706460 doubles
 
 Maximum block size        32 doubles

 tile_dim =     27

 Block   Spin    Irrep     Size     Offset   Alpha
 -------------------------------------------------
   1    alpha     a      3 doubles       0       1
   2    beta      a      3 doubles       3       1
   3    alpha     a     27 doubles       6       3
   4    alpha     a     27 doubles      33       4
   5    alpha     a     27 doubles      60       5
   6    beta      a     27 doubles      87       3
   7    beta      a     27 doubles     114       4
   8    beta      a     27 doubles     141       5

 Global array virtual files algorithm will be used

 Parallel file system coherency ......... OK
 
 Fock matrix recomputed
 1-e file size   =             7056
 1-e file name   = ./H6.f1
 Cpu & wall time / sec            0.1            0.1
 4-electron integrals stored in orbital form
 
 v2    file size   =         12304143
 4-index algorithm nr.  13 is used
 imaxsize =       30
 imaxsize ichop =        0
 Cpu & wall time / sec            4.2            4.2
 T1-number-of-tasks                     3
 
 t1 file size   =              243
 t1 file name   = ./H6.t1
 t1 file handle =       -998
 T2-number-of-boxes                    15
 
 t2 file size   =            98415
 t2 file name   = ./H6.t2
 t2 file handle =       -996
CCSD iterations
 ---------------------------------------------------------
 Iter          Residuum       Correlation     Cpu    Wall 
 ---------------------------------------------------------
NEW TASK SCHEDULING
CCSD_T1_NTS --- OK
CCSD_T2_NTS --- OK
    1   0.1510176905323  -0.1288477744858     0.5     0.5
    2   0.0708576788851  -0.1568715269417     0.5     0.5
    3   0.0406448715109  -0.1696042958685     0.5     0.5
    4   0.0251854077058  -0.1761238169230     0.5     0.5
    5   0.0165890283144  -0.1799360401996     0.5     0.5
 MICROCYCLE DIIS UPDATE:                     5                     5
    6   0.0070500852558  -0.1858019669791     0.5     0.5
    7   0.0051918570150  -0.1858137917486     0.5     0.5
    8   0.0039438623990  -0.1858580497559     0.5     0.5
    9   0.0031643227702  -0.1859214276667     0.5     0.5
   10   0.0024824465330  -0.1860054298079     0.5     0.5
 MICROCYCLE DIIS UPDATE:                    10                     5
   11   0.0005976307889  -0.1863392075646     0.5     0.5
   12   0.0002983210352  -0.1864150330369     0.5     0.5
   13   0.0001901930426  -0.1864584155298     0.5     0.5
   14   0.0001252780817  -0.1864793788848     0.5     0.5
   15   0.0000879257091  -0.1864929796057     0.5     0.5
 MICROCYCLE DIIS UPDATE:                    15                     5
   16   0.0000371455716  -0.1865171097616     0.5     0.5
   17   0.0000269732913  -0.1865164076203     0.5     0.5
   18   0.0000198002260  -0.1865160401179     0.5     0.5
   19   0.0000158671380  -0.1865159229875     0.5     0.5
   20   0.0000122181806  -0.1865161094587     0.5     0.5
 MICROCYCLE DIIS UPDATE:                    20                     5
   21   0.0000036746822  -0.1865170647408     0.5     0.5
   22   0.0000018408533  -0.1865175380433     0.5     0.5
   23   0.0000011336625  -0.1865177990478     0.5     0.5
   24   0.0000007656641  -0.1865179338261     0.5     0.5
   25   0.0000005464571  -0.1865180246797     0.5     0.5
 MICROCYCLE DIIS UPDATE:                    25                     5
   26   0.0000002181455  -0.1865182130989     0.5     0.5
   27   0.0000001469828  -0.1865182082176     0.5     0.5
   28   0.0000001086135  -0.1865182059911     0.5     0.5
   29   0.0000000872245  -0.1865182053919     0.5     0.5
   30   0.0000000681575  -0.1865182064138     0.5     0.5
 MICROCYCLE DIIS UPDATE:                    30                     5
   31   0.0000000229276  -0.1865182111425     0.5     0.5
   32   0.0000000111102  -0.1865182143686     0.5     0.5
   33   0.0000000070175  -0.1865182159846     0.5     0.5
 -----------------------------------------------------------------
 Iterations converged
 CCSD correlation energy / hartree =        -0.186518215984627
 CCSD total energy / hartree       =        -3.209801459322287

 Singles contributions
     7a   (alpha) ---     1a   (alpha)        0.0235097784
     8a   (alpha) ---     2a   (alpha)        0.0301228518
     9a   (alpha) ---     3a   (alpha)        0.0320246556
    11a   (alpha) ---     3a   (alpha)        0.0226655903

 Doubles contributions
     4a   (alpha)     5a   (alpha) ---     2a   (alpha)     3a   (alpha)       -0.0486709976
     4a   (alpha)     5a   (alpha) ---     3a   (alpha)     2a   (alpha)        0.0486709976
     4a   (alpha)     6a   (alpha) ---     1a   (alpha)     3a   (alpha)        0.0385914263
     4a   (alpha)     6a   (alpha) ---     3a   (alpha)     1a   (alpha)       -0.0385914263
     5a   (alpha)     4a   (alpha) ---     2a   (alpha)     3a   (alpha)        0.0486709976
     5a   (alpha)     4a   (alpha) ---     3a   (alpha)     2a   (alpha)       -0.0486709976
     6a   (alpha)     4a   (alpha) ---     1a   (alpha)     3a   (alpha)       -0.0385914263
     6a   (alpha)     4a   (alpha) ---     3a   (alpha)     1a   (alpha)        0.0385914263
     4a   (alpha)     4a   (beta ) ---     1a   (alpha)     1a   (beta )       -0.0624056504
     4a   (alpha)     4a   (beta ) ---     2a   (alpha)     2a   (beta )       -0.0898321685
     4a   (alpha)     4a   (beta ) ---     3a   (alpha)     3a   (beta )       -0.2731011493
     4a   (alpha)     5a   (beta ) ---     1a   (alpha)     2a   (beta )        0.0481006248
     4a   (alpha)     5a   (beta ) ---     2a   (alpha)     1a   (beta )        0.0299473464
     4a   (alpha)     5a   (beta ) ---     2a   (alpha)     3a   (beta )       -0.1281521890
     4a   (alpha)     5a   (beta ) ---     3a   (alpha)     2a   (beta )       -0.0794811914
     4a   (alpha)     6a   (beta ) ---     1a   (alpha)     1a   (beta )        0.0278672803
     4a   (alpha)     6a   (beta ) ---     1a   (alpha)     3a   (beta )        0.0964228872
     4a   (alpha)     6a   (beta ) ---     2a   (alpha)     2a   (beta )       -0.0248386048
     4a   (alpha)     6a   (beta ) ---     3a   (alpha)     1a   (beta )        0.0578314609
     4a   (alpha)     6a   (beta ) ---     3a   (alpha)     3a   (beta )        0.0326648184
     4a   (alpha)     7a   (beta ) ---     2a   (alpha)     3a   (beta )        0.0237180262
     4a   (alpha)     7a   (beta ) ---     3a   (alpha)     2a   (beta )        0.0208980175
     4a   (alpha)     8a   (beta ) ---     1a   (alpha)     3a   (beta )        0.0400034194
     4a   (alpha)     8a   (beta ) ---     3a   (alpha)     1a   (beta )        0.0309483497
     4a   (alpha)     8a   (beta ) ---     3a   (alpha)     3a   (beta )       -0.0204187170
     4a   (alpha)     9a   (beta ) ---     1a   (alpha)     2a   (beta )        0.0225708654
     4a   (alpha)     9a   (beta ) ---     2a   (alpha)     1a   (beta )        0.0211467900
     4a   (alpha)     9a   (beta ) ---     2a   (alpha)     3a   (beta )       -0.0337807083
     4a   (alpha)     9a   (beta ) ---     3a   (alpha)     2a   (beta )       -0.0287414779
     4a   (alpha)    10a   (beta ) ---     1a   (alpha)     3a   (beta )        0.0288625979
     4a   (alpha)    10a   (beta ) ---     2a   (alpha)     2a   (beta )       -0.0350884870
     4a   (alpha)    10a   (beta ) ---     3a   (alpha)     3a   (beta )       -0.0349840430
     4a   (alpha)    11a   (beta ) ---     2a   (alpha)     3a   (beta )        0.0289296087
     4a   (alpha)    16a   (beta ) ---     1a   (alpha)     3a   (beta )       -0.0325441448
     4a   (alpha)    16a   (beta ) ---     3a   (alpha)     1a   (beta )       -0.0215344572
     4a   (alpha)    16a   (beta ) ---     3a   (alpha)     3a   (beta )       -0.0246235287
     5a   (alpha)     4a   (beta ) ---     1a   (alpha)     2a   (beta )        0.0299473464
     5a   (alpha)     4a   (beta ) ---     2a   (alpha)     1a   (beta )        0.0481006248
     5a   (alpha)     4a   (beta ) ---     2a   (alpha)     3a   (beta )       -0.0794811914
     5a   (alpha)     4a   (beta ) ---     3a   (alpha)     2a   (beta )       -0.1281521890
     5a   (alpha)     5a   (beta ) ---     1a   (alpha)     1a   (beta )       -0.0443991199
     5a   (alpha)     5a   (beta ) ---     1a   (alpha)     3a   (beta )        0.0316431030
     5a   (alpha)     5a   (beta ) ---     2a   (alpha)     2a   (beta )       -0.1079452023
     5a   (alpha)     5a   (beta ) ---     3a   (alpha)     1a   (beta )        0.0316431030
     5a   (alpha)     5a   (beta ) ---     3a   (alpha)     3a   (beta )       -0.0694785974
     5a   (alpha)     6a   (beta ) ---     1a   (alpha)     2a   (beta )        0.0517778564
     5a   (alpha)     6a   (beta ) ---     2a   (alpha)     1a   (beta )        0.0339867930
     5a   (alpha)     6a   (beta ) ---     2a   (alpha)     3a   (beta )       -0.0317805796
     5a   (alpha)     9a   (beta ) ---     2a   (alpha)     2a   (beta )       -0.0303978648
     5a   (alpha)    10a   (beta ) ---     1a   (alpha)     2a   (beta )        0.0293435323
     5a   (alpha)    10a   (beta ) ---     2a   (alpha)     1a   (beta )        0.0274701917
     5a   (alpha)    10a   (beta ) ---     2a   (alpha)     3a   (beta )       -0.0264581434
     5a   (alpha)    10a   (beta ) ---     3a   (alpha)     2a   (beta )       -0.0282624042
     5a   (alpha)    11a   (beta ) ---     2a   (alpha)     2a   (beta )        0.0281740344
     6a   (alpha)     4a   (beta ) ---     1a   (alpha)     1a   (beta )        0.0278672803
     6a   (alpha)     4a   (beta ) ---     1a   (alpha)     3a   (beta )        0.0578314609
     6a   (alpha)     4a   (beta ) ---     2a   (alpha)     2a   (beta )       -0.0248386048
     6a   (alpha)     4a   (beta ) ---     3a   (alpha)     1a   (beta )        0.0964228872
     6a   (alpha)     4a   (beta ) ---     3a   (alpha)     3a   (beta )        0.0326648184
     6a   (alpha)     5a   (beta ) ---     1a   (alpha)     2a   (beta )        0.0339867930
     6a   (alpha)     5a   (beta ) ---     2a   (alpha)     1a   (beta )        0.0517778564
     6a   (alpha)     5a   (beta ) ---     3a   (alpha)     2a   (beta )       -0.0317805796
     6a   (alpha)     6a   (beta ) ---     1a   (alpha)     1a   (beta )       -0.0623604049
     6a   (alpha)     6a   (beta ) ---     1a   (alpha)     3a   (beta )       -0.0207436102
     6a   (alpha)     6a   (beta ) ---     2a   (alpha)     2a   (beta )       -0.0294532639
     6a   (alpha)     6a   (beta ) ---     3a   (alpha)     1a   (beta )       -0.0207436102
     6a   (alpha)     6a   (beta ) ---     3a   (alpha)     3a   (beta )       -0.0381631998
     6a   (alpha)    16a   (beta ) ---     1a   (alpha)     1a   (beta )        0.0237452900
     7a   (alpha)     4a   (beta ) ---     2a   (alpha)     3a   (beta )        0.0208980175
     7a   (alpha)     4a   (beta ) ---     3a   (alpha)     2a   (beta )        0.0237180262
     8a   (alpha)     4a   (beta ) ---     1a   (alpha)     3a   (beta )        0.0309483497
     8a   (alpha)     4a   (beta ) ---     3a   (alpha)     1a   (beta )        0.0400034194
     8a   (alpha)     4a   (beta ) ---     3a   (alpha)     3a   (beta )       -0.0204187170
     9a   (alpha)     4a   (beta ) ---     1a   (alpha)     2a   (beta )        0.0211467900
     9a   (alpha)     4a   (beta ) ---     2a   (alpha)     1a   (beta )        0.0225708654
     9a   (alpha)     4a   (beta ) ---     2a   (alpha)     3a   (beta )       -0.0287414779
     9a   (alpha)     4a   (beta ) ---     3a   (alpha)     2a   (beta )       -0.0337807083
     9a   (alpha)     5a   (beta ) ---     2a   (alpha)     2a   (beta )       -0.0303978648
    10a   (alpha)     4a   (beta ) ---     2a   (alpha)     2a   (beta )       -0.0350884870
    10a   (alpha)     4a   (beta ) ---     3a   (alpha)     1a   (beta )        0.0288625979
    10a   (alpha)     4a   (beta ) ---     3a   (alpha)     3a   (beta )       -0.0349840430
    10a   (alpha)     5a   (beta ) ---     1a   (alpha)     2a   (beta )        0.0274701917
    10a   (alpha)     5a   (beta ) ---     2a   (alpha)     1a   (beta )        0.0293435323
    10a   (alpha)     5a   (beta ) ---     2a   (alpha)     3a   (beta )       -0.0282624042
    10a   (alpha)     5a   (beta ) ---     3a   (alpha)     2a   (beta )       -0.0264581434
    11a   (alpha)     4a   (beta ) ---     3a   (alpha)     2a   (beta )        0.0289296087
    11a   (alpha)     5a   (beta ) ---     2a   (alpha)     2a   (beta )        0.0281740344
    16a   (alpha)     4a   (beta ) ---     1a   (alpha)     3a   (beta )       -0.0215344572
    16a   (alpha)     4a   (beta ) ---     3a   (alpha)     1a   (beta )       -0.0325441448
    16a   (alpha)     4a   (beta ) ---     3a   (alpha)     3a   (beta )       -0.0246235287
    16a   (alpha)     6a   (beta ) ---     1a   (alpha)     1a   (beta )        0.0237452900
 Ground state specification:
 exp(T)|Ref>~(1+T)|Ref>
 ------- a(p)+/a(q) strings ----------

 singles norm

 doubles norm

 Reference string
  0.945298508669782      :(1a)+ (2a)+ (3a)+ (1b)+ (2b)+ (3b)+ |0>

 Singles strings

 Doubles strings
 -0.258162109145613      :(4a)+ (4b)+ (3b)  (3a)  (1a)+ (2a)+ (3a)+ (1b)+ (2b)+ 
 (3b)+ |0>
 -0.121142073120462      :(4a)+ (5b)+ (3b)  (2a)  (1a)+ (2a)+ (3a)+ (1b)+ (2b)+ 
 (3b)+ |0>
 -0.121142073120462      :(5a)+ (4b)+ (2b)  (3a)  (1a)+ (2a)+ (3a)+ (1b)+ (2b)+ 
 (3b)+ |0>
 -0.102040438789377      :(5a)+ (5b)+ (2b)  (2a)  (1a)+ (2a)+ (3a)+ (1b)+ (2b)+ 
 (3b)+ |0>
 -------------------------------------
 enrep_tce =    3.10714285714286     
  EHF(total)         =        -3.02328324
  Shift (HFtot-HFA)  =         0.00000000
 ALL OCCUPIED ORBITALS ARE ACTIVE IN DUCC --> NO SHIFT
 Number of active orbitals                     6
 Number of active alpha electrons                     3
 Number of active beta electrons                     3
  nos                      6
  nvs                    162
 noas                      3
 nobs                      3
 nvas                     81
 nvbs                     81
 nactv                      3
 DUCC MODEL =                      6
 NONHF =  T
 F-T1 correlation    =  -7.809259177699580E-011
 V-T1-T1 correlation =   2.532275255801481E-004
 V-T2 correlation    =  -0.186771443509404     
 Total correlation   =  -0.186518216061916     
 F-T1(Ext) correlation         =  -8.605475718225497E-011
 V-T1(Ext)-T1(Ext) correlation =   2.599209651764031E-004
 V-T2(Ext) correlation         =  -9.560908753947475E-002
 Total Ext correlation         =  -9.534916666035310E-002
1-BODY TIME =  561.630 SECONDS.
  HHHH TIME =  527.668 SECONDS.
  PPPP TIME =   13.594 SECONDS.
  HHHP TIME =   27.227 SECONDS.
  PPPH TIME =   19.272 SECONDS.
  HPHP TIME =   31.406 SECONDS.
  HHPP TIME =   17.863 SECONDS.
 ONE-BODY UNITARY CHECK
 TWO-BODY UNITARY CHECK
 TWO-BODY ANTISYMMETRY CHECK
 TRANSFORMED ~FOCK~ MATRIX
    1    1        -0.5552081540
    1    3         0.0015386507
    1    5        -0.0016656363
    2    2        -0.4949133773
    2    4         0.0024742555
    2    6         0.0039186568
    3    1         0.0015386507
    3    3        -0.3998537356
    3    5         0.0030826375
    4    2         0.0024742555
    4    4        -0.0420019518
    4    6        -0.0015413877
    5    1        -0.0016656363
    5    3         0.0030826375
    5    5         0.0875784740
    6    2         0.0039186568
    6    4        -0.0015413877
    6    6         0.2231524902
 begin_one_electron_integrals
    1    1        -1.7089206296
    1    3        -0.1041461399
    1    5        -0.0573214074
    2    2        -1.5539042928
    2    4         0.1410322248
    2    6         0.0515421916
    3    1        -0.1041461399
    3    3        -1.5059417039
    3    5         0.1264721068
    4    2         0.1410322248
    4    4        -1.3906409002
    4    6         0.1665024876
    5    1        -0.0573214074
    5    3         0.1264721068
    5    5        -1.2149697939
    6    2         0.0515421916
    6    4         0.1665024876
    6    6        -1.1475741137
 end_one_electron_integrals
 begin_two_electron_integrals
    1    1    1    1        0.3111460745
    1    1    1    3        0.0578484551
    1    1    1    5        0.0069027465
    1    2    1    2        0.0994512684
    1    2    1    4       -0.0344803299
    1    2    1    6        0.0007174435
    1    3    1    1        0.0578484551
    1    3    1    3        0.0800855554
    1    3    1    5       -0.0195768296
    1    4    1    2       -0.0344803299
    1    4    1    4        0.0613947615
    1    4    1    6       -0.0253042468
    1    5    1    1        0.0069027465
    1    5    1    3       -0.0195768296
    1    5    1    5        0.0392994529
    1    6    1    2        0.0007174435
    1    6    1    4       -0.0253042468
    1    6    1    6        0.0471759233
    1    1    2    2        0.2456106533
    1    1    2    4       -0.0507148124
    1    1    2    6       -0.0081993879
    1    2    2    1        0.0995983747
    1    2    2    3       -0.0785633268
    1    2    2    5        0.0257614201
    1    3    2    2       -0.0266138568
    1    3    2    4       -0.0403060928
    1    3    2    6        0.0224681308
    1    4    2    1       -0.0342465353
    1    4    2    3       -0.0071634310
    1    4    2    5       -0.0394536014
    1    5    2    2        0.0242656526
    1    5    2    4       -0.0242380128
    1    5    2    6       -0.0302789066
    1    6    2    1        0.0004934159
    1    6    2    3        0.0163868430
    1    6    2    5       -0.0177926497
    1    1    3    1        0.0578484551
    1    1    3    3        0.2655517430
    1    1    3    5       -0.0530479308
    1    2    3    2       -0.0788438543
    1    2    3    4       -0.0535387365
    1    2    3    6        0.0387608243
    1    3    3    1        0.0801600168
    1    3    3    3        0.0225007222
    1    3    3    5       -0.0389202891
    1    4    3    2       -0.0066423594
    1    4    3    4        0.0074501282
    1    4    3    6       -0.0481065984
    1    5    3    1       -0.0197609391
    1    5    3    3       -0.0064685748
    1    5    3    5       -0.0139435702
    1    6    3    2        0.0162882598
    1    6    3    4       -0.0256541382
    1    6    3    6        0.0146215326
    1    1    4    2       -0.0507148124
    1    1    4    4        0.2671667454
    1    1    4    6       -0.0669011216
    1    2    4    1       -0.0342465353
    1    2    4    3       -0.0540163093
    1    2    4    5       -0.0777101727
    1    3    4    2       -0.0401364775
    1    3    4    4        0.0197297022
    1    3    4    6       -0.0635214267
    1    4    4    1        0.0619582827
    1    4    4    3        0.0095676829
    1    4    4    5        0.0026843984
    1    5    4    2       -0.0232414369
    1    5    4    4        0.0008463329
    1    5    4    6        0.0100917246
    1    6    4    1       -0.0245601099
    1    6    4    3       -0.0254605725
    1    6    4    5        0.0090030275
    1    1    5    1        0.0069027465
    1    1    5    3       -0.0530479308
    1    1    5    5        0.2371143835
    1    2    5    2        0.0256137447
    1    2    5    4       -0.0775669539
    1    2    5    6       -0.0742775313
    1    3    5    1       -0.0197609391
    1    3    5    3       -0.0400586032
    1    3    5    5       -0.0132287854
    1    4    5    2       -0.0379584474
    1    4    5    4        0.0028520600
    1    4    5    6        0.0204102029
    1    5    5    1        0.0363877609
    1    5    5    3       -0.0148150379
    1    5    5    5        0.0157982165
    1    6    5    2       -0.0158539051
    1    6    5    4        0.0097151587
    1    6    5    6       -0.0012823733
    1    1    6    2       -0.0081993879
    1    1    6    4       -0.0669011216
    1    1    6    6        0.2708597652
    1    2    6    1        0.0004934159
    1    2    6    3        0.0396321890
    1    2    6    5       -0.0742059763
    1    3    6    2        0.0231559343
    1    3    6    4       -0.0637607026
    1    3    6    6        0.0388395700
    1    4    6    1       -0.0245601099
    1    4    6    3       -0.0464373248
    1    4    6    5        0.0199609719
    1    5    6    2       -0.0268777288
    1    5    6    4        0.0104820415
    1    5    6    6        0.0047727280
    1    6    6    1        0.0421243630
    1    6    6    3        0.0160640700
    1    6    6    5       -0.0007266204
    2    1    1    2        0.0995983747
    2    1    1    4       -0.0342465353
    2    1    1    6        0.0004934159
    2    2    1    1        0.2456106533
    2    2    1    3       -0.0266138568
    2    2    1    5        0.0242656526
    2    3    1    2       -0.0785633268
    2    3    1    4       -0.0071634310
    2    3    1    6        0.0163868430
    2    4    1    1       -0.0507148124
    2    4    1    3       -0.0403060928
    2    4    1    5       -0.0242380128
    2    5    1    2        0.0257614201
    2    5    1    4       -0.0394536014
    2    5    1    6       -0.0177926497
    2    6    1    1       -0.0081993879
    2    6    1    3        0.0224681308
    2    6    1    5       -0.0302789066
    2    1    2    1        0.0994512684
    2    1    2    3       -0.0788438543
    2    1    2    5        0.0256137447
    2    2    2    2        0.2725048842
    2    2    2    4       -0.0052927540
    2    2    2    6       -0.0301088389
    2    3    2    1       -0.0788438543
    2    3    2    3        0.0910796182
    2    3    2    5       -0.0013232068
    2    4    2    2       -0.0052927540
    2    4    2    4        0.0617337723
    2    4    2    6        0.0083404033
    2    5    2    1        0.0256137447
    2    5    2    3       -0.0013232068
    2    5    2    5        0.0599023768
    2    6    2    2       -0.0301088389
    2    6    2    4        0.0083404033
    2    6    2    6        0.0332168644
    2    1    3    2       -0.0785633268
    2    1    3    4       -0.0540163093
    2    1    3    6        0.0396321890
    2    2    3    1       -0.0266138568
    2    2    3    3        0.2433944267
    2    2    3    5       -0.0091953745
    2    3    3    2        0.0919257538
    2    3    3    4        0.0512171951
    2    3    3    6       -0.0103591127
    2    4    3    1       -0.0401364775
    2    4    3    3       -0.0074324654
    2    4    3    5        0.0536102348
    2    5    3    2       -0.0011960563
    2    5    3    4        0.0247070887
    2    5    3    6        0.0305487911
    2    6    3    1        0.0231559343
    2    6    3    3       -0.0054908084
    2    6    3    5        0.0116914815
    2    1    4    1       -0.0344803299
    2    1    4    3       -0.0535387365
    2    1    4    5       -0.0775669539
    2    2    4    2       -0.0052927540
    2    2    4    4        0.2460790867
    2    2    4    6        0.0005919056
    2    3    4    1       -0.0066423594
    2    3    4    3        0.0508845859
    2    3    4    5        0.0820508319
    2    4    4    2        0.0593667893
    2    4    4    4       -0.0150370162
    2    4    4    6        0.0365297212
    2    5    4    1       -0.0379584474
    2    5    4    3        0.0219067615
    2    5    4    5       -0.0020072824
    2    6    4    2        0.0093026584
    2    6    4    4       -0.0008233444
    2    6    4    6       -0.0132991617
    2    1    5    2        0.0257614201
    2    1    5    4       -0.0777101727
    2    1    5    6       -0.0742059763
    2    2    5    1        0.0242656526
    2    2    5    3       -0.0091953745
    2    2    5    5        0.2499884550
    2    3    5    2       -0.0011960563
    2    3    5    4        0.0821526561
    2    3    5    6        0.0662783881
    2    4    5    1       -0.0232414369
    2    4    5    3        0.0489046607
    2    4    5    5       -0.0074651341
    2    5    5    2        0.0550931902
    2    5    5    4       -0.0030008644
    2    5    5    6       -0.0126730143
    2    6    5    1       -0.0268777288
    2    6    5    3        0.0130511657
    2    6    5    5       -0.0194586392
    2    1    6    1        0.0007174435
    2    1    6    3        0.0387608243
    2    1    6    5       -0.0742775313
    2    2    6    2       -0.0301088389
    2    2    6    4        0.0005919056
    2    2    6    6        0.2292837575
    2    3    6    1        0.0162882598
    2    3    6    3       -0.0103883203
    2    3    6    5        0.0658338601
    2    4    6    2        0.0093026584
    2    4    6    4        0.0354304342
    2    4    6    6       -0.0341744469
    2    5    6    1       -0.0158539051
    2    5    6    3        0.0310640981
    2    5    6    5       -0.0131589387
    2    6    6    2        0.0303083797
    2    6    6    4       -0.0137768718
    2    6    6    6       -0.0052122473
    3    1    1    1        0.0578484551
    3    1    1    3        0.0801600168
    3    1    1    5       -0.0197609391
    3    2    1    2       -0.0788438543
    3    2    1    4       -0.0066423594
    3    2    1    6        0.0162882598
    3    3    1    1        0.2655517430
    3    3    1    3        0.0225007222
    3    3    1    5       -0.0064685748
    3    4    1    2       -0.0535387365
    3    4    1    4        0.0074501282
    3    4    1    6       -0.0256541382
    3    5    1    1       -0.0530479308
    3    5    1    3       -0.0389202891
    3    5    1    5       -0.0139435702
    3    6    1    2        0.0387608243
    3    6    1    4       -0.0481065984
    3    6    1    6        0.0146215326
    3    1    2    2       -0.0266138568
    3    1    2    4       -0.0401364775
    3    1    2    6        0.0231559343
    3    2    2    1       -0.0785633268
    3    2    2    3        0.0919257538
    3    2    2    5       -0.0011960563
    3    3    2    2        0.2433944267
    3    3    2    4       -0.0074324654
    3    3    2    6       -0.0054908084
    3    4    2    1       -0.0540163093
    3    4    2    3        0.0512171951
    3    4    2    5        0.0247070887
    3    5    2    2       -0.0091953745
    3    5    2    4        0.0536102348
    3    5    2    6        0.0116914815
    3    6    2    1        0.0396321890
    3    6    2    3       -0.0103591127
    3    6    2    5        0.0305487911
    3    1    3    1        0.0800855554
    3    1    3    3        0.0225007222
    3    1    3    5       -0.0400586032
    3    2    3    2        0.0910796182
    3    2    3    4        0.0508845859
    3    2    3    6       -0.0103883203
    3    3    3    1        0.0225007222
    3    3    3    3        0.2602813996
    3    3    3    5       -0.0198598541
    3    4    3    2        0.0508845859
    3    4    3    4        0.0735378383
    3    4    3    6       -0.0205789985
    3    5    3    1       -0.0400586032
    3    5    3    3       -0.0198598541
    3    5    3    5        0.0514011859
    3    6    3    2       -0.0103883203
    3    6    3    4       -0.0205789985
    3    6    3    6        0.0475372098
    3    1    4    2       -0.0403060928
    3    1    4    4        0.0197297022
    3    1    4    6       -0.0637607026
    3    2    4    1       -0.0071634310
    3    2    4    3        0.0512171951
    3    2    4    5        0.0821526561
    3    3    4    2       -0.0074324654
    3    3    4    4        0.2542719271
    3    3    4    6       -0.0340326800
    3    4    4    1        0.0095676829
    3    4    4    3        0.0650714979
    3    4    4    5        0.0502736809
    3    5    4    2        0.0489046607
    3    5    4    4       -0.0129449839
    3    5    4    6        0.0361111573
    3    6    4    1       -0.0464373248
    3    6    4    3       -0.0173824652
    3    6    4    5       -0.0076155673
    3    1    5    1       -0.0195768296
    3    1    5    3       -0.0389202891
    3    1    5    5       -0.0132287854
    3    2    5    2       -0.0013232068
    3    2    5    4        0.0820508319
    3    2    5    6        0.0658338601
    3    3    5    1       -0.0064685748
    3    3    5    3       -0.0198598541
    3    3    5    5        0.2353475903
    3    4    5    2        0.0219067615
    3    4    5    4        0.0483817771
    3    4    5    6        0.0446970487
    3    5    5    1       -0.0148150379
    3    5    5    3        0.0508716387
    3    5    5    5       -0.0091677786
    3    6    5    2        0.0310640981
    3    6    5    4       -0.0080865647
    3    6    5    6       -0.0239753684
    3    1    6    2        0.0224681308
    3    1    6    4       -0.0635214267
    3    1    6    6        0.0388395700
    3    2    6    1        0.0163868430
    3    2    6    3       -0.0103591127
    3    2    6    5        0.0662783881
    3    3    6    2       -0.0054908084
    3    3    6    4       -0.0340326800
    3    3    6    6        0.2447739240
    3    4    6    1       -0.0254605725
    3    4    6    3       -0.0173824652
    3    4    6    5        0.0434139480
    3    5    6    2        0.0130511657
    3    5    6    4        0.0342906059
    3    5    6    6       -0.0353580220
    3    6    6    1        0.0160640700
    3    6    6    3        0.0466755468
    3    6    6    5       -0.0239728597
    4    1    1    2       -0.0342465353
    4    1    1    4        0.0619582827
    4    1    1    6       -0.0245601099
    4    2    1    1       -0.0507148124
    4    2    1    3       -0.0401364775
    4    2    1    5       -0.0232414369
    4    3    1    2       -0.0540163093
    4    3    1    4        0.0095676829
    4    3    1    6       -0.0254605725
    4    4    1    1        0.2671667454
    4    4    1    3        0.0197297022
    4    4    1    5        0.0008463329
    4    5    1    2       -0.0777101727
    4    5    1    4        0.0026843984
    4    5    1    6        0.0090030275
    4    6    1    1       -0.0669011216
    4    6    1    3       -0.0635214267
    4    6    1    5        0.0100917246
    4    1    2    1       -0.0344803299
    4    1    2    3       -0.0066423594
    4    1    2    5       -0.0379584474
    4    2    2    2       -0.0052927540
    4    2    2    4        0.0593667893
    4    2    2    6        0.0093026584
    4    3    2    1       -0.0535387365
    4    3    2    3        0.0508845859
    4    3    2    5        0.0219067615
    4    4    2    2        0.2460790867
    4    4    2    4       -0.0150370162
    4    4    2    6       -0.0008233444
    4    5    2    1       -0.0775669539
    4    5    2    3        0.0820508319
    4    5    2    5       -0.0020072824
    4    6    2    2        0.0005919056
    4    6    2    4        0.0365297212
    4    6    2    6       -0.0132991617
    4    1    3    2       -0.0071634310
    4    1    3    4        0.0095676829
    4    1    3    6       -0.0464373248
    4    2    3    1       -0.0403060928
    4    2    3    3       -0.0074324654
    4    2    3    5        0.0489046607
    4    3    3    2        0.0512171951
    4    3    3    4        0.0650714979
    4    3    3    6       -0.0173824652
    4    4    3    1        0.0197297022
    4    4    3    3        0.2542719271
    4    4    3    5       -0.0129449839
    4    5    3    2        0.0821526561
    4    5    3    4        0.0502736809
    4    5    3    6       -0.0076155673
    4    6    3    1       -0.0637607026
    4    6    3    3       -0.0340326800
    4    6    3    5        0.0361111573
    4    1    4    1        0.0613947615
    4    1    4    3        0.0074501282
    4    1    4    5        0.0028520600
    4    2    4    2        0.0617337723
    4    2    4    4       -0.0150370162
    4    2    4    6        0.0354304342
    4    3    4    1        0.0074501282
    4    3    4    3        0.0735378383
    4    3    4    5        0.0483817771
    4    4    4    2       -0.0150370162
    4    4    4    4        0.2499730743
    4    4    4    6       -0.0308106597
    4    5    4    1        0.0028520600
    4    5    4    3        0.0483817771
    4    5    4    5        0.0773666063
    4    6    4    2        0.0354304342
    4    6    4    4       -0.0308106597
    4    6    4    6        0.0555847513
    4    1    5    2       -0.0394536014
    4    1    5    4        0.0026843984
    4    1    5    6        0.0199609719
    4    2    5    1       -0.0242380128
    4    2    5    3        0.0536102348
    4    2    5    5       -0.0074651341
    4    3    5    2        0.0247070887
    4    3    5    4        0.0502736809
    4    3    5    6        0.0434139480
    4    4    5    1        0.0008463329
    4    4    5    3       -0.0129449839
    4    4    5    5        0.2279094436
    4    5    5    2       -0.0030008644
    4    5    5    4        0.0776501243
    4    5    5    6        0.0622004576
    4    6    5    1        0.0104820415
    4    6    5    3        0.0342906059
    4    6    5    5        0.0001176097
    4    1    6    1       -0.0253042468
    4    1    6    3       -0.0481065984
    4    1    6    5        0.0204102029
    4    2    6    2        0.0083404033
    4    2    6    4        0.0365297212
    4    2    6    6       -0.0341744469
    4    3    6    1       -0.0256541382
    4    3    6    3       -0.0205789985
    4    3    6    5        0.0446970487
    4    4    6    2       -0.0008233444
    4    4    6    4       -0.0308106597
    4    4    6    6        0.2362272214
    4    5    6    1        0.0097151587
    4    5    6    3       -0.0080865647
    4    5    6    5        0.0622518406
    4    6    6    2       -0.0137768718
    4    6    6    4        0.0559228189
    4    6    6    6       -0.0415922053
    5    1    1    1        0.0069027465
    5    1    1    3       -0.0197609391
    5    1    1    5        0.0363877609
    5    2    1    2        0.0256137447
    5    2    1    4       -0.0379584474
    5    2    1    6       -0.0158539051
    5    3    1    1       -0.0530479308
    5    3    1    3       -0.0400586032
    5    3    1    5       -0.0148150379
    5    4    1    2       -0.0775669539
    5    4    1    4        0.0028520600
    5    4    1    6        0.0097151587
    5    5    1    1        0.2371143835
    5    5    1    3       -0.0132287854
    5    5    1    5        0.0157982165
    5    6    1    2       -0.0742775313
    5    6    1    4        0.0204102029
    5    6    1    6       -0.0012823733
    5    1    2    2        0.0242656526
    5    1    2    4       -0.0232414369
    5    1    2    6       -0.0268777288
    5    2    2    1        0.0257614201
    5    2    2    3       -0.0011960563
    5    2    2    5        0.0550931902
    5    3    2    2       -0.0091953745
    5    3    2    4        0.0489046607
    5    3    2    6        0.0130511657
    5    4    2    1       -0.0777101727
    5    4    2    3        0.0821526561
    5    4    2    5       -0.0030008644
    5    5    2    2        0.2499884550
    5    5    2    4       -0.0074651341
    5    5    2    6       -0.0194586392
    5    6    2    1       -0.0742059763
    5    6    2    3        0.0662783881
    5    6    2    5       -0.0126730143
    5    1    3    1       -0.0195768296
    5    1    3    3       -0.0064685748
    5    1    3    5       -0.0148150379
    5    2    3    2       -0.0013232068
    5    2    3    4        0.0219067615
    5    2    3    6        0.0310640981
    5    3    3    1       -0.0389202891
    5    3    3    3       -0.0198598541
    5    3    3    5        0.0508716387
    5    4    3    2        0.0820508319
    5    4    3    4        0.0483817771
    5    4    3    6       -0.0080865647
    5    5    3    1       -0.0132287854
    5    5    3    3        0.2353475903
    5    5    3    5       -0.0091677786
    5    6    3    2        0.0658338601
    5    6    3    4        0.0446970487
    5    6    3    6       -0.0239753684
    5    1    4    2       -0.0242380128
    5    1    4    4        0.0008463329
    5    1    4    6        0.0104820415
    5    2    4    1       -0.0394536014
    5    2    4    3        0.0247070887
    5    2    4    5       -0.0030008644
    5    3    4    2        0.0536102348
    5    3    4    4       -0.0129449839
    5    3    4    6        0.0342906059
    5    4    4    1        0.0026843984
    5    4    4    3        0.0502736809
    5    4    4    5        0.0776501243
    5    5    4    2       -0.0074651341
    5    5    4    4        0.2279094436
    5    5    4    6        0.0001176097
    5    6    4    1        0.0199609719
    5    6    4    3        0.0434139480
    5    6    4    5        0.0622004576
    5    1    5    1        0.0392994529
    5    1    5    3       -0.0139435702
    5    1    5    5        0.0157982165
    5    2    5    2        0.0599023768
    5    2    5    4       -0.0020072824
    5    2    5    6       -0.0131589387
    5    3    5    1       -0.0139435702
    5    3    5    3        0.0514011859
    5    3    5    5       -0.0091677786
    5    4    5    2       -0.0020072824
    5    4    5    4        0.0773666063
    5    4    5    6        0.0622518406
    5    5    5    1        0.0157982165
    5    5    5    3       -0.0091677786
    5    5    5    5        0.2320049593
    5    6    5    2       -0.0131589387
    5    6    5    4        0.0622518406
    5    6    5    6        0.0635858741
    5    1    6    2       -0.0302789066
    5    1    6    4        0.0100917246
    5    1    6    6        0.0047727280
    5    2    6    1       -0.0177926497
    5    2    6    3        0.0305487911
    5    2    6    5       -0.0126730143
    5    3    6    2        0.0116914815
    5    3    6    4        0.0361111573
    5    3    6    6       -0.0353580220
    5    4    6    1        0.0090030275
    5    4    6    3       -0.0076155673
    5    4    6    5        0.0622004576
    5    5    6    2       -0.0194586392
    5    5    6    4        0.0001176097
    5    5    6    6        0.2175414782
    5    6    6    1       -0.0007266204
    5    6    6    3       -0.0239728597
    5    6    6    5        0.0636065310
    6    1    1    2        0.0004934159
    6    1    1    4       -0.0245601099
    6    1    1    6        0.0421243630
    6    2    1    1       -0.0081993879
    6    2    1    3        0.0231559343
    6    2    1    5       -0.0268777288
    6    3    1    2        0.0396321890
    6    3    1    4       -0.0464373248
    6    3    1    6        0.0160640700
    6    4    1    1       -0.0669011216
    6    4    1    3       -0.0637607026
    6    4    1    5        0.0104820415
    6    5    1    2       -0.0742059763
    6    5    1    4        0.0199609719
    6    5    1    6       -0.0007266204
    6    6    1    1        0.2708597652
    6    6    1    3        0.0388395700
    6    6    1    5        0.0047727280
    6    1    2    1        0.0007174435
    6    1    2    3        0.0162882598
    6    1    2    5       -0.0158539051
    6    2    2    2       -0.0301088389
    6    2    2    4        0.0093026584
    6    2    2    6        0.0303083797
    6    3    2    1        0.0387608243
    6    3    2    3       -0.0103883203
    6    3    2    5        0.0310640981
    6    4    2    2        0.0005919056
    6    4    2    4        0.0354304342
    6    4    2    6       -0.0137768718
    6    5    2    1       -0.0742775313
    6    5    2    3        0.0658338601
    6    5    2    5       -0.0131589387
    6    6    2    2        0.2292837575
    6    6    2    4       -0.0341744469
    6    6    2    6       -0.0052122473
    6    1    3    2        0.0163868430
    6    1    3    4       -0.0254605725
    6    1    3    6        0.0160640700
    6    2    3    1        0.0224681308
    6    2    3    3       -0.0054908084
    6    2    3    5        0.0130511657
    6    3    3    2       -0.0103591127
    6    3    3    4       -0.0173824652
    6    3    3    6        0.0466755468
    6    4    3    1       -0.0635214267
    6    4    3    3       -0.0340326800
    6    4    3    5        0.0342906059
    6    5    3    2        0.0662783881
    6    5    3    4        0.0434139480
    6    5    3    6       -0.0239728597
    6    6    3    1        0.0388395700
    6    6    3    3        0.2447739240
    6    6    3    5       -0.0353580220
    6    1    4    1       -0.0253042468
    6    1    4    3       -0.0256541382
    6    1    4    5        0.0097151587
    6    2    4    2        0.0083404033
    6    2    4    4       -0.0008233444
    6    2    4    6       -0.0137768718
    6    3    4    1       -0.0481065984
    6    3    4    3       -0.0205789985
    6    3    4    5       -0.0080865647
    6    4    4    2        0.0365297212
    6    4    4    4       -0.0308106597
    6    4    4    6        0.0559228189
    6    5    4    1        0.0204102029
    6    5    4    3        0.0446970487
    6    5    4    5        0.0622518406
    6    6    4    2       -0.0341744469
    6    6    4    4        0.2362272214
    6    6    4    6       -0.0415922053
    6    1    5    2       -0.0177926497
    6    1    5    4        0.0090030275
    6    1    5    6       -0.0007266204
    6    2    5    1       -0.0302789066
    6    2    5    3        0.0116914815
    6    2    5    5       -0.0194586392
    6    3    5    2        0.0305487911
    6    3    5    4       -0.0076155673
    6    3    5    6       -0.0239728597
    6    4    5    1        0.0100917246
    6    4    5    3        0.0361111573
    6    4    5    5        0.0001176097
    6    5    5    2       -0.0126730143
    6    5    5    4        0.0622004576
    6    5    5    6        0.0636065310
    6    6    5    1        0.0047727280
    6    6    5    3       -0.0353580220
    6    6    5    5        0.2175414782
    6    1    6    1        0.0471759233
    6    1    6    3        0.0146215326
    6    1    6    5       -0.0012823733
    6    2    6    2        0.0332168644
    6    2    6    4       -0.0132991617
    6    2    6    6       -0.0052122473
    6    3    6    1        0.0146215326
    6    3    6    3        0.0475372098
    6    3    6    5       -0.0239753684
    6    4    6    2       -0.0132991617
    6    4    6    4        0.0555847513
    6    4    6    6       -0.0415922053
    6    5    6    1       -0.0012823733
    6    5    6    3       -0.0239753684
    6    5    6    5        0.0635858741
    6    6    6    2       -0.0052122473
    6    6    6    4       -0.0415922053
    6    6    6    6        0.2421846737
 end_two_electron_integrals

 Task  times  cpu:     1330.0s     wall:     1330.0s
 
 
                                NWChem Input Module
                                -------------------
 
 
 Summary of allocated global arrays
-----------------------------------
  No active global arrays


MA_summarize_allocated_blocks: starting scan ...
MA_summarize_allocated_blocks: scan completed: 0 heap blocks, 0 stack blocks
MA usage statistics:

	allocation statistics:
					      heap	     stack
					      ----	     -----
	current number of blocks	         0	         0
	maximum number of blocks	        16	        42
	current total bytes		         0	         0
	maximum total bytes		     80104	20728605000
	maximum total K-bytes		        81	  20728605
	maximum total M-bytes		         1	     20729
 
 
                                     CITATION
                                     --------
                Please cite the following reference when publishing
                           results obtained with NWChem:
 
          E. Apra, E. J. Bylaska, W. A. de Jong, N. Govind, K. Kowalski,
       T. P. Straatsma, M. Valiev, H. J. J. van Dam, Y. Alexeev, J. Anchell,
       V. Anisimov, F. W. Aquino, R. Atta-Fynn, J. Autschbach, N. P. Bauman,
     J. C. Becca, D. E. Bernholdt, K. Bhaskaran-Nair, S. Bogatko, P. Borowski,
         J. Boschen, J. Brabec, A. Bruner, E. Cauet, Y. Chen, G. N. Chuev,
      C. J. Cramer, J. Daily, M. J. O. Deegan, T. H. Dunning Jr., M. Dupuis,
   K. G. Dyall, G. I. Fann, S. A. Fischer, A. Fonari, H. Fruchtl, L. Gagliardi,
      J. Garza, N. Gawande, S. Ghosh, K. Glaesemann, A. W. Gotz, J. Hammond,
       V. Helms, E. D. Hermes, K. Hirao, S. Hirata, M. Jacquelin, L. Jensen,
   B. G. Johnson, H. Jonsson, R. A. Kendall, M. Klemm, R. Kobayashi, V. Konkov,
      S. Krishnamoorthy, M. Krishnan, Z. Lin, R. D. Lins, R. J. Littlefield,
      A. J. Logsdail, K. Lopata, W. Ma, A. V. Marenich, J. Martin del Campo,
   D. Mejia-Rodriguez, J. E. Moore, J. M. Mullin, T. Nakajima, D. R. Nascimento,
    J. A. Nichols, P. J. Nichols, J. Nieplocha, A. Otero-de-la-Roza, B. Palmer,
    A. Panyala, T. Pirojsirikul, B. Peng, R. Peverati, J. Pittner, L. Pollack,
   R. M. Richard, P. Sadayappan, G. C. Schatz, W. A. Shelton, D. W. Silverstein,
   D. M. A. Smith, T. A. Soares, D. Song, M. Swart, H. L. Taylor, G. S. Thomas,
            V. Tipparaju, D. G. Truhlar, K. Tsemekhman, T. Van Voorhis,
      A. Vazquez-Mayagoitia, P. Verma, O. Villa, A. Vishnu, K. D. Vogiatzis,
        D. Wang, J. H. Weare, M. J. Williamson, T. L. Windus, K. Wolinski,
        A. T. Wong, Q. Wu, C. Yang, Q. Yu, M. Zacharias, Z. Zhang, Y. Zhao,
                                and R. J. Harrison
                        "NWChem: Past, present, and future
                         J. Chem. Phys. 152, 184102 (2020)
                               doi:10.1063/5.0004997
 
                                      AUTHORS
                                      -------
  E. Apra, E. J. Bylaska, N. Govind, K. Kowalski, M. Valiev, D. Mejia-Rodriguez,
       A. Kunitsa, N. P. Bauman, A. Panyala, W. A. de Jong, T. P. Straatsma,
   H. J. J. van Dam, D. Wang, T. L. Windus, J. Hammond, J. Autschbach, A. Woods,
    K. Bhaskaran-Nair, J. Brabec, K. Lopata, S. A. Fischer, S. Krishnamoorthy,
     M. Jacquelin, W. Ma, M. Klemm, O. Villa, Y. Chen, V. Anisimov, F. Aquino,
     S. Hirata, M. T. Hackler, E. Hermes, L. Jensen, J. E. Moore, J. C. Becca,
      V. Konjkov, T. Risthaus, M. Malagoli, A. Marenich, A. Otero-de-la-Roza,
        J. Mullin, P. Nichols, R. Peverati, J. Pittner, Y. Zhao, P.-D. Fan,
        A. Fonari, M. J. Williamson, R. J. Harrison, J. R. Rehr, M. Dupuis,
     D. Silverstein, D. M. A. Smith, J. Nieplocha, V. Tipparaju, M. Krishnan,
     B. E. Van Kuiken, A. Vazquez-Mayagoitia, M. Swart, Q. Wu, T. Van Voorhis,
     A. A. Auer, M. Nooijen, L. D. Crosby, E. Brown, G. Cisneros, G. I. Fann,
   H. Fruchtl, J. Garza, K. Hirao, R. A. Kendall, J. A. Nichols, K. Tsemekhman,
    K. Wolinski, J. Anchell, D. E. Bernholdt, P. Borowski, T. Clark, D. Clerc,
   H. Dachsel, M. J. O. Deegan, K. Dyall, D. Elwood, E. Glendening, M. Gutowski,
   A. C. Hess, J. Jaffe, B. G. Johnson, J. Ju, R. Kobayashi, R. Kutteh, Z. Lin,
   R. Littlefield, X. Long, B. Meng, T. Nakajima, S. Niu, L. Pollack, M. Rosing,
   K. Glaesemann, G. Sandrone, M. Stave, H. Taylor, G. Thomas, J. H. van Lenthe,
                               A. T. Wong, Z. Zhang.

 Total times  cpu:     1330.4s     wall:     1330.4s
