 argument  1 = input.nw
  NWChem w/ OpenMP: maximum threads =    1



============================== echo of input deck ==============================
 echo
 start H2O
 title "H2O"

 memory total 24 gb

 geometry units bohr
 symmetry c1
        O  0.00000000  0.00000000  0.00000000
        H  0.00000000  1.61301875  0.00000000
        H  1.72558000 -0.64860000  0.00000000
 end

 basis spherical
   * library cc-pVTZ
 end

 mcscf
   active  8
   actelec 10
   multiplicity 1
   maxiter 40
   vectors input h2o.mos
   vectors output h2o.mos
 end

 task mcscf

 scf
   vectors input h2o.mos
   vectors output h2o-trash.mos
   noscf
 end

 tce
   2eorb
   2emet 13
   ccsd
 end

# set tce:print_integrals T
# set tce:qorb 8
# set tce:qela 5
# set tce:qelb 5

 set tce:qducc T
 set tce:nactv 3
 set tce:nonhf T
 set tce:ducc_model 3

 set tce:printtol 0.02

 task tce
================================================================================


                                         
                                         


             Northwest Computational Chemistry Package (NWChem) 7.0.1
             --------------------------------------------------------


                    Environmental Molecular Sciences Laboratory
                       Pacific Northwest National Laboratory
                                Richland, WA 99352

                              Copyright (c) 1994-2020
                       Pacific Northwest National Laboratory
                            Battelle Memorial Institute

             NWChem is an open-source computational chemistry package
                        distributed under the terms of the
                      Educational Community License (ECL) 2.0
             A copy of the license is included with this distribution
                              in the LICENSE.TXT file

                                  ACKNOWLEDGMENT
                                  --------------

            This software and its documentation were developed at the
            EMSL at Pacific Northwest National Laboratory, a multiprogram
            national laboratory, operated for the U.S. Department of Energy
            by Battelle under Contract Number DE-AC05-76RL01830. Support
            for this work was provided by the Department of Energy Office
            of Biological and Environmental Research, Office of Basic
            Energy Sciences, and the Office of Advanced Scientific Computing.


           Job information
           ---------------

    hostname        = WE46210
    program         = /home/baum612/code/nwchem/bin/LINUX64/nwchem
    date            = Tue Feb 20 11:33:12 2024

    compiled        = Fri_Feb_16_11:09:52_2024
    source          = /home/baum612/code/nwchem
    nwchem branch   = 7.0.0
    nwchem revision = nwchem_on_git-4191-g39d87d64de
    ga revision     = 5.8.1
    use scalapack   = F
    input           = input.nw
    prefix          = H2O.
    data base       = ./H2O.db
    status          = startup
    nproc           =        1
    time left       =     -1s



           Memory information
           ------------------

    heap     =  805306366 doubles =   6144.0 Mbytes
    stack    =  805306363 doubles =   6144.0 Mbytes
    global   = 1610612736 doubles =  12288.0 Mbytes (distinct from heap & stack)
    total    = 3221225465 doubles =  24576.0 Mbytes
    verify   = yes
    hardfail = no 


           Directory information
           ---------------------

  0 permanent = .
  0 scratch   = .




                                NWChem Input Module
                                -------------------


                                        H2O
                                        ---
 Turning off AUTOSYM since
 SYMMETRY directive was detected!


          ------
          auto-z
          ------
  no constraints, skipping    0.0000000000000000     
  no constraints, skipping    0.0000000000000000     


                             Geometry "geometry" -> ""
                             -------------------------

 Output coordinates in a.u. (scale by  1.000000000 to convert to a.u.)

  No.       Tag          Charge          X              Y              Z
 ---- ---------------- ---------- -------------- -------------- --------------
    1 O                    8.0000    -0.17255800    -0.09644188     0.00000000
    2 H                    1.0000    -0.17255800     1.51657688     0.00000000
    3 H                    1.0000     1.55302200    -0.74504188     0.00000000

      Atomic Mass 
      ----------- 

      O                 15.994910
      H                  1.007825


 Effective nuclear repulsion energy (a.u.)       9.6508596571

            Nuclear Dipole moment (a.u.) 
            ----------------------------
        X                 Y               Z
 ---------------- ---------------- ----------------
    -0.0000000000     0.0000000000     0.0000000000



                                Z-matrix (autoz)
                                -------- 

 Units are Angstrom for bonds and degrees for angles

      Type          Name      I     J     K     L     M      Value
      ----------- --------  ----- ----- ----- ----- ----- ----------
    1 Stretch                  1     2                       0.85357
    2 Stretch                  1     3                       0.97551
    3 Bend                     2     1     3               110.59992


            XYZ format geometry
            -------------------
     3
 geometry
 O                    -0.09131377    -0.05103485     0.00000000
 H                    -0.09131377     0.80253798     0.00000000
 H                     0.82182391    -0.39425921     0.00000000

 ==============================================================================
                                internuclear distances
 ------------------------------------------------------------------------------
       center one      |      center two      | atomic units |       a.u.
 ------------------------------------------------------------------------------
    2 H                |   1 O                |     1.61302  |     1.61302
    3 H                |   1 O                |     1.84345  |     1.84345
 ------------------------------------------------------------------------------
                         number of included internuclear distances:          2
 ==============================================================================



 ==============================================================================
                                 internuclear angles
 ------------------------------------------------------------------------------
        center 1       |       center 2       |       center 3       |  degrees
 ------------------------------------------------------------------------------
    2 H                |   1 O                |   3 H                |   110.60
 ------------------------------------------------------------------------------
                            number of included internuclear angles:          1
 ==============================================================================





 Summary of "ao basis" -> "" (spherical)
 ------------------------------------------------------------------------------
       Tag                 Description            Shells   Functions and Types
 ---------------- ------------------------------  ------  ---------------------
 *                          cc-pVTZ                   on all atoms 


                      Basis "ao basis" -> "ao basis" (spherical)
                      -----
  O (Oxygen)
  ----------
            Exponent  Coefficients 
       -------------- ---------------------------------------------------------
  1 S  1.53300000E+04  0.000508
  1 S  2.29900000E+03  0.003929
  1 S  5.22400000E+02  0.020243
  1 S  1.47300000E+02  0.079181
  1 S  4.75500000E+01  0.230687
  1 S  1.67600000E+01  0.433118
  1 S  6.20700000E+00  0.350260
  1 S  6.88200000E-01 -0.008154

  2 S  1.53300000E+04 -0.000115
  2 S  2.29900000E+03 -0.000895
  2 S  5.22400000E+02 -0.004636
  2 S  1.47300000E+02 -0.018724
  2 S  4.75500000E+01 -0.058463
  2 S  1.67600000E+01 -0.136463
  2 S  6.20700000E+00 -0.175740
  2 S  6.88200000E-01  0.603418

  3 S  1.75200000E+00  1.000000

  4 S  2.38400000E-01  1.000000

  5 P  3.44600000E+01  0.015928
  5 P  7.74900000E+00  0.099740
  5 P  2.28000000E+00  0.310492

  6 P  7.15600000E-01  1.000000

  7 P  2.14000000E-01  1.000000

  8 D  2.31400000E+00  1.000000

  9 D  6.45000000E-01  1.000000

 10 F  1.42800000E+00  1.000000

  H (Hydrogen)
  ------------
            Exponent  Coefficients 
       -------------- ---------------------------------------------------------
  1 S  3.38700000E+01  0.006068
  1 S  5.09500000E+00  0.045308
  1 S  1.15900000E+00  0.202822

  2 S  3.25800000E-01  1.000000

  3 S  1.02700000E-01  1.000000

  4 P  1.40700000E+00  1.000000

  5 P  3.88000000E-01  1.000000

  6 D  1.05700000E+00  1.000000



 Summary of "ao basis" -> "ao basis" (spherical)
 ------------------------------------------------------------------------------
       Tag                 Description            Shells   Functions and Types
 ---------------- ------------------------------  ------  ---------------------
 O                          cc-pVTZ                 10       30   4s3p2d1f
 H                          cc-pVTZ                  6       14   3s2p1d



                            NWChem Direct MCSCF Module
                            --------------------------


                                        H2O


     -----------------------------------
       Basis functions:             58
       Inactive shells:              0
       Active shells:                8
       Active electrons:            10
       Symmetry:                    a       
       Multiplicity:                 1
       Orbital rotations:          400
     -----------------------------------

     -----------------------------------
       E2 extrapolation:             F
       Conjugacy:                    T
       Micro CI relax:               T
       Canonical orbitals:           T
       Maximum iterations:          40
       Converge threshold:    1.00E-04
       Conjugacy resets:            20
       Initial levelshift:        0.10
     -----------------------------------

 Loading old vectors from job with title :

H2O


   input molecular orbitals = ./h2o.mos
  output molecular orbtials = ./h2o.mos

       No. of determinants:          3136


  Starting Orbital Energies
   -20.534537    -1.374410    -0.767974    -0.590377    -0.529039    -0.025620
    -0.021258    -0.015997     0.281991     0.334974     0.615380     0.652946
     0.809663     0.854258     0.974039     1.087091     1.200811     1.373222
     1.511359     2.003395     2.007703     2.093051     2.142614     2.190187
     2.622826     2.893213     3.395433     3.525687     3.534499     3.591284
     3.658441     3.868689     3.939886     3.958065     3.990856     4.041089
     4.193290     4.407605     4.483856     4.550939     4.691190     4.883648
     5.302648     5.361981     5.576723     6.088811     6.597077     6.885653
     6.918620     7.012420     7.085536     7.143837     7.442260     7.500292
     7.522834     7.927382     8.391859    13.616068

  Orbital Symmetry Irreps
a    a    a    a    a    a    a    a    a    a    a    a    a    a    a   
a    a    a    a    a    a    a    a    a    a    a    a    a    a    a   
a    a    a    a    a    a    a    a    a    a    a    a    a    a    a   
a    a    a    a    a    a    a    a    a    a    a    a    a   

 Integral file          = ./H2O.aoints.0
 Record size in doubles =  65536        No. of integs per rec  =  43688
 Max. records in memory =     49        Max. records in file   = 252475
 No. of bits per label  =      8        No. of bits per value  =     64


 #quartets = 3.213D+04 #integrals = 6.608D+05 #direct =  0.0% #cached =100.0%




          %%%%% MacroIteration   1 %%%%%


          Number of sigma calls:       15
                       o<<<<< (aa):             0.01
                       o<<<<< (bb):             0.01
                       o<<<<< (ab):             0.22
                       o<<<<< (total)           0.24
                       o<<<<< (aa) ff           0.00
                       o<<<<< (aa) gop          0.00
                       o<<<<< (aa) dot          0.00
                       o<<<<< (ab) str          0.00
                       o<<<<< (ab) gath         0.00
                       o<<<<< (ab) dotab        0.00
                       o<<<<< (ab) scat         0.00
                       o<<<<< (ab) sync         0.00
                       o<<<<< Density           0.01
                       o<<<<< Density one       0.00
                       o<<<<< Density two       0.00
                       o<<<<< Density ab        0.01
                       o<<<<< Spin adapt        0.93
                       o<<<<< Symm adapt        0.00

                       o<<<<< (ab) max sync:      0.00

           >>>| Valence CI:            -85.784747934309
           >>>| MCSCF energy:          -76.133888277206
           >>>| Gradient norm:          0.290169545D-01

                              ----- Line search ------

        step       energy         lsg     num-lsg   num-lsh   lsrat    time
      ------- ---------------- --------- --------- --------- ------- --------
       0.0000     -76.13388828 -6.59D-05  0.00D+00  0.00D+00 0.0D+00      3.3

          Number of sigma calls:       15
                       o<<<<< (aa):             0.00
                       o<<<<< (bb):             0.02
                       o<<<<< (ab):             0.20
                       o<<<<< (total)           0.22
                       o<<<<< (aa) ff           0.00
                       o<<<<< (aa) gop          0.00
                       o<<<<< (aa) dot          0.00
                       o<<<<< (ab) str          0.00
                       o<<<<< (ab) gath         0.00
                       o<<<<< (ab) dotab        0.00
                       o<<<<< (ab) scat         0.00
                       o<<<<< (ab) sync         0.00
                       o<<<<< Density           0.01
                       o<<<<< Density one       0.01
                       o<<<<< Density two       0.00
                       o<<<<< Density ab        0.00
                       o<<<<< Spin adapt        1.02
                       o<<<<< Symm adapt        0.00

                       o<<<<< (ab) max sync:      0.00
       1.0000     -76.13392226 -2.01D-06 -2.02D-06  6.39D-05 3.0D-02      4.8
     --- Orbitals canonicalized ---



          %%%%% MacroIteration   2 %%%%%


          Number of sigma calls:       11
                       o<<<<< (aa):             0.00
                       o<<<<< (bb):             0.00
                       o<<<<< (ab):             0.15
                       o<<<<< (total)           0.15
                       o<<<<< (aa) ff           0.00
                       o<<<<< (aa) gop          0.00
                       o<<<<< (aa) dot          0.00
                       o<<<<< (ab) str          0.00
                       o<<<<< (ab) gath         0.00
                       o<<<<< (ab) dotab        0.00
                       o<<<<< (ab) scat         0.00
                       o<<<<< (ab) sync         0.00
                       o<<<<< Density           0.03
                       o<<<<< Density one       0.01
                       o<<<<< Density two       0.01
                       o<<<<< Density ab        0.01
                       o<<<<< Spin adapt        0.61
                       o<<<<< Symm adapt        0.00

                       o<<<<< (ab) max sync:      0.00

           >>>| Valence CI:            -85.784781917839
           >>>| MCSCF energy:          -76.133922260737
           >>>| Gradient norm:          0.194099768D-02
     --- Warning:    2 Hessian diagonals < 0.05 ---
     --- Conjugacy reset ---

                              ----- Line search ------

        step       energy         lsg     num-lsg   num-lsh   lsrat    time
      ------- ---------------- --------- --------- --------- ------- --------
       0.0000     -76.13392226 -6.75D-07  0.00D+00  0.00D+00 0.0D+00      6.2

          Number of sigma calls:       10
                       o<<<<< (aa):             0.00
                       o<<<<< (bb):             0.01
                       o<<<<< (ab):             0.13
                       o<<<<< (total)           0.14
                       o<<<<< (aa) ff           0.00
                       o<<<<< (aa) gop          0.00
                       o<<<<< (aa) dot          0.00
                       o<<<<< (ab) str          0.00
                       o<<<<< (ab) gath         0.00
                       o<<<<< (ab) dotab        0.00
                       o<<<<< (ab) scat         0.00
                       o<<<<< (ab) sync         0.00
                       o<<<<< Density           0.02
                       o<<<<< Density one       0.01
                       o<<<<< Density two       0.00
                       o<<<<< Density ab        0.01
                       o<<<<< Spin adapt        0.62
                       o<<<<< Symm adapt        0.00

                       o<<<<< (ab) max sync:      0.00
       1.0000     -76.13392273 -2.56D-07 -2.56D-07  4.19D-07 3.8D-01      7.3

          Number of sigma calls:       10
                       o<<<<< (aa):             0.01
                       o<<<<< (bb):             0.01
                       o<<<<< (ab):             0.14
                       o<<<<< (total)           0.15
                       o<<<<< (aa) ff           0.00
                       o<<<<< (aa) gop          0.00
                       o<<<<< (aa) dot          0.00
                       o<<<<< (ab) str          0.00
                       o<<<<< (ab) gath         0.00
                       o<<<<< (ab) dotab        0.00
                       o<<<<< (ab) scat         0.00
                       o<<<<< (ab) sync         0.00
                       o<<<<< Density           0.02
                       o<<<<< Density one       0.00
                       o<<<<< Density two       0.01
                       o<<<<< Density ab        0.01
                       o<<<<< Spin adapt        0.67
                       o<<<<< Symm adapt        0.00

                       o<<<<< (ab) max sync:      0.00
       1.6128     -76.13392281 -7.10D-10 -6.65D-10  4.17D-07 1.1D-03      8.4



          %%%%% MacroIteration   3 %%%%%


          Number of sigma calls:        1
                       o<<<<< (aa):             0.00
                       o<<<<< (bb):             0.00
                       o<<<<< (ab):             0.02
                       o<<<<< (total)           0.02
                       o<<<<< (aa) ff           0.00
                       o<<<<< (aa) gop          0.00
                       o<<<<< (aa) dot          0.00
                       o<<<<< (ab) str          0.00
                       o<<<<< (ab) gath         0.00
                       o<<<<< (ab) dotab        0.00
                       o<<<<< (ab) scat         0.00
                       o<<<<< (ab) sync         0.00
                       o<<<<< Density           0.02
                       o<<<<< Density one       0.00
                       o<<<<< Density two       0.01
                       o<<<<< Density ab        0.01
                       o<<<<< Spin adapt        0.00
                       o<<<<< Symm adapt        0.00

                       o<<<<< (ab) max sync:      0.00

           >>>| Valence CI:            -85.784782462255
           >>>| MCSCF energy:          -76.133922805152
           >>>| Gradient norm:          0.416112924D-03
     --- Warning:    2 Hessian diagonals < 0.05 ---

                              ----- Line search ------

        step       energy         lsg     num-lsg   num-lsh   lsrat    time
      ------- ---------------- --------- --------- --------- ------- --------
       0.0000     -76.13392281 -7.83D-08  0.00D+00  0.00D+00 0.0D+00      8.9

          Number of sigma calls:       10
                       o<<<<< (aa):             0.00
                       o<<<<< (bb):             0.00
                       o<<<<< (ab):             0.11
                       o<<<<< (total)           0.11
                       o<<<<< (aa) ff           0.00
                       o<<<<< (aa) gop          0.00
                       o<<<<< (aa) dot          0.00
                       o<<<<< (ab) str          0.00
                       o<<<<< (ab) gath         0.00
                       o<<<<< (ab) dotab        0.00
                       o<<<<< (ab) scat         0.00
                       o<<<<< (ab) sync         0.00
                       o<<<<< Density           0.03
                       o<<<<< Density one       0.01
                       o<<<<< Density two       0.00
                       o<<<<< Density ab        0.02
                       o<<<<< Spin adapt        0.65
                       o<<<<< Symm adapt        0.00

                       o<<<<< (ab) max sync:      0.00
       1.0000     -76.13392287 -4.39D-08 -4.39D-08  3.44D-08 5.6D-01     10.0

          Number of sigma calls:       10
                       o<<<<< (aa):             0.01
                       o<<<<< (bb):             0.01
                       o<<<<< (ab):             0.11
                       o<<<<< (total)           0.13
                       o<<<<< (aa) ff           0.00
                       o<<<<< (aa) gop          0.00
                       o<<<<< (aa) dot          0.00
                       o<<<<< (ab) str          0.00
                       o<<<<< (ab) gath         0.00
                       o<<<<< (ab) dotab        0.00
                       o<<<<< (ab) scat         0.00
                       o<<<<< (ab) sync         0.00
                       o<<<<< Density           0.03
                       o<<<<< Density one       0.02
                       o<<<<< Density two       0.00
                       o<<<<< Density ab        0.01
                       o<<<<< Spin adapt        0.82
                       o<<<<< Symm adapt        0.00

                       o<<<<< (ab) max sync:      0.00
       2.2758     -76.13392289 -3.81D-11 -3.44D-11  3.44D-08 4.9D-04     11.3



          %%%%% MacroIteration   4 %%%%%


          Number of sigma calls:        1
                       o<<<<< (aa):             0.00
                       o<<<<< (bb):             0.00
                       o<<<<< (ab):             0.02
                       o<<<<< (total)           0.02
                       o<<<<< (aa) ff           0.00
                       o<<<<< (aa) gop          0.00
                       o<<<<< (aa) dot          0.00
                       o<<<<< (ab) str          0.00
                       o<<<<< (ab) gath         0.00
                       o<<<<< (ab) dotab        0.00
                       o<<<<< (ab) scat         0.00
                       o<<<<< (ab) sync         0.00
                       o<<<<< Density           0.02
                       o<<<<< Density one       0.01
                       o<<<<< Density two       0.00
                       o<<<<< Density ab        0.01
                       o<<<<< Spin adapt        0.00
                       o<<<<< Symm adapt        0.00

                       o<<<<< (ab) max sync:      0.00

           >>>| Valence CI:            -85.784782551358
           >>>| MCSCF energy:          -76.133922894256
           >>>| Gradient norm:          0.411713279D-03
     --- Warning:    2 Hessian diagonals < 0.05 ---

                              ----- Line search ------

        step       energy         lsg     num-lsg   num-lsh   lsrat    time
      ------- ---------------- --------- --------- --------- ------- --------
       0.0000     -76.13392289 -4.11D-08  0.00D+00  0.00D+00 0.0D+00     11.7

          Number of sigma calls:       10
                       o<<<<< (aa):             0.01
                       o<<<<< (bb):             0.03
                       o<<<<< (ab):             0.12
                       o<<<<< (total)           0.16
                       o<<<<< (aa) ff           0.00
                       o<<<<< (aa) gop          0.00
                       o<<<<< (aa) dot          0.00
                       o<<<<< (ab) str          0.00
                       o<<<<< (ab) gath         0.00
                       o<<<<< (ab) dotab        0.00
                       o<<<<< (ab) scat         0.00
                       o<<<<< (ab) sync         0.00
                       o<<<<< Density           0.04
                       o<<<<< Density one       0.01
                       o<<<<< Density two       0.00
                       o<<<<< Density ab        0.03
                       o<<<<< Spin adapt        0.63
                       o<<<<< Symm adapt        0.00

                       o<<<<< (ab) max sync:      0.00
       1.0000     -76.13392293 -2.14D-08 -2.14D-08  1.96D-08 5.2D-01     12.9

          Number of sigma calls:       10
                       o<<<<< (aa):             0.00
                       o<<<<< (bb):             0.01
                       o<<<<< (ab):             0.12
                       o<<<<< (total)           0.13
                       o<<<<< (aa) ff           0.00
                       o<<<<< (aa) gop          0.00
                       o<<<<< (aa) dot          0.00
                       o<<<<< (ab) str          0.00
                       o<<<<< (ab) gath         0.00
                       o<<<<< (ab) dotab        0.00
                       o<<<<< (ab) scat         0.00
                       o<<<<< (ab) sync         0.00
                       o<<<<< Density           0.02
                       o<<<<< Density one       0.02
                       o<<<<< Density two       0.00
                       o<<<<< Density ab        0.00
                       o<<<<< Spin adapt        0.71
                       o<<<<< Symm adapt        0.00

                       o<<<<< (ab) max sync:      0.00
       2.0919     -76.13392294 -2.22D-11 -1.96D-11  1.96D-08 5.4D-04     14.0



          %%%%% MacroIteration   5 %%%%%


          Number of sigma calls:        1
                       o<<<<< (aa):             0.00
                       o<<<<< (bb):             0.00
                       o<<<<< (ab):             0.01
                       o<<<<< (total)           0.01
                       o<<<<< (aa) ff           0.00
                       o<<<<< (aa) gop          0.00
                       o<<<<< (aa) dot          0.00
                       o<<<<< (ab) str          0.00
                       o<<<<< (ab) gath         0.00
                       o<<<<< (ab) dotab        0.00
                       o<<<<< (ab) scat         0.00
                       o<<<<< (ab) sync         0.00
                       o<<<<< Density           0.03
                       o<<<<< Density one       0.01
                       o<<<<< Density two       0.00
                       o<<<<< Density ab        0.02
                       o<<<<< Spin adapt        0.00
                       o<<<<< Symm adapt        0.00

                       o<<<<< (ab) max sync:      0.00

           >>>| Valence CI:            -85.784782594321
           >>>| MCSCF energy:          -76.133922937219
           >>>| Gradient norm:          0.146638436D-03
     --- Warning:    2 Hessian diagonals < 0.05 ---

                              ----- Line search ------

        step       energy         lsg     num-lsg   num-lsh   lsrat    time
      ------- ---------------- --------- --------- --------- ------- --------
       0.0000     -76.13392294 -2.42D-09  0.00D+00  0.00D+00 0.0D+00     14.4

          Number of sigma calls:        8
                       o<<<<< (aa):             0.01
                       o<<<<< (bb):             0.01
                       o<<<<< (ab):             0.09
                       o<<<<< (total)           0.11
                       o<<<<< (aa) ff           0.00
                       o<<<<< (aa) gop          0.00
                       o<<<<< (aa) dot          0.00
                       o<<<<< (ab) str          0.00
                       o<<<<< (ab) gath         0.00
                       o<<<<< (ab) dotab        0.00
                       o<<<<< (ab) scat         0.00
                       o<<<<< (ab) sync         0.00
                       o<<<<< Density           0.02
                       o<<<<< Density one       0.00
                       o<<<<< Density two       0.00
                       o<<<<< Density ab        0.02
                       o<<<<< Spin adapt        0.68
                       o<<<<< Symm adapt        0.00

                       o<<<<< (ab) max sync:      0.00
       1.0000     -76.13392294 -5.80D-10 -5.80D-10  1.84D-09 2.4D-01     15.4

          Number of sigma calls:        7
                       o<<<<< (aa):             0.01
                       o<<<<< (bb):             0.00
                       o<<<<< (ab):             0.11
                       o<<<<< (total)           0.12
                       o<<<<< (aa) ff           0.00
                       o<<<<< (aa) gop          0.00
                       o<<<<< (aa) dot          0.00
                       o<<<<< (ab) str          0.00
                       o<<<<< (ab) gath         0.00
                       o<<<<< (ab) dotab        0.00
                       o<<<<< (ab) scat         0.00
                       o<<<<< (ab) sync         0.00
                       o<<<<< Density           0.03
                       o<<<<< Density one       0.01
                       o<<<<< Density two       0.01
                       o<<<<< Density ab        0.01
                       o<<<<< Spin adapt        0.60
                       o<<<<< Symm adapt        0.00

                       o<<<<< (ab) max sync:      0.00
       1.3148     -76.13392294 -2.22D-14 -1.04D-12  1.84D-09 9.2D-06     16.5



          %%%%% MacroIteration   6 %%%%%


          Number of sigma calls:        1
                       o<<<<< (aa):             0.00
                       o<<<<< (bb):             0.00
                       o<<<<< (ab):             0.02
                       o<<<<< (total)           0.02
                       o<<<<< (aa) ff           0.00
                       o<<<<< (aa) gop          0.00
                       o<<<<< (aa) dot          0.00
                       o<<<<< (ab) str          0.00
                       o<<<<< (ab) gath         0.00
                       o<<<<< (ab) dotab        0.00
                       o<<<<< (ab) scat         0.00
                       o<<<<< (ab) sync         0.00
                       o<<<<< Density           0.02
                       o<<<<< Density one       0.01
                       o<<<<< Density two       0.00
                       o<<<<< Density ab        0.01
                       o<<<<< Spin adapt        0.00
                       o<<<<< Symm adapt        0.00

                       o<<<<< (ab) max sync:      0.00

           >>>| Valence CI:            -85.784782595913
           >>>| MCSCF energy:          -76.133922938811
           >>>| Gradient norm:          0.127056364D-04




     ==============================
            MCSCF Converged
     ==============================



          Canonical Eigenvalues

              1      
    1  -20.5336
    2   -1.3778
    3   -0.7709
    4   -0.5911
    5   -0.5296
    6   -0.0256
    7   -0.0209
    8   -0.0160
    9    0.2808
   10    0.3349
   11    0.6164
   12    0.6529
   13    0.8096
   14    0.8552
   15    0.9740
   16    1.0835
   17    1.2037
   18    1.3722
   19    1.5242
   20    2.0004
   21    2.0083
   22    2.0951
   23    2.1431
   24    2.1891
   25    2.6250
   26    2.8948
   27    3.3971
   28    3.5254
   29    3.5371
   30    3.5963
   31    3.6647
   32    3.8679
   33    3.9446
   34    3.9608
   35    3.9905
   36    4.0396
   37    4.2010
   38    4.4147
   39    4.4907
   40    4.5645
   41    4.6977
   42    4.8836
   43    5.3089
   44    5.3960
   45    5.5899
   46    6.1006
   47    6.6131
   48    6.8795
   49    6.9166
   50    7.0113
   51    7.0860
   52    7.1517
   53    7.4710
   54    7.5358
   55    7.5493
   56    7.9528
   57    8.4144
   58   13.7148


          Converged CI vector

   Index           Coefficient          Config. Occupation
         1          0.97869238          1  2  3  4  5  1  2  3  4  5
        22          0.06763343          1  2  3  4  5  1  2  3  4  8
         3         -0.03430784          1  2  3  4  5  1  2  3  5  6
         8          0.02617127          1  2  3  4  5  1  2  3  5  7
         4         -0.02567580          1  2  3  4  5  1  2  4  5  6
         9         -0.03055781          1  2  3  4  5  1  2  4  5  7
        38         -0.02007230          1  2  3  4  5  1  2  4  7  8
      1177          0.06763343          1  2  3  4  8  1  2  3  4  5
      1198         -0.05098982          1  2  3  4  8  1  2  3  4  8
      1179          0.02213084          1  2  3  4  8  1  2  3  5  6
      1180          0.02305293          1  2  3  4  8  1  2  4  5  6
      1185          0.02648898          1  2  3  4  8  1  2  4  5  7
       113         -0.03430784          1  2  3  5  6  1  2  3  4  5
       134          0.02213084          1  2  3  5  6  1  2  3  4  8
       115         -0.03506338          1  2  3  5  6  1  2  3  5  6
       116         -0.02899991          1  2  3  5  6  1  2  4  5  6
       393          0.02617127          1  2  3  5  7  1  2  3  4  5
       400         -0.02052122          1  2  3  5  7  1  2  3  5  7
       401          0.02089632          1  2  3  5  7  1  2  4  5  7
       169         -0.02567580          1  2  4  5  6  1  2  3  4  5
       190          0.02305293          1  2  4  5  6  1  2  3  4  8
       171         -0.02899991          1  2  4  5  6  1  2  3  5  6
       172         -0.04008859          1  2  4  5  6  1  2  4  5  6
       173          0.02126356          1  2  4  5  6  1  3  4  5  6
       449         -0.03055781          1  2  4  5  7  1  2  3  4  5
       470          0.02648898          1  2  4  5  7  1  2  3  4  8
       456          0.02089632          1  2  4  5  7  1  2  3  5  7
       457         -0.03803550          1  2  4  5  7  1  2  4  5  7
      2073         -0.02007230          1  2  4  7  8  1  2  3  4  5
       228          0.02126356          1  3  4  5  6  1  2  4  5  6
       229         -0.02099634          1  3  4  5  6  1  3  4  5  6

          Number of sigma calls:        1
                       o<<<<< (aa):             0.00
                       o<<<<< (bb):             0.00
                       o<<<<< (ab):             0.01
                       o<<<<< (total)           0.01
                       o<<<<< (aa) ff           0.00
                       o<<<<< (aa) gop          0.00
                       o<<<<< (aa) dot          0.00
                       o<<<<< (ab) str          0.00
                       o<<<<< (ab) gath         0.00
                       o<<<<< (ab) dotab        0.00
                       o<<<<< (ab) scat         0.00
                       o<<<<< (ab) sync         0.00
                       o<<<<< Density           0.01
                       o<<<<< Density one       0.00
                       o<<<<< Density two       0.00
                       o<<<<< Density ab        0.01
                       o<<<<< Spin adapt        0.00
                       o<<<<< Symm adapt        0.00

                       o<<<<< (ab) max sync:      0.00



          Natural orbital occupation numbers

              1      
    1    2.0000
    2    1.9991
    3    1.9833
    4    1.9829
    5    1.9777
    6    0.0230
    7    0.0175
    8    0.0165


          Number of sigma calls:       15
                       o<<<<< (aa):             0.00
                       o<<<<< (bb):             0.02
                       o<<<<< (ab):             0.21
                       o<<<<< (total)           0.23
                       o<<<<< (aa) ff           0.00
                       o<<<<< (aa) gop          0.00
                       o<<<<< (aa) dot          0.00
                       o<<<<< (ab) str          0.00
                       o<<<<< (ab) gath         0.00
                       o<<<<< (ab) dotab        0.00
                       o<<<<< (ab) scat         0.00
                       o<<<<< (ab) sync         0.00
                       o<<<<< Density           0.04
                       o<<<<< Density one       0.01
                       o<<<<< Density two       0.01
                       o<<<<< Density ab        0.02
                       o<<<<< Spin adapt        0.87
                       o<<<<< Symm adapt        0.00

                       o<<<<< (ab) max sync:      0.00


       Final MCSCF results 
       ------------------- 

       Total MCSCF energy =    -76.133922938810
            Gradient norm =      1.3D-05

    CPU time for solution =     18.2s
   Wall time for solution =     30.9s



                        Analysis of MCSCF natural orbitals
                        ----------------------------------

 Vector    1  Occ=1.999988D+00  E=-2.053361D+01  Symmetry=a
              MO Center= -9.2D-02, -5.1D-02, -5.2D-10, r^2= 1.9D-02
   Bfn.  Coefficient  Atom+Function         Bfn.  Coefficient  Atom+Function  
  ----- ------------  ---------------      ----- ------------  ---------------
     1      0.969689  1 O  s          

 Vector    2  Occ=1.999111D+00  E=-1.377827D+00  Symmetry=a
              MO Center= -3.1D-01, -1.8D-01, -2.3D-07, r^2= 4.2D-01
   Bfn.  Coefficient  Atom+Function         Bfn.  Coefficient  Atom+Function  
  ----- ------------  ---------------      ----- ------------  ---------------
     2      0.504621  1 O  s                  4      0.379442  1 O  s          

 Vector    3  Occ=1.983298D+00  E=-7.708587D-01  Symmetry=a
              MO Center= -6.4D-02, -2.9D-02,  2.8D-07, r^2= 6.5D-01
   Bfn.  Coefficient  Atom+Function         Bfn.  Coefficient  Atom+Function  
  ----- ------------  ---------------      ----- ------------  ---------------
    10      0.429402  1 O  pz                13      0.384294  1 O  pz         
     7      0.358186  1 O  pz         

 Vector    4  Occ=1.982931D+00  E=-5.911206D-01  Symmetry=a
              MO Center= -4.1D-02,  3.3D-01, -5.1D-08, r^2= 5.4D-01
   Bfn.  Coefficient  Atom+Function         Bfn.  Coefficient  Atom+Function  
  ----- ------------  ---------------      ----- ------------  ---------------
     9      0.330423  1 O  py                 6      0.292598  1 O  py         
    32      0.261804  2 H  s                 31      0.204786  2 H  s          
    12      0.171663  1 O  py         

 Vector    5  Occ=1.977662D+00  E=-5.295712D-01  Symmetry=a
              MO Center=  3.5D-01, -1.7D-01,  3.1D-08, r^2= 5.9D-01
   Bfn.  Coefficient  Atom+Function         Bfn.  Coefficient  Atom+Function  
  ----- ------------  ---------------      ----- ------------  ---------------
     8      0.331798  1 O  px                 5      0.276263  1 O  px         
    46      0.263883  3 H  s                 11      0.191454  1 O  px         
    45      0.184549  3 H  s          

 Vector    6  Occ=2.303033D-02  E=-2.561072D-02  Symmetry=a
              MO Center=  5.1D-01, -2.1D-01,  6.0D-08, r^2= 6.2D-01
   Bfn.  Coefficient  Atom+Function         Bfn.  Coefficient  Atom+Function  
  ----- ------------  ---------------      ----- ------------  ---------------
    46      0.664343  3 H  s                  5     -0.529898  1 O  px         
     8     -0.424001  1 O  px                 2     -0.318381  1 O  s          
    45      0.300376  3 H  s                  4     -0.168607  1 O  s          
     3     -0.166072  1 O  s          

 Vector    7  Occ=1.751802D-02  E=-2.092781D-02  Symmetry=a
              MO Center= -2.0D-02,  4.8D-01,  4.1D-08, r^2= 6.4D-01
   Bfn.  Coefficient  Atom+Function         Bfn.  Coefficient  Atom+Function  
  ----- ------------  ---------------      ----- ------------  ---------------
    32      0.687209  2 H  s                  6     -0.594688  1 O  py         
     9     -0.385798  1 O  py                31      0.295910  2 H  s          
     2     -0.261946  1 O  s                  4     -0.255642  1 O  s          
     3     -0.159054  1 O  s          

 Vector    8  Occ=1.646162D-02  E=-1.599020D-02  Symmetry=a
              MO Center= -2.8D-03,  4.7D-03,  2.0D-07, r^2= 1.1D+00
   Bfn.  Coefficient  Atom+Function         Bfn.  Coefficient  Atom+Function  
  ----- ------------  ---------------      ----- ------------  ---------------
    13      0.757084  1 O  pz                 7     -0.664787  1 O  pz         
    10     -0.287805  1 O  pz         

 Vector    9  Occ=0.000000D+00  E= 2.807883D-01  Symmetry=a
              MO Center=  1.3D-01,  3.5D-01, -1.7D-07, r^2= 4.7D+00
   Bfn.  Coefficient  Atom+Function         Bfn.  Coefficient  Atom+Function  
  ----- ------------  ---------------      ----- ------------  ---------------
     4      2.709538  1 O  s                 33     -1.420518  2 H  s          
    47     -0.915661  3 H  s                 32     -0.764639  2 H  s          
    12      0.726705  1 O  py                11      0.651752  1 O  px         
    38      0.605370  2 H  py                51      0.386508  3 H  px         
    46     -0.283341  3 H  s                 52     -0.154380  3 H  py         

 Vector   10  Occ=0.000000D+00  E= 3.349244D-01  Symmetry=a
              MO Center=  7.0D-01,  1.1D-01, -2.8D-08, r^2= 5.4D+00
   Bfn.  Coefficient  Atom+Function         Bfn.  Coefficient  Atom+Function  
  ----- ------------  ---------------      ----- ------------  ---------------
    47     -2.213087  3 H  s                 33      2.028341  2 H  s          
    12     -0.747554  1 O  py                11      0.499685  1 O  px         
    46      0.370080  3 H  s                 38     -0.344188  2 H  py         
    51      0.332731  3 H  px         

 Vector   11  Occ=0.000000D+00  E= 6.163570D-01  Symmetry=a
              MO Center=  2.5D-01, -5.6D-02,  9.1D-08, r^2= 2.0D+00
   Bfn.  Coefficient  Atom+Function         Bfn.  Coefficient  Atom+Function  
  ----- ------------  ---------------      ----- ------------  ---------------
     4      3.624349  1 O  s                 32     -3.481947  2 H  s          
    12      1.880346  1 O  py                46     -1.524632  3 H  s          
    11      0.966070  1 O  px                38      0.687058  2 H  py         
    51      0.366266  3 H  px                47      0.251283  3 H  s          
     2      0.216492  1 O  s                  9      0.198879  1 O  py         

 Vector   12  Occ=0.000000D+00  E= 6.529249D-01  Symmetry=a
              MO Center= -4.0D-01, -1.7D-02, -2.7D-08, r^2= 2.4D+00
   Bfn.  Coefficient  Atom+Function         Bfn.  Coefficient  Atom+Function  
  ----- ------------  ---------------      ----- ------------  ---------------
    46      2.794069  3 H  s                 11     -2.236527  1 O  px         
    12      2.043542  1 O  py                32     -1.463922  2 H  s          
    33     -0.886939  2 H  s                  4     -0.864985  1 O  s          
    51     -0.836803  3 H  px                47      0.808830  3 H  s          
    38      0.454029  2 H  py                23     -0.324672  1 O  d  2       

 Vector   13  Occ=0.000000D+00  E= 8.096482D-01  Symmetry=a
              MO Center= -1.6D-01, -1.5D-01, -5.1D-08, r^2= 2.1D+00
   Bfn.  Coefficient  Atom+Function         Bfn.  Coefficient  Atom+Function  
  ----- ------------  ---------------      ----- ------------  ---------------
     4      1.765482  1 O  s                 32     -1.594462  2 H  s          
    11      1.573803  1 O  px                12      1.232013  1 O  py         
    46     -1.170373  3 H  s                 37     -1.004811  2 H  px         
    52     -0.971686  3 H  py                38      0.320849  2 H  py         
    19      0.191038  1 O  d -2               2      0.189263  1 O  s          

 Vector   14  Occ=0.000000D+00  E= 8.551585D-01  Symmetry=a
              MO Center=  4.2D-01,  1.3D-01, -9.7D-08, r^2= 1.7D+00
   Bfn.  Coefficient  Atom+Function         Bfn.  Coefficient  Atom+Function  
  ----- ------------  ---------------      ----- ------------  ---------------
    53      0.907408  3 H  pz                39     -0.824226  2 H  pz         

 Vector   15  Occ=0.000000D+00  E= 9.740464D-01  Symmetry=a
              MO Center=  1.4D-02,  7.7D-02, -7.7D-07, r^2= 2.0D+00
   Bfn.  Coefficient  Atom+Function         Bfn.  Coefficient  Atom+Function  
  ----- ------------  ---------------      ----- ------------  ---------------
    13      1.393348  1 O  pz                39     -1.180056  2 H  pz         
    53     -0.926423  3 H  pz         

 Vector   16  Occ=0.000000D+00  E= 1.083480D+00  Symmetry=a
              MO Center= -1.5D-01, -5.7D-02,  4.6D-07, r^2= 2.0D+00
   Bfn.  Coefficient  Atom+Function         Bfn.  Coefficient  Atom+Function  
  ----- ------------  ---------------      ----- ------------  ---------------
     4      7.824409  1 O  s                 32     -4.326065  2 H  s          
    46     -2.382151  3 H  s                 38      1.908535  2 H  py         
    12      1.602805  1 O  py                11      1.054118  1 O  px         
    33     -0.932716  2 H  s                  9      0.908309  1 O  py         
    51      0.895300  3 H  px                52     -0.727161  3 H  py         

 Vector   17  Occ=0.000000D+00  E= 1.203705D+00  Symmetry=a
              MO Center=  2.5D-01,  1.7D-01, -2.0D-09, r^2= 2.1D+00
   Bfn.  Coefficient  Atom+Function         Bfn.  Coefficient  Atom+Function  
  ----- ------------  ---------------      ----- ------------  ---------------
    12     -1.420245  1 O  py                37     -1.334697  2 H  px         
    11      1.301275  1 O  px                46     -1.294423  3 H  s          
    52      0.951103  3 H  py                 4      0.783727  1 O  s          
    32      0.665628  2 H  s                 51      0.655399  3 H  px         
    47     -0.227803  3 H  s                  8      0.211507  1 O  px         

 Vector   18  Occ=0.000000D+00  E= 1.372229D+00  Symmetry=a
              MO Center=  1.2D+00, -5.2D-01, -3.0D-08, r^2= 1.3D+00
   Bfn.  Coefficient  Atom+Function         Bfn.  Coefficient  Atom+Function  
  ----- ------------  ---------------      ----- ------------  ---------------
    51      2.562453  3 H  px                46     -2.190195  3 H  s          
     4      2.008822  1 O  s                 11      1.186589  1 O  px         
    47     -1.113836  3 H  s                 52     -0.874161  3 H  py         
    12     -0.823153  1 O  py                 8      0.762905  1 O  px         
    32      0.683618  2 H  s                  9     -0.590466  1 O  py         


 Wrote Lagrangian and 1- and 2-particle density matrices to ./H2O.mcpdm


     Multipole analysis of the density
     ---------------------------------

     L   x y z        total        nuclear
     -   - - -        -----        -------
     0   0 0 0     -0.000000     10.000000

     1   1 0 0      0.593438     -0.000000
     1   0 1 0      0.362486      0.000000
     1   0 0 1     -0.000000      0.000000

     2   2 0 0     -4.026061      2.679864
     2   1 1 0     -0.787228     -1.285629
     2   1 0 1      0.000000      0.000000
     2   0 2 0     -3.678557      2.929501
     2   0 1 1      0.000000      0.000000
     2   0 0 2     -5.413717      0.000000


  Mulliken analysis of the total density
  --------------------------------------

    Atom       Charge   Shell Charges
 -----------   ------   -------------------------------------------------------
    1 O    8     8.44   1.95  0.99  0.23  0.59  1.32  2.10  1.26  0.00  0.01  0.00
    2 H    1     0.80   0.31  0.36  0.02  0.03  0.07  0.01
    3 H    1     0.76   0.25  0.38  0.05  0.02  0.06  0.01

    Mulliken analysis of the active space density
    ---------------------------------------------

    Atom       Charge   Shell Charges
 -----------   ------   -------------------------------------------------------
    1 O    8     8.44   1.95  0.99  0.23  0.59  1.32  2.10  1.26  0.00  0.01  0.00
    2 H    1     0.80   0.31  0.36  0.02  0.03  0.07  0.01
    3 H    1     0.76   0.25  0.38  0.05  0.02  0.06  0.01

 Parallel integral file used      16 records with       0 large values


 Task  times  cpu:       18.3s     wall:       31.0s


                                NWChem Input Module
                                -------------------


                                 NWChem SCF Module
                                 -----------------


                                        H2O



  ao basis        = "ao basis"
  functions       =    58
  atoms           =     3
  closed shells   =     5
  open shells     =     0
  charge          =   0.00
  wavefunction    = RHF 
  input vectors   = ./h2o.mos
  output vectors  = ./h2o-trash.mos
  use symmetry    = F
  symmetry adapt  = F


 Summary of "ao basis" -> "ao basis" (spherical)
 ------------------------------------------------------------------------------
       Tag                 Description            Shells   Functions and Types
 ---------------- ------------------------------  ------  ---------------------
 O                          cc-pVTZ                 10       30   4s3p2d1f
 H                          cc-pVTZ                  6       14   3s2p1d



 Forming initial guess at      31.1s


 Loading old vectors from job with title :

H2O


 Starting SCF solution at      31.1s



 ----------------------------------------------
         Quadratically convergent ROHF

 Convergence threshold     :          1.000E-04
 Maximum no. of iterations :           30
 Final Fock-matrix accuracy:          1.000E-07
 ----------------------------------------------


 Integral file          = ./H2O.aoints.0
 Record size in doubles =  65536        No. of integs per rec  =  43688
 Max. records in memory =     49        Max. records in file   = 252513
 No. of bits per label  =      8        No. of bits per value  =     64


 #quartets = 3.213D+04 #integrals = 6.608D+05 #direct =  0.0% #cached =100.0%



       Final RHF  results 
       ------------------ 

         Total SCF energy =    -76.044671999074
      One-electron energy =   -123.893676169782
      Two-electron energy =     38.198144513605
 Nuclear repulsion energy =      9.650859657103

        Time for solution =      0.3s


             Final eigenvalues
             -----------------

              1      
    1  -20.5336
    2   -1.3778
    3   -0.7709
    4   -0.5911
    5   -0.5296
    6   -0.0256
    7   -0.0209
    8   -0.0160
    9    0.2808
   10    0.3349
   11    0.6164
   12    0.6529
   13    0.8096
   14    0.8552
   15    0.9740

                       ROHF Final Molecular Orbital Analysis
                       -------------------------------------

 Vector    2  Occ=2.000000D+00  E=-1.377827D+00
              MO Center= -3.1D-01, -1.8D-01, -2.3D-07, r^2= 4.2D-01
   Bfn.  Coefficient  Atom+Function         Bfn.  Coefficient  Atom+Function  
  ----- ------------  ---------------      ----- ------------  ---------------
     2      0.504621  1 O  s                  4      0.379442  1 O  s          

 Vector    3  Occ=2.000000D+00  E=-7.708587D-01
              MO Center= -6.4D-02, -2.9D-02,  2.8D-07, r^2= 6.5D-01
   Bfn.  Coefficient  Atom+Function         Bfn.  Coefficient  Atom+Function  
  ----- ------------  ---------------      ----- ------------  ---------------
    10      0.429402  1 O  pz                13      0.384294  1 O  pz         
     7      0.358186  1 O  pz         

 Vector    4  Occ=2.000000D+00  E=-5.911206D-01
              MO Center= -4.1D-02,  3.3D-01, -5.1D-08, r^2= 5.4D-01
   Bfn.  Coefficient  Atom+Function         Bfn.  Coefficient  Atom+Function  
  ----- ------------  ---------------      ----- ------------  ---------------
     9      0.330423  1 O  py                 6      0.292598  1 O  py         
    32      0.261804  2 H  s                 31      0.204786  2 H  s          
    12      0.171663  1 O  py         

 Vector    5  Occ=2.000000D+00  E=-5.295712D-01
              MO Center=  3.5D-01, -1.7D-01,  3.1D-08, r^2= 5.9D-01
   Bfn.  Coefficient  Atom+Function         Bfn.  Coefficient  Atom+Function  
  ----- ------------  ---------------      ----- ------------  ---------------
     8      0.331798  1 O  px                 5      0.276263  1 O  px         
    46      0.263883  3 H  s                 11      0.191454  1 O  px         
    45      0.184549  3 H  s          

 Vector    6  Occ=0.000000D+00  E=-2.561072D-02
              MO Center=  5.1D-01, -2.1D-01,  6.0D-08, r^2= 6.2D-01
   Bfn.  Coefficient  Atom+Function         Bfn.  Coefficient  Atom+Function  
  ----- ------------  ---------------      ----- ------------  ---------------
    46      0.664343  3 H  s                  5     -0.529898  1 O  px         
     8     -0.424001  1 O  px                 2     -0.318381  1 O  s          
    45      0.300376  3 H  s                  4     -0.168607  1 O  s          
     3     -0.166072  1 O  s          

 Vector    7  Occ=0.000000D+00  E=-2.092781D-02
              MO Center= -2.0D-02,  4.8D-01,  4.1D-08, r^2= 6.4D-01
   Bfn.  Coefficient  Atom+Function         Bfn.  Coefficient  Atom+Function  
  ----- ------------  ---------------      ----- ------------  ---------------
    32      0.687209  2 H  s                  6     -0.594688  1 O  py         
     9     -0.385798  1 O  py                31      0.295910  2 H  s          
     2     -0.261946  1 O  s                  4     -0.255642  1 O  s          
     3     -0.159054  1 O  s          

 Vector    8  Occ=0.000000D+00  E=-1.599020D-02
              MO Center= -2.8D-03,  4.7D-03,  2.0D-07, r^2= 1.1D+00
   Bfn.  Coefficient  Atom+Function         Bfn.  Coefficient  Atom+Function  
  ----- ------------  ---------------      ----- ------------  ---------------
    13      0.757084  1 O  pz                 7     -0.664787  1 O  pz         
    10     -0.287805  1 O  pz         

 Vector    9  Occ=0.000000D+00  E= 2.807883D-01
              MO Center=  1.3D-01,  3.5D-01, -1.7D-07, r^2= 4.7D+00
   Bfn.  Coefficient  Atom+Function         Bfn.  Coefficient  Atom+Function  
  ----- ------------  ---------------      ----- ------------  ---------------
     4      2.709538  1 O  s                 33     -1.420518  2 H  s          
    47     -0.915661  3 H  s                 32     -0.764639  2 H  s          
    12      0.726705  1 O  py                11      0.651752  1 O  px         
    38      0.605370  2 H  py                51      0.386508  3 H  px         
    46     -0.283341  3 H  s                 52     -0.154380  3 H  py         

 Vector   10  Occ=0.000000D+00  E= 3.349244D-01
              MO Center=  7.0D-01,  1.1D-01, -2.8D-08, r^2= 5.4D+00
   Bfn.  Coefficient  Atom+Function         Bfn.  Coefficient  Atom+Function  
  ----- ------------  ---------------      ----- ------------  ---------------
    47     -2.213087  3 H  s                 33      2.028341  2 H  s          
    12     -0.747554  1 O  py                11      0.499685  1 O  px         
    46      0.370080  3 H  s                 38     -0.344188  2 H  py         
    51      0.332731  3 H  px         

 Vector   11  Occ=0.000000D+00  E= 6.163570D-01
              MO Center=  2.5D-01, -5.6D-02,  9.1D-08, r^2= 2.0D+00
   Bfn.  Coefficient  Atom+Function         Bfn.  Coefficient  Atom+Function  
  ----- ------------  ---------------      ----- ------------  ---------------
     4      3.624349  1 O  s                 32     -3.481947  2 H  s          
    12      1.880346  1 O  py                46     -1.524632  3 H  s          
    11      0.966070  1 O  px                38      0.687058  2 H  py         
    51      0.366266  3 H  px                47      0.251283  3 H  s          
     2      0.216492  1 O  s                  9      0.198879  1 O  py         

 Vector   12  Occ=0.000000D+00  E= 6.529249D-01
              MO Center= -4.0D-01, -1.7D-02, -2.7D-08, r^2= 2.4D+00
   Bfn.  Coefficient  Atom+Function         Bfn.  Coefficient  Atom+Function  
  ----- ------------  ---------------      ----- ------------  ---------------
    46      2.794069  3 H  s                 11     -2.236527  1 O  px         
    12      2.043542  1 O  py                32     -1.463922  2 H  s          
    33     -0.886939  2 H  s                  4     -0.864985  1 O  s          
    51     -0.836803  3 H  px                47      0.808830  3 H  s          
    38      0.454029  2 H  py                23     -0.324672  1 O  d  2       

 Vector   13  Occ=0.000000D+00  E= 8.096482D-01
              MO Center= -1.6D-01, -1.5D-01, -5.1D-08, r^2= 2.1D+00
   Bfn.  Coefficient  Atom+Function         Bfn.  Coefficient  Atom+Function  
  ----- ------------  ---------------      ----- ------------  ---------------
     4      1.765482  1 O  s                 32     -1.594462  2 H  s          
    11      1.573803  1 O  px                12      1.232013  1 O  py         
    46     -1.170373  3 H  s                 37     -1.004811  2 H  px         
    52     -0.971686  3 H  py                38      0.320849  2 H  py         
    19      0.191038  1 O  d -2               2      0.189263  1 O  s          

 Vector   14  Occ=0.000000D+00  E= 8.551585D-01
              MO Center=  4.2D-01,  1.3D-01, -9.7D-08, r^2= 1.7D+00
   Bfn.  Coefficient  Atom+Function         Bfn.  Coefficient  Atom+Function  
  ----- ------------  ---------------      ----- ------------  ---------------
    53      0.907408  3 H  pz                39     -0.824226  2 H  pz         

 Vector   15  Occ=0.000000D+00  E= 9.740464D-01
              MO Center=  1.4D-02,  7.7D-02, -7.7D-07, r^2= 2.0D+00
   Bfn.  Coefficient  Atom+Function         Bfn.  Coefficient  Atom+Function  
  ----- ------------  ---------------      ----- ------------  ---------------
    13      1.393348  1 O  pz                39     -1.180056  2 H  pz         
    53     -0.926423  3 H  pz         


 center of mass
 --------------
 x =  -0.07599894 y =  -0.04247546 z =   0.00000000

 moments of inertia (a.u.)
 ------------------
           2.993709117288           1.221821069520           0.000000000000
           1.221821069520           2.833002082974           0.000000000000
           0.000000000000           0.000000000000           5.826711200262

  Mulliken analysis of the total density
  --------------------------------------

    Atom       Charge   Shell Charges
 -----------   ------   -------------------------------------------------------
    1 O    8     8.45   1.95  0.99  0.23  0.59  1.31  2.11  1.26  0.00  0.01  0.00
    2 H    1     0.80   0.31  0.36  0.02  0.03  0.07  0.01
    3 H    1     0.76   0.25  0.38  0.05  0.02  0.06  0.01

       Multipole analysis of the density wrt the origin
       ------------------------------------------------

     L   x y z        total         open         nuclear
     -   - - -        -----         ----         -------
     0   0 0 0     -0.000000      0.000000     10.000000

     1   1 0 0      0.603925      0.000000     -0.000000
     1   0 1 0      0.367132      0.000000      0.000000
     1   0 0 1     -0.000000      0.000000      0.000000

     2   2 0 0     -4.004402      0.000000      2.679864
     2   1 1 0     -0.792811      0.000000     -1.285629
     2   1 0 1     -0.000000      0.000000      0.000000
     2   0 2 0     -3.657953      0.000000      2.929501
     2   0 1 1      0.000000      0.000000      0.000000
     2   0 0 2     -5.397778      0.000000      0.000000


 Parallel integral file used      16 records with       0 large values

                   NWChem Extensible Many-Electron Theory Module
                   ---------------------------------------------

              ======================================================
                   This portion of the program was automatically
                  generated by a Tensor Contraction Engine (TCE).
                  The development of this portion of the program
                 and TCE was supported by US Department of Energy,
                Office of Science, Office of Basic Energy Science.
                      TCE is a product of Battelle and PNNL.
              Please cite: S.Hirata, J.Phys.Chem.A 107, 9887 (2003).
              ======================================================

                                        H2O


            General Information
            -------------------
      Number of processors :     1
         Wavefunction type : Restricted Hartree-Fock
          No. of electrons :    10
           Alpha electrons :     5
            Beta electrons :     5
           No. of orbitals :   116
            Alpha orbitals :    58
             Beta orbitals :    58
        Alpha frozen cores :     0
         Beta frozen cores :     0
     Alpha frozen virtuals :     0
      Beta frozen virtuals :     0
         Spin multiplicity : singlet 
    Number of AO functions :    58
       Number of AO shells :    22
        Use of symmetry is : off
      Symmetry adaption is : off
         Schwarz screening : 0.10D-09

          Correlation Information
          -----------------------
          Calculation type : Coupled-cluster singles & doubles                           
   Perturbative correction : none                                                        
            Max iterations :      100
        Residual threshold : 0.10D-06
     T(0) DIIS level shift : 0.00D+00
     L(0) DIIS level shift : 0.00D+00
     T(1) DIIS level shift : 0.00D+00
     L(1) DIIS level shift : 0.00D+00
     T(R) DIIS level shift : 0.00D+00
     T(I) DIIS level shift : 0.00D+00
   CC-T/L Amplitude update :  5-th order DIIS
                I/O scheme : Global Array Library
        L-threshold :  0.10D-06
        EOM-threshold :  0.10D-06
 no EOMCCSD initial starts read in
 TCE RESTART OPTIONS
 READ_INT:   F
 WRITE_INT:  F
 READ_TA:    F
 WRITE_TA:   F
 READ_XA:    F
 WRITE_XA:   F
 READ_IN3:   F
 WRITE_IN3:  F
 SLICE:      F
 D4D5:       F
 quantumc:   F
 qrotation:  F
 pwtce:      F
 qducc:      T
 nacto:                         0
 nrotv:                         0
 nrot:                          0

            Memory Information
            ------------------
          Available GA space size is    1610609372 doubles
          Available MA space size is    1610609780 doubles

 Maximum block size        32 doubles

 tile_dim =     27

 Block   Spin    Irrep     Size     Offset   Alpha
 -------------------------------------------------
   1    alpha     a      5 doubles       0       1
   2    beta      a      5 doubles       5       1
   3    alpha     a     26 doubles      10       3
   4    alpha     a     27 doubles      36       4
   5    beta      a     26 doubles      63       3
   6    beta      a     27 doubles      89       4

 Global array virtual files algorithm will be used

 Parallel file system coherency ......... OK

 Integral file          = ./H2O.aoints.0
 Record size in doubles =  65536        No. of integs per rec  =  43688
 Max. records in memory =     49        Max. records in file   = 252513
 No. of bits per label  =      8        No. of bits per value  =     64


 #quartets = 3.213D+04 #integrals = 6.608D+05 #direct =  0.0% #cached =100.0%


 Fock matrix recomputed
 1-e file size   =             3364
 1-e file name   = ./H2O.f1
 Cpu & wall time / sec            0.3            0.3
 4-electron integrals stored in orbital form

 v2    file size   =          3631290
 4-index algorithm nr.  13 is used
 imaxsize =       30
 imaxsize ichop =        0
 Cpu & wall time / sec            4.1            4.1
 T1-number-of-tasks                    2

 t1 file size   =              265
 t1 file name   = ./H2O.t1
 t1 file handle =       -998
 T2-number-of-boxes                    7

 t2 file size   =           122900
 t2 file name   = ./H2O.t2
 t2 file handle =       -996
CCSD iterations
 ---------------------------------------------------------
 Iter          Residuum       Correlation     Cpu    Wall 
 ---------------------------------------------------------
NEW TASK SCHEDULING
CCSD_T1_NTS --- OK
CCSD_T2_NTS --- OK
    1   1.2605555772479  -0.4452951228358     0.6     0.6
    2   2.5453368828941   0.0995319572991     0.6     0.6
    3   5.5391931558367  -1.0475120705313     0.6     0.6
    4  12.6459403724450   1.3752986939885     0.6     0.6
    5  13.8163217822940  -3.2151374196511     0.6     0.6
 MICROCYCLE DIIS UPDATE:                    5                    5
    6   0.1113634450626  -0.2694472191204     0.6     0.6
    7   0.1328179009898  -0.2851751450422     0.6     0.6
    8   0.3065885791315  -0.2460351213065     0.6     0.6
    9   0.7374483363941  -0.3070596067730     0.6     0.6
   10   1.7798263630553   0.1106768030892     0.6     0.6
 MICROCYCLE DIIS UPDATE:                   10                    5
   11   0.0140253436279  -0.2786537843895     0.6     0.6
   12   0.0127970966128  -0.2779957951387     0.6     0.6
   13   0.0281367030813  -0.2809841738219     0.6     0.6
   14   0.0715676498533  -0.2723020467151     0.6     0.6
   15   0.1823575408344  -0.2909608736887     0.6     0.6
 MICROCYCLE DIIS UPDATE:                   15                    5
   16   0.0010172909794  -0.2789677049189     0.6     0.6
   17   0.0011874915419  -0.2788513535343     0.6     0.6
   18   0.0026260376385  -0.2791994631869     0.6     0.6
   19   0.0066457799277  -0.2783029825375     0.6     0.6
   20   0.0168523340651  -0.2805778226899     0.6     0.6
 MICROCYCLE DIIS UPDATE:                   20                    5
   21   0.0001097373204  -0.2789577073933     0.6     0.6
   22   0.0001121087732  -0.2789511939230     0.6     0.6
   23   0.0001934427243  -0.2789669484429     0.6     0.6
   24   0.0004087420227  -0.2789286581400     0.6     0.6
   25   0.0009023662199  -0.2790200313757     0.6     0.6
 MICROCYCLE DIIS UPDATE:                   25                    5
   26   0.0000213522197  -0.2789556945513     0.6     0.6
   27   0.0000225804376  -0.2789552204785     0.6     0.6
   28   0.0000455092115  -0.2789580012914     0.6     0.6
   29   0.0001098574372  -0.2789499346969     0.6     0.7
   30   0.0002708596517  -0.2789722636575     0.6     0.6
 MICROCYCLE DIIS UPDATE:                   30                    5
   31   0.0000036906040  -0.2789560588525     0.6     0.6
   32   0.0000034781791  -0.2789557106367     0.6     0.6
   33   0.0000062750841  -0.2789564402361     0.6     0.6
   34   0.0000139696979  -0.2789547301285     0.6     0.6
   35   0.0000316801979  -0.2789587552674     0.6     0.6
 MICROCYCLE DIIS UPDATE:                   35                    5
   36   0.0000007534433  -0.2789559391158     0.6     0.6
   37   0.0000008849763  -0.2789559156396     0.6     0.6
   38   0.0000018398685  -0.2789560281913     0.6     0.6
   39   0.0000044470437  -0.2789556824793     0.6     0.6
   40   0.0000109651131  -0.2789566686491     0.6     0.6
 MICROCYCLE DIIS UPDATE:                   40                    5
   41   0.0000001353462  -0.2789559445395     0.5     0.6
   42   0.0000001078473  -0.2789559344215     0.6     0.6
   43   0.0000001744645  -0.2789559559002     0.6     0.6
   44   0.0000003848013  -0.2789559060277     0.6     0.6
   45   0.0000008759818  -0.2789560236280     0.6     0.6
 MICROCYCLE DIIS UPDATE:                   45                    5
   46   0.0000000255904  -0.2789559416718     0.6     0.6
 -----------------------------------------------------------------
 Iterations converged
 CCSD correlation energy / hartree =        -0.278955941671824
 CCSD total energy / hartree       =       -76.323627940746320

 Singles contributions

 Doubles contributions
     6a   (alpha)     7a   (alpha) ---     4a   (alpha)     5a   (alpha)        0.0204389355
     6a   (alpha)     7a   (alpha) ---     5a   (alpha)     4a   (alpha)       -0.0204389355
     6a   (alpha)     8a   (alpha) ---     3a   (alpha)     5a   (alpha)        0.0261593669
     6a   (alpha)     8a   (alpha) ---     5a   (alpha)     3a   (alpha)       -0.0261593669
     7a   (alpha)     6a   (alpha) ---     4a   (alpha)     5a   (alpha)       -0.0204389355
     7a   (alpha)     6a   (alpha) ---     5a   (alpha)     4a   (alpha)        0.0204389355
     7a   (alpha)     8a   (alpha) ---     3a   (alpha)     4a   (alpha)        0.0249898481
     7a   (alpha)     8a   (alpha) ---     4a   (alpha)     3a   (alpha)       -0.0249898481
     8a   (alpha)     6a   (alpha) ---     3a   (alpha)     5a   (alpha)       -0.0261593669
     8a   (alpha)     6a   (alpha) ---     5a   (alpha)     3a   (alpha)        0.0261593669
     8a   (alpha)     7a   (alpha) ---     3a   (alpha)     4a   (alpha)       -0.0249898481
     8a   (alpha)     7a   (alpha) ---     4a   (alpha)     3a   (alpha)        0.0249898481
     6a   (alpha)     6a   (beta ) ---     5a   (alpha)     5a   (beta )       -0.0792202876
     6a   (alpha)     7a   (beta ) ---     5a   (alpha)     4a   (beta )       -0.0294794508
     6a   (alpha)     8a   (beta ) ---     5a   (alpha)     3a   (beta )       -0.0359422380
     7a   (alpha)     6a   (beta ) ---     4a   (alpha)     5a   (beta )       -0.0294794508
     7a   (alpha)     7a   (beta ) ---     4a   (alpha)     4a   (beta )       -0.0622903865
     7a   (alpha)     8a   (beta ) ---     4a   (alpha)     3a   (beta )       -0.0339107112
     8a   (alpha)     6a   (beta ) ---     3a   (alpha)     5a   (beta )       -0.0359422380
     8a   (alpha)     7a   (beta ) ---     3a   (alpha)     4a   (beta )       -0.0339107112
     8a   (alpha)     8a   (beta ) ---     3a   (alpha)     3a   (beta )       -0.0520846672
     8a   (alpha)    16a   (beta ) ---     3a   (alpha)     2a   (beta )       -0.0219601003
    16a   (alpha)     8a   (beta ) ---     2a   (alpha)     3a   (beta )       -0.0219601003
 Ground state specification:
 exp(T)|Ref>~(1+T)|Ref>
 ------- a(p)+/a(q) strings ----------

 singles norm

 doubles norm

 Reference string
   1.0000000000000000      :(1a)+ (2a)+ (3a)+ (4a)+ (5a)+ (1b)+ (2b)+ (3b)+ (4b)+ (5b)+ |0>

 Singles strings

 Doubles strings
 -------------------------------------
 enrep_tce =    9.6508596571027585     
  EHF(total)         =       -76.04467200
  Shift (HFtot-HFA)  =         0.00000000
 ALL OCCUPIED ORBITALS ARE ACTIVE IN DUCC --> NO SHIFT
 Number of active orbitals                    8
 Number of active alpha electrons                    5
 Number of active beta electrons                    5
  nos                    10
  nvs                   106
 noas                     5
 nobs                     5
 nvas                    53
 nvbs                    53
 nactv                     3
 DUCC MODEL =                     3
 NONHF =  T
 F-T1 correlation    =   -3.9504995264777981E-005
 V-T1-T1 correlation =    5.7803574431819347E-006
 V-T2 correlation    =  -0.27892221703403319     
 Total correlation   =  -0.27895594167185478     
 F-T1(Ext) correlation         =   -4.9332969087416855E-005
 V-T1(Ext)-T1(Ext) correlation =    1.6494693051061946E-006
 V-T2(Ext) correlation         =  -0.19611492043027676     
 Total Ext correlation         =  -0.19616260393005908     
1-BODY TIME =    2.172 SECONDS.
  HHHH TIME =   12.439 SECONDS.
  PPPP TIME =    0.000 SECONDS.
  HHHP TIME =    3.482 SECONDS.
  PPPH TIME =    0.491 SECONDS.
  HPHP TIME =    0.249 SECONDS.
  HHPP TIME =    1.740 SECONDS.
 ONE-BODY UNITARY CHECK
 TWO-BODY UNITARY CHECK
 TWO-BODY ANTISYMMETRY CHECK
 TRANSFORMED ~FOCK~ MATRIX
    1    1       -20.2892341733
    1    2        -2.2615488704
    1    3        -0.0000000581
    1    4         0.0490073143
    1    5         0.0325389444
    1    6         0.0023697476
    1    7         0.0021359333
    1    8         0.0000000024
    2    1        -2.2615488704
    2    2        -1.4190761071
    2    3        -0.0000002646
    2    4        -0.2691815804
    2    5        -0.2395901311
    2    6         0.0016722272
    2    7         0.0009540763
    2    8        -0.0000000019
    3    1        -0.0000000581
    3    2        -0.0000002646
    3    3        -0.5566949406
    3    4        -0.0000001867
    3    5        -0.0000000646
    3    6         0.0000000072
    3    7        -0.0000000080
    3    8         0.0088259476
    4    1         0.0490073143
    4    2        -0.2691815804
    4    3        -0.0000001867
    4    4        -0.8646056930
    4    5        -0.0443467289
    4    6         0.0017849871
    4    7         0.0017039120
    4    8        -0.0000000010
    5    1         0.0325389444
    5    2        -0.2395901311
    5    3        -0.0000000646
    5    4        -0.0443467289
    5    5        -0.8188074813
    5    6         0.0016571061
    5    7         0.0018880621
    5    8         0.0000000046
    6    1         0.0023697476
    6    2         0.0016722272
    6    3         0.0000000072
    6    4         0.0017849871
    6    5         0.0016571061
    6    6         0.8427528549
    6    7         0.0056255551
    6    8        -0.0000000117
    7    1         0.0021359333
    7    2         0.0009540763
    7    3        -0.0000000080
    7    4         0.0017039120
    7    5         0.0018880621
    7    6         0.0056255551
    7    7         1.0473180811
    7    8         0.0000000118
    8    1         0.0000000024
    8    2        -0.0000000019
    8    3         0.0088259476
    8    4        -0.0000000010
    8    5         0.0000000046
    8    6        -0.0000000117
    8    7         0.0000000118
    8    8         1.2017180829
 begin_one_electron_integrals
    1    1       -32.8694999531
    1    2        -2.3832962246
    1    3         0.0000001500
    1    4         0.1860423697
    1    5         0.1778134010
    1    6        -0.2348293312
    1    7        -0.1996835021
    1    8        -0.0000001549
    2    1        -2.3832962246
    2    2        -7.9980776826
    2    3        -0.0000002975
    2    4        -0.2735536011
    2    5        -0.2418117741
    2    6         0.0628846746
    2    7         0.0522026910
    2    8        -0.0000000898
    3    1         0.0000001500
    3    2        -0.0000002975
    3    3        -7.0628895105
    3    4        -0.0000001271
    3    5        -0.0000001395
    3    6         0.0000001465
    3    7         0.0000008898
    3    8         2.1528108150
    4    1         0.1860423697
    4    2        -0.2735536011
    4    3        -0.0000001271
    4    4        -7.1393472944
    4    5        -0.1151745991
    4    6         0.1127518180
    4    7         1.9992483384
    4    8        -0.0000009988
    5    1         0.1778134010
    5    2        -0.2418117741
    5    3        -0.0000001395
    5    4        -0.1151745991
    5    5        -6.8622414097
    5    6         2.0163338428
    5    7        -0.0853233151
    5    8        -0.0000001460
    6    1        -0.2348293312
    6    2         0.0628846746
    6    3         0.0000001465
    6    4         0.1127518180
    6    5         2.0163338428
    6    6        -6.2534179624
    6    7         0.0509043510
    6    8         0.0000001531
    7    1        -0.1996835021
    7    2         0.0522026910
    7    3         0.0000008898
    7    4         1.9992483384
    7    5        -0.0853233151
    7    6         0.0509043510
    7    7        -6.2459655522
    7    8         0.0000000161
    8    1        -0.0000001549
    8    2        -0.0000000898
    8    3         2.1528108150
    8    4        -0.0000009988
    8    5        -0.0000001460
    8    6         0.0000001531
    8    7         0.0000000161
    8    8        -5.6427293883
 end_one_electron_integrals
 begin_two_electron_integrals
    1    1    1    1        4.8299273976
    1    1    1    2        0.0041353723
    1    1    1    3       -0.0000001562
    1    1    1    4       -0.1003991372
    1    1    1    5       -0.1051959641
    1    1    1    6        0.1898223770
    1    1    1    7        0.1680631859
    1    1    1    8        0.0000001270
    1    2    1    1        0.0041353723
    1    2    1    2        0.0114207484
    1    2    1    3       -0.0000000024
    1    2    1    4       -0.0022845626
    1    2    1    5       -0.0021218727
    1    2    1    6        0.0015640076
    1    2    1    7        0.0015485749
    1    2    1    8        0.0000000022
    1    3    1    1       -0.0000001562
    1    3    1    2       -0.0000000024
    1    3    1    3        0.0227772741
    1    3    1    4        0.0000000020
    1    3    1    5        0.0000000046
    1    3    1    6       -0.0000000093
    1    3    1    7       -0.0000000200
    1    3    1    8       -0.0368396882
    1    4    1    1       -0.1003991372
    1    4    1    2       -0.0022845626
    1    4    1    3        0.0000000020
    1    4    1    4        0.0202019546
    1    4    1    5        0.0035218545
    1    4    1    6       -0.0068370257
    1    4    1    7       -0.0355169484
    1    4    1    8        0.0000000131
    1    5    1    1       -0.1051959641
    1    5    1    2       -0.0021218727
    1    5    1    3        0.0000000046
    1    5    1    4        0.0035218545
    1    5    1    5        0.0188965806
    1    5    1    6       -0.0331449135
    1    5    1    7       -0.0035431588
    1    5    1    8       -0.0000000009
    1    6    1    1        0.1898223770
    1    6    1    2        0.0015640076
    1    6    1    3       -0.0000000093
    1    6    1    4       -0.0068370257
    1    6    1    5       -0.0331449135
    1    6    1    6        0.0565512363
    1    6    1    7        0.0071285700
    1    6    1    8        0.0000000022
    1    7    1    1        0.1680631859
    1    7    1    2        0.0015485749
    1    7    1    3       -0.0000000200
    1    7    1    4       -0.0355169484
    1    7    1    5       -0.0035431588
    1    7    1    6        0.0071285700
    1    7    1    7        0.0606236344
    1    7    1    8        0.0000000042
    1    8    1    1        0.0000001270
    1    8    1    2        0.0000000022
    1    8    1    3       -0.0368396882
    1    8    1    4        0.0000000131
    1    8    1    5       -0.0000000009
    1    8    1    6        0.0000000022
    1    8    1    7        0.0000000042
    1    8    1    8        0.0556356085
    1    1    2    1        0.0041353723
    1    1    2    2        1.0482857455
    1    1    2    3        0.0000000080
    1    1    2    4       -0.0116597882
    1    1    2    5       -0.0065377010
    1    1    2    6       -0.0071549182
    1    1    2    7       -0.0049490646
    1    1    2    8        0.0000000177
    1    2    2    1        0.0142203660
    1    2    2    2        0.0272364637
    1    2    2    3       -0.0000000016
    1    2    2    4       -0.0017761638
    1    2    2    5       -0.0014122142
    1    2    2    6        0.0023757262
    1    2    2    7        0.0023886441
    1    2    2    8        0.0000000033
    1    3    2    1       -0.0000000028
    1    3    2    2       -0.0000000174
    1    3    2    3        0.0179129211
    1    3    2    4       -0.0000000026
    1    3    2    5       -0.0000000009
    1    3    2    6        0.0000000026
    1    3    2    7       -0.0000000042
    1    3    2    8       -0.0192011456
    1    4    2    1       -0.0025174880
    1    4    2    2       -0.0119377154
    1    4    2    3       -0.0000000036
    1    4    2    4        0.0128729674
    1    4    2    5       -0.0001780587
[...]
    8    1    3    4       -0.0077331242
    8    1    3    5       -0.0084896719
    8    1    3    6        0.0101802573
    8    1    3    7        0.0088462091
    8    1    3    8        0.0000000148
    8    2    3    1       -0.0192011456
    8    2    3    2       -0.0510735742
    8    2    3    3       -0.0000000239
    8    2    3    4       -0.0051377721
    8    2    3    5       -0.0064930474
    8    2    3    6        0.0127774432
    8    2    3    7        0.0109782918
    8    2    3    8        0.0000000200
    8    3    3    1       -0.0000000074
    8    3    3    2       -0.0000000322
    8    3    3    3       -0.2000860504
    8    3    3    4        0.0000000098
    8    3    3    5       -0.0000000098
    8    3    3    6        0.0000000177
    8    3    3    7        0.0000000698
    8    3    3    8        0.1634985594
    8    4    3    1       -0.0032371221
    8    4    3    2       -0.0008215327
    8    4    3    3        0.0000000846
    8    4    3    4       -0.0068081988
    8    4    3    5       -0.0005062294
    8    4    3    6        0.0025697770
    8    4    3    7        0.0179255364
    8    4    3    8       -0.0000000627
    8    5    3    1       -0.0036679815
    8    5    3    2       -0.0017442497
    8    5    3    3        0.0000000087
    8    5    3    4       -0.0005083250
    8    5    3    5       -0.0054018726
    8    5    3    6        0.0175432335
    8    5    3    7        0.0011089953
    8    5    3    8       -0.0000000043
    8    6    3    1        0.0072416498
    8    6    3    2        0.0273868644
    8    6    3    3        0.0000000139
    8    6    3    4        0.0070894808
    8    6    3    5        0.0300724498
    8    6    3    6       -0.0192373792
    8    6    3    7       -0.0027374023
    8    6    3    8       -0.0000000006
    8    7    3    1        0.0063502264
    8    7    3    2        0.0238609825
    8    7    3    3        0.0000000415
    8    7    3    4        0.0302255296
    8    7    3    5        0.0046370009
    8    7    3    6       -0.0028375995
    8    7    3    7       -0.0174890831
    8    7    3    8       -0.0000000095
    8    8    3    1        0.0000000047
    8    8    3    2        0.0000000551
    8    8    3    3        0.6653080425
    8    8    3    4       -0.0000000162
    8    8    3    5        0.0000000181
    8    8    3    6       -0.0000000191
    8    8    3    7       -0.0000000793
    8    8    3    8       -0.1940176910
    8    1    4    1        0.0000000131
    8    1    4    2        0.0000000193
    8    1    4    3       -0.0076371908
    8    1    4    4        0.0000000112
    8    1    4    5        0.0000000049
    8    1    4    6       -0.0000000062
    8    1    4    7       -0.0000000057
    8    1    4    8        0.0039822811
    8    2    4    1        0.0000000099
    8    2    4    2        0.0000000253
    8    2    4    3       -0.0047593523
    8    2    4    4        0.0000000135
    8    2    4    5        0.0000000023
    8    2    4    6       -0.0000000074
    8    2    4    7       -0.0000000085
    8    2    4    8        0.0037878973
    8    3    4    1        0.0033568967
    8    3    4    2        0.0049607055
    8    3    4    3        0.0000000103
    8    3    4    4       -0.1537181462
    8    3    4    5       -0.0028599335
    8    3    4    6        0.0068983084
    8    3    4    7        0.1236624365
    8    3    4    8       -0.0000000627
    8    4    4    1       -0.0000000019
    8    4    4    2        0.0000000023
    8    4    4    3       -0.0061212038
    8    4    4    4        0.0000000857
    8    4    4    5        0.0000000019
    8    4    4    6       -0.0000000041
    8    4    4    7       -0.0000000601
    8    4    4    8        0.0168007924
    8    5    4    1        0.0000000015
    8    5    4    2       -0.0000000012
    8    5    4    3       -0.0005069573
    8    5    4    4        0.0000000098
    8    5    4    5        0.0000000026
    8    5    4    6       -0.0000000082
    8    5    4    7       -0.0000000095
    8    5    4    8        0.0016887160
    8    6    4    1       -0.0000000031
    8    6    4    2       -0.0000000148
    8    6    4    3        0.0072507957
    8    6    4    4       -0.0000000179
    8    6    4    5       -0.0000000132
    8    6    4    6        0.0000000085
    8    6    4    7        0.0000000068
    8    6    4    8       -0.0008083526
    8    7    4    1        0.0000000011
    8    7    4    2       -0.0000000045
    8    7    4    3        0.0296853528
    8    7    4    4       -0.0000000182
    8    7    4    5       -0.0000000025
    8    7    4    6        0.0000000017
    8    7    4    7        0.0000000046
    8    7    4    8       -0.0082958249
    8    8    4    1       -0.0059304625
    8    8    4    2        0.0061445846
    8    8    4    3       -0.0000000162
    8    8    4    4        0.5944027789
    8    8    4    5        0.0087681683
    8    8    4    6       -0.0093948574
    8    8    4    7       -0.1605044478
    8    8    4    8        0.0000000870
    8    1    5    1       -0.0000000009
    8    1    5    2        0.0000000059
    8    1    5    3       -0.0083990563
    8    1    5    4        0.0000000049
    8    1    5    5        0.0000000064
    8    1    5    6       -0.0000000027
    8    1    5    7       -0.0000000017
    8    1    5    8        0.0045803846
    8    2    5    1        0.0000000025
    8    2    5    2        0.0000000058
    8    2    5    3       -0.0060874627
    8    2    5    4        0.0000000021
    8    2    5    5        0.0000000088
    8    2    5    6       -0.0000000068
    8    2    5    7       -0.0000000021
    8    2    5    8        0.0051137348
    8    3    5    1        0.0034846899
    8    3    5    2        0.0022061201
    8    3    5    3       -0.0000000094
    8    3    5    4       -0.0028986554
    8    3    5    5       -0.1417919350
    8    3    5    6        0.1222045125
    8    3    5    7       -0.0050452815
    8    3    5    8       -0.0000000043
    8    4    5    1       -0.0000000012
    8    4    5    2       -0.0000000026
    8    4    5    3       -0.0005260846
    8    4    5    4        0.0000000019
    8    4    5    5        0.0000000654
    8    4    5    6       -0.0000000568
    8    4    5    7        0.0000000013
    8    4    5    8        0.0016887160
    8    5    5    1       -0.0000000014
    8    5    5    2        0.0000000024
    8    5    5    3       -0.0047502388
    8    5    5    4        0.0000000024
    8    5    5    5        0.0000000143
    8    5    5    6       -0.0000000098
    8    5    5    7        0.0000000005
    8    5    5    8        0.0173813863
    8    6    5    1        0.0000000032
    8    6    5    2       -0.0000000016
    8    6    5    3        0.0294299239
    8    6    5    4       -0.0000000129
    8    6    5    5       -0.0000000150
    8    6    5    6       -0.0000000003
    8    6    5    7        0.0000000002
    8    6    5    8       -0.0074506167
    8    7    5    1       -0.0000000009
    8    7    5    2       -0.0000000054
    8    7    5    3        0.0048348771
    8    7    5    4       -0.0000000027
    8    7    5    5       -0.0000000030
    8    7    5    6       -0.0000000006
    8    7    5    7       -0.0000000002
    8    7    5    8       -0.0000033076
    8    8    5    1       -0.0060315221
    8    8    5    2        0.0081983337
    8    8    5    3        0.0000000181
    8    8    5    4        0.0087681683
    8    8    5    5        0.5767571485
    8    8    5    6       -0.1619843382
    8    8    5    7        0.0066398605
    8    8    5    8        0.0000000099
    8    1    6    1        0.0000000022
    8    1    6    2       -0.0000000064
    8    1    6    3        0.0097297658
    8    1    6    4       -0.0000000058
    8    1    6    5       -0.0000000022
    8    1    6    6        0.0000000074
    8    1    6    7        0.0000000029
    8    1    6    8       -0.0125642172
    8    2    6    1       -0.0000000037
    8    2    6    2       -0.0000000129
    8    2    6    3        0.0132694603
    8    2    6    4       -0.0000000075
    8    2    6    5       -0.0000000081
    8    2    6    6        0.0000000042
    8    2    6    7        0.0000000032
    8    2    6    8       -0.0097331345
    8    3    6    1       -0.0056541705
    8    3    6    2        0.0089275518
    8    3    6    3        0.0000000138
    8    3    6    4        0.0060523713
    8    3    6    5        0.1186567548
    8    3    6    6       -0.1776272919
    8    3    6    7        0.0035511363
    8    3    6    8       -0.0000000006
    8    4    6    1        0.0000000022
    8    4    6    2       -0.0000000044
    8    4    6    3        0.0022137086
    8    4    6    4       -0.0000000035
    8    4    6    5       -0.0000000555
    8    4    6    6        0.0000000806
    8    4    6    7       -0.0000000005
    8    4    6    8       -0.0008083526
    8    5    6    1        0.0000000021
    8    5    6    2       -0.0000000028
    8    5    6    3        0.0180809285
    8    5    6    4       -0.0000000087
    8    5    6    5       -0.0000000107
    8    5    6    6        0.0000000125
    8    5    6    8       -0.0074506167
    8    6    6    1       -0.0000000047
    8    6    6    2       -0.0000000032
    8    6    6    3       -0.0194309441
    8    6    6    4        0.0000000087
    8    6    6    5        0.0000000003
    8    6    6    6       -0.0000000151
    8    6    6    7        0.0000000004
    8    6    6    8        0.0331224476
    8    7    6    1        0.0000000017
    8    7    6    2        0.0000000059
    8    7    6    3       -0.0030151318
    8    7    6    4        0.0000000018
    8    7    6    5       -0.0000000006
    8    7    6    6       -0.0000000024
    8    7    6    7        0.0000000013
    8    7    6    8        0.0065113211
    8    8    6    1        0.0082648037
    8    8    6    2       -0.0099023374
    8    8    6    3       -0.0000000191
    8    8    6    4       -0.0093948574
    8    8    6    5       -0.1619843382
    8    8    6    6        0.6081718535
    8    8    6    7       -0.0009403297
    8    8    6    8        0.0000000016
    8    1    7    1        0.0000000042
    8    1    7    2       -0.0000000043
    8    1    7    3        0.0084520336
    8    1    7    4       -0.0000000050
    8    1    7    5       -0.0000000016
    8    1    7    6        0.0000000029
    8    1    7    7        0.0000000048
    8    1    7    8       -0.0109655810
    8    2    7    1       -0.0000000025
    8    2    7    2       -0.0000000092
    8    2    7    3        0.0116243214
    8    2    7    4       -0.0000000108
    8    2    7    5       -0.0000000019
    8    2    7    6        0.0000000032
    8    2    7    7        0.0000000026
    8    2    7    8       -0.0080158278
    8    3    7    1       -0.0050221518
    8    3    7    2        0.0080267742
    8    3    7    3        0.0000000678
    8    3    7    4        0.1193269418
    8    3    7    5       -0.0055008473
    8    3    7    6        0.0036451547
    8    3    7    7       -0.1848600183
    8    3    7    8       -0.0000000095
    8    4    7    1        0.0000000045
    8    4    7    2       -0.0000000046
    8    4    7    3        0.0185420268
    8    4    7    4       -0.0000000588
    8    4    7    5        0.0000000011
    8    4    7    6       -0.0000000003
    8    4    7    7        0.0000000898
    8    4    7    8       -0.0082958249
    8    5    7    2       -0.0000000012
    8    5    7    3        0.0008033889
    8    5    7    4       -0.0000000095
    8    5    7    5        0.0000000010
    8    5    7    6       -0.0000000003
    8    5    7    7        0.0000000104
    8    5    7    8       -0.0000033076
    8    6    7    1        0.0000000009
    8    6    7    2        0.0000000052
    8    6    7    3       -0.0028650560
    8    6    7    4        0.0000000071
    8    6    7    6        0.0000000004
    8    6    7    7       -0.0000000122
    8    6    7    8        0.0065113211
    8    7    7    1       -0.0000000065
    8    7    7    2       -0.0000000070
    8    7    7    3       -0.0175797729
    8    7    7    4        0.0000000049
    8    7    7    5       -0.0000000002
    8    7    7    6        0.0000000013
    8    7    7    7        0.0000000086
    8    7    7    8        0.0328926156
    8    8    7    1        0.0070791340
    8    8    7    2       -0.0073155091
    8    8    7    3       -0.0000000793
    8    8    7    4       -0.1605044478
    8    8    7    5        0.0066398605
    8    8    7    6       -0.0009403297
    8    8    7    7        0.6201883586
    8    8    7    8        0.0000000123
    8    1    8    1        0.0556356085
    8    1    8    2        0.0275700756
    8    1    8    3        0.0000000145
    8    1    8    4        0.0037298058
    8    1    8    5        0.0043323771
    8    1    8    6       -0.0123656575
    8    1    8    7       -0.0107864768
    8    1    8    8       -0.0000000163
    8    2    8    1        0.0275700756
    8    2    8    2        0.0528788401
    8    2    8    3        0.0000000147
    8    2    8    4        0.0035281752
    8    2    8    5        0.0050080456
    8    2    8    6       -0.0105669240
    8    2    8    7       -0.0087451906
    8    2    8    8       -0.0000000211
    8    3    8    1        0.0000000145
    8    3    8    2        0.0000000147
    8    3    8    3        0.1598257163
    8    3    8    4       -0.0000000628
    8    3    8    5       -0.0000000058
    8    3    8    7       -0.0000000094
    8    3    8    8       -0.1940176910
    8    4    8    1        0.0037298058
    8    4    8    2        0.0035281752
    8    4    8    3       -0.0000000628
    8    4    8    4        0.0159287118
    8    4    8    5        0.0015950964
    8    4    8    6       -0.0007631105
    8    4    8    7       -0.0085447648
    8    4    8    8        0.0000000870
    8    5    8    1        0.0043323771
    8    5    8    2        0.0050080456
    8    5    8    3       -0.0000000058
    8    5    8    4        0.0015950964
    8    5    8    5        0.0171747746
    8    5    8    6       -0.0077075515
    8    5    8    7        0.0000260757
    8    5    8    8        0.0000000099
    8    6    8    1       -0.0123656575
    8    6    8    2       -0.0105669240
    8    6    8    4       -0.0007631105
    8    6    8    5       -0.0077075515
    8    6    8    6        0.0331224476
    8    6    8    7        0.0065113211
    8    6    8    8        0.0000000016
    8    7    8    1       -0.0107864768
    8    7    8    2       -0.0087451906
    8    7    8    3       -0.0000000094
    8    7    8    4       -0.0085447648
    8    7    8    5        0.0000260757
    8    7    8    6        0.0065113211
    8    7    8    7        0.0328926156
    8    7    8    8        0.0000000123
    8    8    8    1       -0.0000000163
    8    8    8    2       -0.0000000211
    8    8    8    3       -0.1940176910
    8    8    8    4        0.0000000870
    8    8    8    5        0.0000000099
    8    8    8    6        0.0000000016
    8    8    8    7        0.0000000123
    8    8    8    8        0.6404702264
 end_two_electron_integrals

 Parallel integral file used      16 records with       0 large values


 Task  times  cpu:       87.1s     wall:       91.7s


                                NWChem Input Module
                                -------------------


 Summary of allocated global arrays
-----------------------------------
  No active global arrays


MA_summarize_allocated_blocks: starting scan ...
MA_summarize_allocated_blocks: scan completed: 0 heap blocks, 0 stack blocks
MA usage statistics:

	allocation statistics:
					      heap	     stack
					      ----	     -----
	current number of blocks	         0	         0
	maximum number of blocks	        18	        42
	current total bytes		         0	         0
	maximum total bytes		  25775928	4725685688
	maximum total K-bytes		     25776	   4725686
	maximum total M-bytes		        26	      4726


                                     CITATION
                                     --------
                Please cite the following reference when publishing
                           results obtained with NWChem:

          E. Apra, E. J. Bylaska, W. A. de Jong, N. Govind, K. Kowalski,
       T. P. Straatsma, M. Valiev, H. J. J. van Dam, Y. Alexeev, J. Anchell,
       V. Anisimov, F. W. Aquino, R. Atta-Fynn, J. Autschbach, N. P. Bauman,
     J. C. Becca, D. E. Bernholdt, K. Bhaskaran-Nair, S. Bogatko, P. Borowski,
         J. Boschen, J. Brabec, A. Bruner, E. Cauet, Y. Chen, G. N. Chuev,
      C. J. Cramer, J. Daily, M. J. O. Deegan, T. H. Dunning Jr., M. Dupuis,
   K. G. Dyall, G. I. Fann, S. A. Fischer, A. Fonari, H. Fruchtl, L. Gagliardi,
      J. Garza, N. Gawande, S. Ghosh, K. Glaesemann, A. W. Gotz, J. Hammond,
       V. Helms, E. D. Hermes, K. Hirao, S. Hirata, M. Jacquelin, L. Jensen,
   B. G. Johnson, H. Jonsson, R. A. Kendall, M. Klemm, R. Kobayashi, V. Konkov,
      S. Krishnamoorthy, M. Krishnan, Z. Lin, R. D. Lins, R. J. Littlefield,
      A. J. Logsdail, K. Lopata, W. Ma, A. V. Marenich, J. Martin del Campo,
   D. Mejia-Rodriguez, J. E. Moore, J. M. Mullin, T. Nakajima, D. R. Nascimento,
    J. A. Nichols, P. J. Nichols, J. Nieplocha, A. Otero-de-la-Roza, B. Palmer,
    A. Panyala, T. Pirojsirikul, B. Peng, R. Peverati, J. Pittner, L. Pollack,
   R. M. Richard, P. Sadayappan, G. C. Schatz, W. A. Shelton, D. W. Silverstein,
   D. M. A. Smith, T. A. Soares, D. Song, M. Swart, H. L. Taylor, G. S. Thomas,
            V. Tipparaju, D. G. Truhlar, K. Tsemekhman, T. Van Voorhis,
      A. Vazquez-Mayagoitia, P. Verma, O. Villa, A. Vishnu, K. D. Vogiatzis,
        D. Wang, J. H. Weare, M. J. Williamson, T. L. Windus, K. Wolinski,
        A. T. Wong, Q. Wu, C. Yang, Q. Yu, M. Zacharias, Z. Zhang, Y. Zhao,
                                and R. J. Harrison
                        "NWChem: Past, present, and future
                         J. Chem. Phys. 152, 184102 (2020)
                               doi:10.1063/5.0004997

                                      AUTHORS
                                      -------
  E. Apra, E. J. Bylaska, N. Govind, K. Kowalski, M. Valiev, D. Mejia-Rodriguez,
       A. Kunitsa, N. P. Bauman, A. Panyala, W. A. de Jong, T. P. Straatsma,
        H. J. J. van Dam, D. Wang, T. L. Windus, J. Hammond, J. Autschbach,
    K. Bhaskaran-Nair, J. Brabec, K. Lopata, S. A. Fischer, S. Krishnamoorthy,
     M. Jacquelin, W. Ma, M. Klemm, O. Villa, Y. Chen, V. Anisimov, F. Aquino,
    S. Hirata, M. T. Hackler, Eric Hermes, L. Jensen, J. E. Moore, J. C. Becca,
      V. Konjkov, T. Risthaus, M. Malagoli, A. Marenich, A. Otero-de-la-Roza,
        J. Mullin, P. Nichols, R. Peverati, J. Pittner, Y. Zhao, P.-D. Fan,
        A. Fonari, M. J. Williamson, R. J. Harrison, J. R. Rehr, M. Dupuis,
     D. Silverstein, D. M. A. Smith, J. Nieplocha, V. Tipparaju, M. Krishnan,
     B. E. Van Kuiken, A. Vazquez-Mayagoitia, M. Swart, Q. Wu, T. Van Voorhis,
     A. A. Auer, M. Nooijen, L. D. Crosby, E. Brown, G. Cisneros, G. I. Fann,
   H. Fruchtl, J. Garza, K. Hirao, R. A. Kendall, J. A. Nichols, K. Tsemekhman,
    K. Wolinski, J. Anchell, D. E. Bernholdt, P. Borowski, T. Clark, D. Clerc,
   H. Dachsel, M. J. O. Deegan, K. Dyall, D. Elwood, E. Glendening, M. Gutowski,
   A. C. Hess, J. Jaffe, B. G. Johnson, J. Ju, R. Kobayashi, R. Kutteh, Z. Lin,
   R. Littlefield, X. Long, B. Meng, T. Nakajima, S. Niu, L. Pollack, M. Rosing,
   K. Glaesemann, G. Sandrone, M. Stave, H. Taylor, G. Thomas, J. H. van Lenthe,
                               A. T. Wong, Z. Zhang.

 Total times  cpu:      105.4s     wall:      122.7s
