 argument  1 = input.nw
  NWChem w/ OpenMP: maximum threads =    1



============================== echo of input deck ==============================
 echo
 start H2O
 title "H2O"

 memory total 24 gb

 geometry units bohr
 symmetry c1
        O  0.00000000  0.00000000  0.00000000
        H  0.00000000  1.79736375  0.00000000
        H  1.72558000 -0.64860000  0.00000000
 end

 basis spherical
   * library cc-pVTZ
 end

 mcscf
   active  8
   actelec 10
   multiplicity 1
   maxiter 40
   vectors input h2o.mos
   vectors output h2o.mos
 end

 task mcscf

 scf
   vectors input h2o.mos
   vectors output h2o-trash.mos
   noscf
 end

 tce
   2eorb
   2emet 13
   ccsd
 end

# set tce:print_integrals T
# set tce:qorb 8
# set tce:qela 5
# set tce:qelb 5

 set tce:qducc T
 set tce:nactv 3
 set tce:nonhf T
 set tce:ducc_model 3

 set tce:printtol 0.02

 task tce
================================================================================


                                         
                                         


             Northwest Computational Chemistry Package (NWChem) 7.0.1
             --------------------------------------------------------


                    Environmental Molecular Sciences Laboratory
                       Pacific Northwest National Laboratory
                                Richland, WA 99352

                              Copyright (c) 1994-2020
                       Pacific Northwest National Laboratory
                            Battelle Memorial Institute

             NWChem is an open-source computational chemistry package
                        distributed under the terms of the
                      Educational Community License (ECL) 2.0
             A copy of the license is included with this distribution
                              in the LICENSE.TXT file

                                  ACKNOWLEDGMENT
                                  --------------

            This software and its documentation were developed at the
            EMSL at Pacific Northwest National Laboratory, a multiprogram
            national laboratory, operated for the U.S. Department of Energy
            by Battelle under Contract Number DE-AC05-76RL01830. Support
            for this work was provided by the Department of Energy Office
            of Biological and Environmental Research, Office of Basic
            Energy Sciences, and the Office of Advanced Scientific Computing.


           Job information
           ---------------

    hostname        = WE46210
    program         = /home/baum612/code/nwchem/bin/LINUX64/nwchem
    date            = Tue Feb 20 11:06:20 2024

    compiled        = Fri_Feb_16_11:09:52_2024
    source          = /home/baum612/code/nwchem
    nwchem branch   = 7.0.0
    nwchem revision = nwchem_on_git-4191-g39d87d64de
    ga revision     = 5.8.1
    use scalapack   = F
    input           = input.nw
    prefix          = H2O.
    data base       = ./H2O.db
    status          = startup
    nproc           =        1
    time left       =     -1s



           Memory information
           ------------------

    heap     =  805306366 doubles =   6144.0 Mbytes
    stack    =  805306363 doubles =   6144.0 Mbytes
    global   = 1610612736 doubles =  12288.0 Mbytes (distinct from heap & stack)
    total    = 3221225465 doubles =  24576.0 Mbytes
    verify   = yes
    hardfail = no 


           Directory information
           ---------------------

  0 permanent = .
  0 scratch   = .




                                NWChem Input Module
                                -------------------


                                        H2O
                                        ---
 Turning off AUTOSYM since
 SYMMETRY directive was detected!


          ------
          auto-z
          ------
  no constraints, skipping    0.0000000000000000     
  no constraints, skipping    0.0000000000000000     


                             Geometry "geometry" -> ""
                             -------------------------

 Output coordinates in a.u. (scale by  1.000000000 to convert to a.u.)

  No.       Tag          Charge          X              Y              Z
 ---- ---------------- ---------- -------------- -------------- --------------
    1 O                    8.0000    -0.17255800    -0.11487638     0.00000000
    2 H                    1.0000    -0.17255800     1.68248738     0.00000000
    3 H                    1.0000     1.55302200    -0.76347638     0.00000000

      Atomic Mass 
      ----------- 

      O                 15.994910
      H                  1.007825


 Effective nuclear repulsion energy (a.u.)       9.1247219173

            Nuclear Dipole moment (a.u.) 
            ----------------------------
        X                 Y               Z
 ---------------- ---------------- ----------------
    -0.0000000000    -0.0000000000     0.0000000000



                                Z-matrix (autoz)
                                -------- 

 Units are Angstrom for bonds and degrees for angles

      Type          Name      I     J     K     L     M      Value
      ----------- --------  ----- ----- ----- ----- ----- ----------
    1 Stretch                  1     2                       0.95112
    2 Stretch                  1     3                       0.97551
    3 Bend                     2     1     3               110.59992


            XYZ format geometry
            -------------------
     3
 geometry
 O                    -0.09131377    -0.06078996     0.00000000
 H                    -0.09131377     0.89033404     0.00000000
 H                     0.82182391    -0.40401433     0.00000000

 ==============================================================================
                                internuclear distances
 ------------------------------------------------------------------------------
       center one      |      center two      | atomic units |       a.u.
 ------------------------------------------------------------------------------
    2 H                |   1 O                |     1.79736  |     1.79736
    3 H                |   1 O                |     1.84345  |     1.84345
 ------------------------------------------------------------------------------
                         number of included internuclear distances:          2
 ==============================================================================



 ==============================================================================
                                 internuclear angles
 ------------------------------------------------------------------------------
        center 1       |       center 2       |       center 3       |  degrees
 ------------------------------------------------------------------------------
    2 H                |   1 O                |   3 H                |   110.60
 ------------------------------------------------------------------------------
                            number of included internuclear angles:          1
 ==============================================================================





 Summary of "ao basis" -> "" (spherical)
 ------------------------------------------------------------------------------
       Tag                 Description            Shells   Functions and Types
 ---------------- ------------------------------  ------  ---------------------
 *                          cc-pVTZ                   on all atoms 


                      Basis "ao basis" -> "ao basis" (spherical)
                      -----
  O (Oxygen)
  ----------
            Exponent  Coefficients 
       -------------- ---------------------------------------------------------
  1 S  1.53300000E+04  0.000508
  1 S  2.29900000E+03  0.003929
  1 S  5.22400000E+02  0.020243
  1 S  1.47300000E+02  0.079181
  1 S  4.75500000E+01  0.230687
  1 S  1.67600000E+01  0.433118
  1 S  6.20700000E+00  0.350260
  1 S  6.88200000E-01 -0.008154

  2 S  1.53300000E+04 -0.000115
  2 S  2.29900000E+03 -0.000895
  2 S  5.22400000E+02 -0.004636
  2 S  1.47300000E+02 -0.018724
  2 S  4.75500000E+01 -0.058463
  2 S  1.67600000E+01 -0.136463
  2 S  6.20700000E+00 -0.175740
  2 S  6.88200000E-01  0.603418

  3 S  1.75200000E+00  1.000000

  4 S  2.38400000E-01  1.000000

  5 P  3.44600000E+01  0.015928
  5 P  7.74900000E+00  0.099740
  5 P  2.28000000E+00  0.310492

  6 P  7.15600000E-01  1.000000

  7 P  2.14000000E-01  1.000000

  8 D  2.31400000E+00  1.000000

  9 D  6.45000000E-01  1.000000

 10 F  1.42800000E+00  1.000000

  H (Hydrogen)
  ------------
            Exponent  Coefficients 
       -------------- ---------------------------------------------------------
  1 S  3.38700000E+01  0.006068
  1 S  5.09500000E+00  0.045308
  1 S  1.15900000E+00  0.202822

  2 S  3.25800000E-01  1.000000

  3 S  1.02700000E-01  1.000000

  4 P  1.40700000E+00  1.000000

  5 P  3.88000000E-01  1.000000

  6 D  1.05700000E+00  1.000000



 Summary of "ao basis" -> "ao basis" (spherical)
 ------------------------------------------------------------------------------
       Tag                 Description            Shells   Functions and Types
 ---------------- ------------------------------  ------  ---------------------
 O                          cc-pVTZ                 10       30   4s3p2d1f
 H                          cc-pVTZ                  6       14   3s2p1d



                            NWChem Direct MCSCF Module
                            --------------------------


                                        H2O


     -----------------------------------
       Basis functions:             58
       Inactive shells:              0
       Active shells:                8
       Active electrons:            10
       Symmetry:                    a       
       Multiplicity:                 1
       Orbital rotations:          400
     -----------------------------------

     -----------------------------------
       E2 extrapolation:             F
       Conjugacy:                    T
       Micro CI relax:               T
       Canonical orbitals:           T
       Maximum iterations:          40
       Converge threshold:    1.00E-04
       Conjugacy resets:            20
       Initial levelshift:        0.10
     -----------------------------------

 Loading old vectors from job with title :

H2O


   input molecular orbitals = ./h2o.mos
  output molecular orbtials = ./h2o.mos

       No. of determinants:          3136


  Starting Orbital Energies
   -20.543125    -1.345476    -0.740316    -0.582958    -0.524535    -0.025954
    -0.024776    -0.016021     0.294214     0.335505     0.612055     0.657475
     0.810602     0.844779     0.973647     1.126721     1.171854     1.378698
     1.404598     1.996198     2.055120     2.070388     2.133856     2.205162
     2.604837     2.875516     3.375149     3.509252     3.524562     3.549114
     3.597150     3.870832     3.879837     3.934987     3.997053     4.051162
     4.114253     4.332987     4.415480     4.441534     4.626041     4.841541
     5.054687     5.249736     5.529823     5.983640     6.417294     6.897221
     6.933495     6.971272     6.987294     7.101020     7.148401     7.184884
     7.491079     7.721885     8.190706    12.732121

  Orbital Symmetry Irreps
a    a    a    a    a    a    a    a    a    a    a    a    a    a    a   
a    a    a    a    a    a    a    a    a    a    a    a    a    a    a   
a    a    a    a    a    a    a    a    a    a    a    a    a    a    a   
a    a    a    a    a    a    a    a    a    a    a    a    a   

 Integral file          = ./H2O.aoints.0
 Record size in doubles =  65536        No. of integs per rec  =  43688
 Max. records in memory =     49        Max. records in file   = 252448
 No. of bits per label  =      8        No. of bits per value  =     64


 #quartets = 3.213D+04 #integrals = 6.608D+05 #direct =  0.0% #cached =100.0%




          %%%%% MacroIteration   1 %%%%%


          Number of sigma calls:       14
                       o<<<<< (aa):             0.02
                       o<<<<< (bb):             0.01
                       o<<<<< (ab):             0.17
                       o<<<<< (total)           0.20
                       o<<<<< (aa) ff           0.00
                       o<<<<< (aa) gop          0.00
                       o<<<<< (aa) dot          0.00
                       o<<<<< (ab) str          0.00
                       o<<<<< (ab) gath         0.00
                       o<<<<< (ab) dotab        0.00
                       o<<<<< (ab) scat         0.00
                       o<<<<< (ab) sync         0.00
                       o<<<<< Density           0.03
                       o<<<<< Density one       0.00
                       o<<<<< Density two       0.01
                       o<<<<< Density ab        0.02
                       o<<<<< Spin adapt        1.27
                       o<<<<< Symm adapt        0.00

                       o<<<<< (ab) max sync:      0.00

           >>>| Valence CI:            -85.272812962066
           >>>| MCSCF energy:          -76.148091044797
           >>>| Gradient norm:          0.230689448D-01

                              ----- Line search ------

        step       energy         lsg     num-lsg   num-lsh   lsrat    time
      ------- ---------------- --------- --------- --------- ------- --------
       0.0000     -76.14809104 -4.70D-05  0.00D+00  0.00D+00 0.0D+00      3.6

          Number of sigma calls:       14
                       o<<<<< (aa):             0.02
                       o<<<<< (bb):             0.02
                       o<<<<< (ab):             0.20
                       o<<<<< (total)           0.23
                       o<<<<< (aa) ff           0.00
                       o<<<<< (aa) gop          0.00
                       o<<<<< (aa) dot          0.00
                       o<<<<< (ab) str          0.00
                       o<<<<< (ab) gath         0.00
                       o<<<<< (ab) dotab        0.00
                       o<<<<< (ab) scat         0.00
                       o<<<<< (ab) sync         0.00
                       o<<<<< Density           0.02
                       o<<<<< Density one       0.01
                       o<<<<< Density two       0.00
                       o<<<<< Density ab        0.01
                       o<<<<< Spin adapt        1.09
                       o<<<<< Symm adapt        0.00

                       o<<<<< (ab) max sync:      0.00
       1.0000     -76.14811533 -1.57D-06 -1.57D-06  4.54D-05 3.3D-02      5.3
     --- Orbitals canonicalized ---



          %%%%% MacroIteration   2 %%%%%


          Number of sigma calls:       11
                       o<<<<< (aa):             0.01
                       o<<<<< (bb):             0.01
                       o<<<<< (ab):             0.15
                       o<<<<< (total)           0.17
                       o<<<<< (aa) ff           0.00
                       o<<<<< (aa) gop          0.00
                       o<<<<< (aa) dot          0.00
                       o<<<<< (ab) str          0.00
                       o<<<<< (ab) gath         0.00
                       o<<<<< (ab) dotab        0.00
                       o<<<<< (ab) scat         0.00
                       o<<<<< (ab) sync         0.00
                       o<<<<< Density           0.02
                       o<<<<< Density one       0.01
                       o<<<<< Density two       0.01
                       o<<<<< Density ab        0.00
                       o<<<<< Spin adapt        0.80
                       o<<<<< Symm adapt        0.00

                       o<<<<< (ab) max sync:      0.00

           >>>| Valence CI:            -85.272837244731
           >>>| MCSCF energy:          -76.148115327462
           >>>| Gradient norm:          0.169158361D-02
     --- Warning:    2 Hessian diagonals < 0.05 ---
     --- Conjugacy reset ---

                              ----- Line search ------

        step       energy         lsg     num-lsg   num-lsh   lsrat    time
      ------- ---------------- --------- --------- --------- ------- --------
       0.0000     -76.14811533 -4.81D-07  0.00D+00  0.00D+00 0.0D+00      7.0

          Number of sigma calls:       10
                       o<<<<< (aa):             0.01
                       o<<<<< (bb):             0.02
                       o<<<<< (ab):             0.16
                       o<<<<< (total)           0.19
                       o<<<<< (aa) ff           0.00
                       o<<<<< (aa) gop          0.00
                       o<<<<< (aa) dot          0.00
                       o<<<<< (ab) str          0.00
                       o<<<<< (ab) gath         0.00
                       o<<<<< (ab) dotab        0.00
                       o<<<<< (ab) scat         0.00
                       o<<<<< (ab) sync         0.00
                       o<<<<< Density           0.03
                       o<<<<< Density one       0.01
                       o<<<<< Density two       0.01
                       o<<<<< Density ab        0.01
                       o<<<<< Spin adapt        0.85
                       o<<<<< Symm adapt        0.00

                       o<<<<< (ab) max sync:      0.00
       1.0000     -76.14811565 -1.57D-07 -1.57D-07  3.24D-07 3.3D-01      8.4

          Number of sigma calls:        9
                       o<<<<< (aa):             0.01
                       o<<<<< (bb):             0.01
                       o<<<<< (ab):             0.10
                       o<<<<< (total)           0.12
                       o<<<<< (aa) ff           0.00
                       o<<<<< (aa) gop          0.00
                       o<<<<< (aa) dot          0.00
                       o<<<<< (ab) str          0.00
                       o<<<<< (ab) gath         0.00
                       o<<<<< (ab) dotab        0.00
                       o<<<<< (ab) scat         0.00
                       o<<<<< (ab) sync         0.00
                       o<<<<< Density           0.02
                       o<<<<< Density one       0.00
                       o<<<<< Density two       0.00
                       o<<<<< Density ab        0.02
                       o<<<<< Spin adapt        0.71
                       o<<<<< Symm adapt        0.00

                       o<<<<< (ab) max sync:      0.00
       1.4834     -76.14811568 -3.04D-10 -2.88D-10  3.23D-07 6.3D-04      9.6



          %%%%% MacroIteration   3 %%%%%


          Number of sigma calls:        1
                       o<<<<< (aa):             0.00
                       o<<<<< (bb):             0.00
                       o<<<<< (ab):             0.01
                       o<<<<< (total)           0.01
                       o<<<<< (aa) ff           0.00
                       o<<<<< (aa) gop          0.00
                       o<<<<< (aa) dot          0.00
                       o<<<<< (ab) str          0.00
                       o<<<<< (ab) gath         0.00
                       o<<<<< (ab) dotab        0.00
                       o<<<<< (ab) scat         0.00
                       o<<<<< (ab) sync         0.00
                       o<<<<< Density           0.03
                       o<<<<< Density one       0.00
                       o<<<<< Density two       0.01
                       o<<<<< Density ab        0.02
                       o<<<<< Spin adapt        0.00
                       o<<<<< Symm adapt        0.00

                       o<<<<< (ab) max sync:      0.00

           >>>| Valence CI:            -85.272837601145
           >>>| MCSCF energy:          -76.148115683876
           >>>| Gradient norm:          0.252880742D-03
     --- Warning:    2 Hessian diagonals < 0.05 ---

                              ----- Line search ------

        step       energy         lsg     num-lsg   num-lsh   lsrat    time
      ------- ---------------- --------- --------- --------- ------- --------
       0.0000     -76.14811568 -1.89D-08  0.00D+00  0.00D+00 0.0D+00     10.0

          Number of sigma calls:        9
                       o<<<<< (aa):             0.00
                       o<<<<< (bb):             0.01
                       o<<<<< (ab):             0.13
                       o<<<<< (total)           0.15
                       o<<<<< (aa) ff           0.00
                       o<<<<< (aa) gop          0.00
                       o<<<<< (aa) dot          0.00
                       o<<<<< (ab) str          0.00
                       o<<<<< (ab) gath         0.00
                       o<<<<< (ab) dotab        0.00
                       o<<<<< (ab) scat         0.00
                       o<<<<< (ab) sync         0.00
                       o<<<<< Density           0.01
                       o<<<<< Density one       0.00
                       o<<<<< Density two       0.00
                       o<<<<< Density ab        0.01
                       o<<<<< Spin adapt        0.76
                       o<<<<< Symm adapt        0.00

                       o<<<<< (ab) max sync:      0.00
       1.0000     -76.14811570 -7.24D-09 -7.24D-09  1.17D-08 3.8D-01     11.3

          Number of sigma calls:        8
                       o<<<<< (aa):             0.00
                       o<<<<< (bb):             0.02
                       o<<<<< (ab):             0.10
                       o<<<<< (total)           0.13
                       o<<<<< (aa) ff           0.00
                       o<<<<< (aa) gop          0.00
                       o<<<<< (aa) dot          0.00
                       o<<<<< (ab) str          0.00
                       o<<<<< (ab) gath         0.00
                       o<<<<< (ab) dotab        0.00
                       o<<<<< (ab) scat         0.00
                       o<<<<< (ab) sync         0.00
                       o<<<<< Density           0.03
                       o<<<<< Density one       0.01
                       o<<<<< Density two       0.00
                       o<<<<< Density ab        0.02
                       o<<<<< Spin adapt        0.67
                       o<<<<< Symm adapt        0.00

                       o<<<<< (ab) max sync:      0.00
       1.6204     -76.14811570 -9.12D-13 -6.58D-13  1.17D-08 4.8D-05     12.3



          %%%%% MacroIteration   4 %%%%%


          Number of sigma calls:        1
                       o<<<<< (aa):             0.00
                       o<<<<< (bb):             0.00
                       o<<<<< (ab):             0.00
                       o<<<<< (total)           0.00
                       o<<<<< (aa) ff           0.00
                       o<<<<< (aa) gop          0.00
                       o<<<<< (aa) dot          0.00
                       o<<<<< (ab) str          0.00
                       o<<<<< (ab) gath         0.00
                       o<<<<< (ab) dotab        0.00
                       o<<<<< (ab) scat         0.00
                       o<<<<< (ab) sync         0.00
                       o<<<<< Density           0.02
                       o<<<<< Density one       0.01
                       o<<<<< Density two       0.00
                       o<<<<< Density ab        0.01
                       o<<<<< Spin adapt        0.00
                       o<<<<< Symm adapt        0.00

                       o<<<<< (ab) max sync:      0.00

           >>>| Valence CI:            -85.272837616465
           >>>| MCSCF energy:          -76.148115699196
           >>>| Gradient norm:          0.127280341D-03
     --- Warning:    2 Hessian diagonals < 0.05 ---

                              ----- Line search ------

        step       energy         lsg     num-lsg   num-lsh   lsrat    time
      ------- ---------------- --------- --------- --------- ------- --------
       0.0000     -76.14811570 -4.83D-09  0.00D+00  0.00D+00 0.0D+00     12.8

          Number of sigma calls:        8
                       o<<<<< (aa):             0.00
                       o<<<<< (bb):             0.00
                       o<<<<< (ab):             0.11
                       o<<<<< (total)           0.11
                       o<<<<< (aa) ff           0.00
                       o<<<<< (aa) gop          0.00
                       o<<<<< (aa) dot          0.00
                       o<<<<< (ab) str          0.00
                       o<<<<< (ab) gath         0.00
                       o<<<<< (ab) dotab        0.00
                       o<<<<< (ab) scat         0.00
                       o<<<<< (ab) sync         0.00
                       o<<<<< Density           0.02
                       o<<<<< Density one       0.01
                       o<<<<< Density two       0.00
                       o<<<<< Density ab        0.01
                       o<<<<< Spin adapt        0.64
                       o<<<<< Symm adapt        0.00

                       o<<<<< (ab) max sync:      0.00
       1.0000     -76.14811570 -2.56D-09 -2.56D-09  2.27D-09 5.3D-01     13.8

          Number of sigma calls:        8
                       o<<<<< (aa):             0.00
                       o<<<<< (bb):             0.00
                       o<<<<< (ab):             0.12
                       o<<<<< (total)           0.12
                       o<<<<< (aa) ff           0.00
                       o<<<<< (aa) gop          0.00
                       o<<<<< (aa) dot          0.00
                       o<<<<< (ab) str          0.00
                       o<<<<< (ab) gath         0.00
                       o<<<<< (ab) dotab        0.00
                       o<<<<< (ab) scat         0.00
                       o<<<<< (ab) sync         0.00
                       o<<<<< Density           0.03
                       o<<<<< Density one       0.01
                       o<<<<< Density two       0.01
                       o<<<<< Density ab        0.01
                       o<<<<< Spin adapt        0.68
                       o<<<<< Symm adapt        0.00

                       o<<<<< (ab) max sync:      0.00
       2.1283     -76.14811570 -1.14D-13 -7.87D-13  2.27D-09 2.4D-05     15.0



          %%%%% MacroIteration   5 %%%%%


          Number of sigma calls:        1
                       o<<<<< (aa):             0.00
                       o<<<<< (bb):             0.00
                       o<<<<< (ab):             0.01
                       o<<<<< (total)           0.01
                       o<<<<< (aa) ff           0.00
                       o<<<<< (aa) gop          0.00
                       o<<<<< (aa) dot          0.00
                       o<<<<< (ab) str          0.00
                       o<<<<< (ab) gath         0.00
                       o<<<<< (ab) dotab        0.00
                       o<<<<< (ab) scat         0.00
                       o<<<<< (ab) sync         0.00
                       o<<<<< Density           0.03
                       o<<<<< Density one       0.01
                       o<<<<< Density two       0.00
                       o<<<<< Density ab        0.02
                       o<<<<< Spin adapt        0.00
                       o<<<<< Symm adapt        0.00

                       o<<<<< (ab) max sync:      0.00

           >>>| Valence CI:            -85.272837621608
           >>>| MCSCF energy:          -76.148115704339
           >>>| Gradient norm:          0.478815114D-04




     ==============================
            MCSCF Converged
     ==============================



          Canonical Eigenvalues

              1      
    1  -20.5423
    2   -1.3480
    3   -0.7430
    4   -0.5837
    5   -0.5249
    6   -0.0259
    7   -0.0245
    8   -0.0160
    9    0.2932
   10    0.3355
   11    0.6121
   12    0.6566
   13    0.8104
   14    0.8458
   15    0.9737
   16    1.1227
   17    1.1747
   18    1.3801
   19    1.4121
   20    1.9979
   21    2.0485
   22    2.0726
   23    2.1350
   24    2.2031
   25    2.6064
   26    2.8777
   27    3.3773
   28    3.5118
   29    3.5264
   30    3.5513
   31    3.6031
   32    3.8725
   33    3.8852
   34    3.9371
   35    3.9963
   36    4.0513
   37    4.1220
   38    4.3409
   39    4.4228
   40    4.4509
   41    4.6325
   42    4.8516
   43    5.0753
   44    5.2548
   45    5.5312
   46    5.9931
   47    6.4357
   48    6.8985
   49    6.9417
   50    6.9817
   51    7.0037
   52    7.1022
   53    7.1682
   54    7.1956
   55    7.4948
   56    7.7378
   57    8.2104
   58   12.8133


          Converged CI vector

   Index           Coefficient          Config. Occupation
         1         -0.97646495          1  2  3  4  5  1  2  3  4  5
        22          0.07012095          1  2  3  4  5  1  2  3  4  8
         3          0.04258762          1  2  3  4  5  1  2  3  5  6
        27         -0.02149673          1  2  3  4  5  1  2  3  6  8
         9         -0.03955083          1  2  3  4  5  1  2  4  5  7
        38          0.02482047          1  2  3  4  5  1  2  4  7  8
      1177          0.07012095          1  2  3  4  8  1  2  3  4  5
      1198          0.05133685          1  2  3  4  8  1  2  3  4  8
      1179          0.02628942          1  2  3  4  8  1  2  3  5  6
      1185         -0.03354666          1  2  3  4  8  1  2  4  5  7
      1181          0.02032401          1  2  3  4  8  1  3  4  5  6
       113          0.04258762          1  2  3  5  6  1  2  3  4  5
       134          0.02628942          1  2  3  5  6  1  2  3  4  8
       115          0.03937629          1  2  3  5  6  1  2  3  5  6
       116          0.02006445          1  2  3  5  6  1  2  4  5  6
       121         -0.03030173          1  2  3  5  6  1  2  4  5  7
       117          0.02461623          1  2  3  5  6  1  3  4  5  6
       400          0.02146519          1  2  3  5  7  1  2  3  5  7
      1457         -0.02149673          1  2  3  6  8  1  2  3  4  5
       171          0.02006445          1  2  4  5  6  1  2  3  5  6
       172          0.02924065          1  2  4  5  6  1  2  4  5  6
       449         -0.03955083          1  2  4  5  7  1  2  3  4  5
       470         -0.03354666          1  2  4  5  7  1  2  3  4  8
       451         -0.03030173          1  2  4  5  7  1  2  3  5  6
       457          0.05656103          1  2  4  5  7  1  2  4  5  7
       453         -0.02140448          1  2  4  5  7  1  3  4  5  6
      2073          0.02482047          1  2  4  7  8  1  2  3  4  5
       246          0.02032401          1  3  4  5  6  1  2  3  4  8
       227          0.02461623          1  3  4  5  6  1  2  3  5  6
       233         -0.02140448          1  3  4  5  6  1  2  4  5  7
       229          0.02575957          1  3  4  5  6  1  3  4  5  6

          Number of sigma calls:        1
                       o<<<<< (aa):             0.00
                       o<<<<< (bb):             0.00
                       o<<<<< (ab):             0.02
                       o<<<<< (total)           0.02
                       o<<<<< (aa) ff           0.00
                       o<<<<< (aa) gop          0.00
                       o<<<<< (aa) dot          0.00
                       o<<<<< (ab) str          0.00
                       o<<<<< (ab) gath         0.00
                       o<<<<< (ab) dotab        0.00
                       o<<<<< (ab) scat         0.00
                       o<<<<< (ab) sync         0.00
                       o<<<<< Density           0.03
                       o<<<<< Density one       0.00
                       o<<<<< Density two       0.01
                       o<<<<< Density ab        0.02
                       o<<<<< Spin adapt        0.00
                       o<<<<< Symm adapt        0.00

                       o<<<<< (ab) max sync:      0.00



          Natural orbital occupation numbers

              1      
    1    2.0000
    2    1.9990
    3    1.9824
    4    1.9782
    5    1.9770
    6    0.0238
    7    0.0224
    8    0.0173


          Number of sigma calls:       15
                       o<<<<< (aa):             0.00
                       o<<<<< (bb):             0.00
                       o<<<<< (ab):             0.19
                       o<<<<< (total)           0.20
                       o<<<<< (aa) ff           0.00
                       o<<<<< (aa) gop          0.00
                       o<<<<< (aa) dot          0.00
                       o<<<<< (ab) str          0.00
                       o<<<<< (ab) gath         0.00
                       o<<<<< (ab) dotab        0.00
                       o<<<<< (ab) scat         0.00
                       o<<<<< (ab) sync         0.00
                       o<<<<< Density           0.03
                       o<<<<< Density one       0.01
                       o<<<<< Density two       0.00
                       o<<<<< Density ab        0.02
                       o<<<<< Spin adapt        1.17
                       o<<<<< Symm adapt        0.00

                       o<<<<< (ab) max sync:      0.00


       Final MCSCF results 
       ------------------- 

       Total MCSCF energy =    -76.148115704339
            Gradient norm =      4.8D-05

    CPU time for solution =     17.0s
   Wall time for solution =     29.0s



                        Analysis of MCSCF natural orbitals
                        ----------------------------------

 Vector    1  Occ=1.999988D+00  E=-2.054231D+01  Symmetry=a
              MO Center= -9.1D-02, -6.1D-02,  5.2D-08, r^2= 1.8D-02
   Bfn.  Coefficient  Atom+Function         Bfn.  Coefficient  Atom+Function  
  ----- ------------  ---------------      ----- ------------  ---------------
     1      0.970746  1 O  s          

 Vector    2  Occ=1.998964D+00  E=-1.347992D+00  Symmetry=a
              MO Center= -3.0D-01, -2.0D-01,  5.7D-05, r^2= 4.1D-01
   Bfn.  Coefficient  Atom+Function         Bfn.  Coefficient  Atom+Function  
  ----- ------------  ---------------      ----- ------------  ---------------
     2      0.509887  1 O  s                  4      0.388372  1 O  s          

 Vector    3  Occ=1.982400D+00  E=-7.429710D-01  Symmetry=a
              MO Center= -6.4D-02, -4.1D-02, -5.4D-05, r^2= 6.5D-01
   Bfn.  Coefficient  Atom+Function         Bfn.  Coefficient  Atom+Function  
  ----- ------------  ---------------      ----- ------------  ---------------
    10      0.430332  1 O  pz                13      0.388261  1 O  pz         
     7      0.358667  1 O  pz         

 Vector    4  Occ=1.978232D+00  E=-5.837127D-01  Symmetry=a
              MO Center= -2.0D-02,  3.8D-01, -2.0D-06, r^2= 5.7D-01
   Bfn.  Coefficient  Atom+Function         Bfn.  Coefficient  Atom+Function  
  ----- ------------  ---------------      ----- ------------  ---------------
     9      0.326063  1 O  py                 6      0.274881  1 O  py         
    32      0.255318  2 H  s                 31      0.184033  2 H  s          
    12      0.180399  1 O  py         

 Vector    5  Occ=1.976961D+00  E=-5.249326D-01  Symmetry=a
              MO Center=  3.2D-01, -1.7D-01, -1.3D-06, r^2= 6.2D-01
   Bfn.  Coefficient  Atom+Function         Bfn.  Coefficient  Atom+Function  
  ----- ------------  ---------------      ----- ------------  ---------------
     8      0.326723  1 O  px                 5      0.272265  1 O  px         
    46      0.267503  3 H  s                 11      0.187086  1 O  px         
    45      0.184615  3 H  s          

 Vector    6  Occ=2.376000D-02  E=-2.585778D-02  Symmetry=a
              MO Center=  5.1D-01, -1.8D-01, -7.4D-06, r^2= 6.4D-01
   Bfn.  Coefficient  Atom+Function         Bfn.  Coefficient  Atom+Function  
  ----- ------------  ---------------      ----- ------------  ---------------
    46      0.648074  3 H  s                  5     -0.531726  1 O  px         
     8     -0.428117  1 O  px                 2     -0.342038  1 O  s          
    45      0.291833  3 H  s                  4     -0.206476  1 O  s          
     3     -0.174140  1 O  s          

 Vector    7  Occ=2.240934D-02  E=-2.446696D-02  Symmetry=a
              MO Center= -4.1D-02,  5.0D-01, -5.3D-06, r^2= 6.7D-01
   Bfn.  Coefficient  Atom+Function         Bfn.  Coefficient  Atom+Function  
  ----- ------------  ---------------      ----- ------------  ---------------
    32      0.662830  2 H  s                  6     -0.558837  1 O  py         
     9     -0.452123  1 O  py                31      0.297454  2 H  s          
     2     -0.246458  1 O  s                  4     -0.163714  1 O  s          

 Vector    8  Occ=1.728516D-02  E=-1.602329D-02  Symmetry=a
              MO Center= -4.4D-03, -1.1D-03, -6.0D-05, r^2= 1.2D+00
   Bfn.  Coefficient  Atom+Function         Bfn.  Coefficient  Atom+Function  
  ----- ------------  ---------------      ----- ------------  ---------------
    13      0.772632  1 O  pz                 7     -0.651253  1 O  pz         
    10     -0.300187  1 O  pz         

 Vector    9  Occ=0.000000D+00  E= 2.932079D-01  Symmetry=a
              MO Center=  2.9D-01,  2.3D-01,  3.6D-05, r^2= 4.8D+00
   Bfn.  Coefficient  Atom+Function         Bfn.  Coefficient  Atom+Function  
  ----- ------------  ---------------      ----- ------------  ---------------
     4      2.356996  1 O  s                 33     -1.197727  2 H  s          
    47     -1.133678  3 H  s                 11      0.690741  1 O  px         
    12      0.522863  1 O  py                38      0.497690  2 H  py         
    51      0.429031  3 H  px                32     -0.341368  2 H  s          
    46     -0.254214  3 H  s                 52     -0.174422  3 H  py         

 Vector   10  Occ=0.000000D+00  E= 3.354949D-01  Symmetry=a
              MO Center=  5.4D-01,  3.3D-01, -2.4D-07, r^2= 5.6D+00
   Bfn.  Coefficient  Atom+Function         Bfn.  Coefficient  Atom+Function  
  ----- ------------  ---------------      ----- ------------  ---------------
    47     -2.042646  3 H  s                 33      2.025058  2 H  s          
    12     -0.675268  1 O  py                11      0.457932  1 O  px         
    46      0.351809  3 H  s                 38     -0.322341  2 H  py         
    51      0.306585  3 H  px                32     -0.291567  2 H  s          

 Vector   11  Occ=0.000000D+00  E= 6.120887D-01  Symmetry=a
              MO Center=  1.8D-01,  6.3D-02, -2.6D-05, r^2= 2.0D+00
   Bfn.  Coefficient  Atom+Function         Bfn.  Coefficient  Atom+Function  
  ----- ------------  ---------------      ----- ------------  ---------------
     4      3.264352  1 O  s                 32     -2.494602  2 H  s          
    46     -2.114713  3 H  s                 11      1.426939  1 O  px         
    12      1.238537  1 O  py                38      0.614666  2 H  py         
    51      0.549638  3 H  px                21     -0.194907  1 O  d  0       
     2      0.159656  1 O  s          

 Vector   12  Occ=0.000000D+00  E= 6.565546D-01  Symmetry=a
              MO Center= -3.3D-01, -1.7D-01,  3.8D-07, r^2= 2.5D+00
   Bfn.  Coefficient  Atom+Function         Bfn.  Coefficient  Atom+Function  
  ----- ------------  ---------------      ----- ------------  ---------------
    12      2.397661  1 O  py                46      2.196585  3 H  s          
    32     -1.992584  2 H  s                 11     -1.805503  1 O  px         
    33     -0.828874  2 H  s                 47      0.811240  3 H  s          
    51     -0.668911  3 H  px                38      0.654813  2 H  py         
    23     -0.352177  1 O  d  2              52      0.294033  3 H  py         

 Vector   13  Occ=0.000000D+00  E= 8.104138D-01  Symmetry=a
              MO Center= -1.7D-01, -1.3D-01, -5.1D-06, r^2= 2.2D+00
   Bfn.  Coefficient  Atom+Function         Bfn.  Coefficient  Atom+Function  
  ----- ------------  ---------------      ----- ------------  ---------------
     4      1.894001  1 O  s                 11      1.643987  1 O  px         
    32     -1.497644  2 H  s                 46     -1.411645  3 H  s          
    12      1.165545  1 O  py                52     -1.005107  3 H  py         
    37     -0.927342  2 H  px                38      0.427963  2 H  py         
     2      0.187284  1 O  s          

 Vector   14  Occ=0.000000D+00  E= 8.457578D-01  Symmetry=a
              MO Center=  3.7D-01,  2.2D-01, -9.0D-07, r^2= 1.7D+00
   Bfn.  Coefficient  Atom+Function         Bfn.  Coefficient  Atom+Function  
  ----- ------------  ---------------      ----- ------------  ---------------
    53     -0.843535  3 H  pz                39      0.826846  2 H  pz         

 Vector   15  Occ=0.000000D+00  E= 9.737082D-01  Symmetry=a
              MO Center=  6.6D-02,  5.8D-02,  1.8D-05, r^2= 2.1D+00
   Bfn.  Coefficient  Atom+Function         Bfn.  Coefficient  Atom+Function  
  ----- ------------  ---------------      ----- ------------  ---------------
    13      1.313788  1 O  pz                39     -1.026647  2 H  pz         
    53     -0.983261  3 H  pz         

 Vector   16  Occ=0.000000D+00  E= 1.122682D+00  Symmetry=a
              MO Center= -1.4D-01, -9.0D-02,  6.4D-05, r^2= 2.0D+00
   Bfn.  Coefficient  Atom+Function         Bfn.  Coefficient  Atom+Function  
  ----- ------------  ---------------      ----- ------------  ---------------
     4      7.344748  1 O  s                 32     -3.299882  2 H  s          
    46     -2.832238  3 H  s                 38      1.610772  2 H  py         
    11      1.315419  1 O  px                51      1.224534  3 H  px         
    12      1.167637  1 O  py                 2     -0.794460  1 O  s          
     8      0.791284  1 O  px                52     -0.760442  3 H  py         

 Vector   17  Occ=0.000000D+00  E= 1.174674D+00  Symmetry=a
              MO Center=  2.6D-01,  1.8D-01,  2.8D-07, r^2= 2.2D+00
   Bfn.  Coefficient  Atom+Function         Bfn.  Coefficient  Atom+Function  
  ----- ------------  ---------------      ----- ------------  ---------------
    12      1.533118  1 O  py                46      1.280736  3 H  s          
    11     -1.201424  1 O  px                37      1.182452  2 H  px         
    32     -0.944269  2 H  s                 52     -0.945054  3 H  py         
    51     -0.696214  3 H  px                 4     -0.416001  1 O  s          
    47      0.213893  3 H  s          

 Vector   18  Occ=0.000000D+00  E= 1.380124D+00  Symmetry=a
              MO Center=  1.0D+00, -3.9D-01,  4.9D-07, r^2= 1.4D+00
   Bfn.  Coefficient  Atom+Function         Bfn.  Coefficient  Atom+Function  
  ----- ------------  ---------------      ----- ------------  ---------------
     4      2.327879  1 O  s                 51      2.235291  3 H  px         
    46     -1.716048  3 H  s                 11      0.909244  1 O  px         
    47     -0.853038  3 H  s                 52     -0.745712  3 H  py         
     2      0.694360  1 O  s                  8      0.591023  1 O  px         
    38      0.389437  2 H  py                12     -0.337908  1 O  py         


 Wrote Lagrangian and 1- and 2-particle density matrices to ./H2O.mcpdm


     Multipole analysis of the density
     ---------------------------------

     L   x y z        total        nuclear
     -   - - -        -----        -------
     0   0 0 0     -0.000000     10.000000

     1   1 0 0      0.581218     -0.000000
     1   0 1 0      0.393433     -0.000000
     1   0 0 1      0.000002      0.000000

     2   2 0 0     -4.108722      2.679864
     2   1 1 0     -0.805303     -1.317440
     2   1 0 1     -0.000004      0.000000
     2   0 2 0     -3.553557      3.519233
     2   0 1 1     -0.000002      0.000000
     2   0 0 2     -5.500180      0.000000


  Mulliken analysis of the total density
  --------------------------------------

    Atom       Charge   Shell Charges
 -----------   ------   -------------------------------------------------------
    1 O    8     8.48   1.95  1.00  0.23  0.60  1.29  2.09  1.29  0.00  0.02  0.00
    2 H    1     0.77   0.26  0.38  0.04  0.02  0.06  0.01
    3 H    1     0.76   0.25  0.38  0.05  0.02  0.06  0.01

    Mulliken analysis of the active space density
    ---------------------------------------------

    Atom       Charge   Shell Charges
 -----------   ------   -------------------------------------------------------
    1 O    8     8.48   1.95  1.00  0.23  0.60  1.29  2.09  1.29  0.00  0.02  0.00
    2 H    1     0.77   0.26  0.38  0.04  0.02  0.06  0.01
    3 H    1     0.76   0.25  0.38  0.05  0.02  0.06  0.01

 Parallel integral file used      16 records with       0 large values


 Task  times  cpu:       17.1s     wall:       29.1s


                                NWChem Input Module
                                -------------------


                                 NWChem SCF Module
                                 -----------------


                                        H2O



  ao basis        = "ao basis"
  functions       =    58
  atoms           =     3
  closed shells   =     5
  open shells     =     0
  charge          =   0.00
  wavefunction    = RHF 
  input vectors   = ./h2o.mos
  output vectors  = ./h2o-trash.mos
  use symmetry    = F
  symmetry adapt  = F


 Summary of "ao basis" -> "ao basis" (spherical)
 ------------------------------------------------------------------------------
       Tag                 Description            Shells   Functions and Types
 ---------------- ------------------------------  ------  ---------------------
 O                          cc-pVTZ                 10       30   4s3p2d1f
 H                          cc-pVTZ                  6       14   3s2p1d



 Forming initial guess at      29.2s


 Loading old vectors from job with title :

H2O


 Starting SCF solution at      29.2s



 ----------------------------------------------
         Quadratically convergent ROHF

 Convergence threshold     :          1.000E-04
 Maximum no. of iterations :           30
 Final Fock-matrix accuracy:          1.000E-07
 ----------------------------------------------


 Integral file          = ./H2O.aoints.0
 Record size in doubles =  65536        No. of integs per rec  =  43688
 Max. records in memory =     49        Max. records in file   = 252486
 No. of bits per label  =      8        No. of bits per value  =     64


 #quartets = 3.213D+04 #integrals = 6.608D+05 #direct =  0.0% #cached =100.0%



       Final RHF  results 
       ------------------ 

         Total SCF energy =    -76.054478914320
      One-electron energy =   -122.986031174410
      Two-electron energy =     37.806830342821
 Nuclear repulsion energy =      9.124721917270

        Time for solution =      0.3s


             Final eigenvalues
             -----------------

              1      
    1  -20.5423
    2   -1.3480
    3   -0.7430
    4   -0.5837
    5   -0.5249
    6   -0.0259
    7   -0.0245
    8   -0.0160
    9    0.2932
   10    0.3355
   11    0.6121
   12    0.6566
   13    0.8104
   14    0.8458
   15    0.9737

                       ROHF Final Molecular Orbital Analysis
                       -------------------------------------

 Vector    2  Occ=2.000000D+00  E=-1.347992D+00
              MO Center= -3.0D-01, -2.0D-01,  5.7D-05, r^2= 4.1D-01
   Bfn.  Coefficient  Atom+Function         Bfn.  Coefficient  Atom+Function  
  ----- ------------  ---------------      ----- ------------  ---------------
     2      0.509887  1 O  s                  4      0.388372  1 O  s          

 Vector    3  Occ=2.000000D+00  E=-7.429710D-01
              MO Center= -6.4D-02, -4.1D-02, -5.4D-05, r^2= 6.5D-01
   Bfn.  Coefficient  Atom+Function         Bfn.  Coefficient  Atom+Function  
  ----- ------------  ---------------      ----- ------------  ---------------
    10      0.430332  1 O  pz                13      0.388261  1 O  pz         
     7      0.358667  1 O  pz         

 Vector    4  Occ=2.000000D+00  E=-5.837127D-01
              MO Center= -2.0D-02,  3.8D-01, -2.0D-06, r^2= 5.7D-01
   Bfn.  Coefficient  Atom+Function         Bfn.  Coefficient  Atom+Function  
  ----- ------------  ---------------      ----- ------------  ---------------
     9      0.326063  1 O  py                 6      0.274881  1 O  py         
    32      0.255318  2 H  s                 31      0.184033  2 H  s          
    12      0.180399  1 O  py         

 Vector    5  Occ=2.000000D+00  E=-5.249326D-01
              MO Center=  3.2D-01, -1.7D-01, -1.3D-06, r^2= 6.2D-01
   Bfn.  Coefficient  Atom+Function         Bfn.  Coefficient  Atom+Function  
  ----- ------------  ---------------      ----- ------------  ---------------
     8      0.326723  1 O  px                 5      0.272265  1 O  px         
    46      0.267503  3 H  s                 11      0.187086  1 O  px         
    45      0.184615  3 H  s          

 Vector    6  Occ=0.000000D+00  E=-2.585778D-02
              MO Center=  5.1D-01, -1.8D-01, -7.4D-06, r^2= 6.4D-01
   Bfn.  Coefficient  Atom+Function         Bfn.  Coefficient  Atom+Function  
  ----- ------------  ---------------      ----- ------------  ---------------
    46      0.648074  3 H  s                  5     -0.531726  1 O  px         
     8     -0.428117  1 O  px                 2     -0.342038  1 O  s          
    45      0.291833  3 H  s                  4     -0.206476  1 O  s          
     3     -0.174140  1 O  s          

 Vector    7  Occ=0.000000D+00  E=-2.446696D-02
              MO Center= -4.1D-02,  5.0D-01, -5.3D-06, r^2= 6.7D-01
   Bfn.  Coefficient  Atom+Function         Bfn.  Coefficient  Atom+Function  
  ----- ------------  ---------------      ----- ------------  ---------------
    32      0.662830  2 H  s                  6     -0.558837  1 O  py         
     9     -0.452123  1 O  py                31      0.297454  2 H  s          
     2     -0.246458  1 O  s                  4     -0.163714  1 O  s          

 Vector    8  Occ=0.000000D+00  E=-1.602329D-02
              MO Center= -4.4D-03, -1.1D-03, -6.0D-05, r^2= 1.2D+00
   Bfn.  Coefficient  Atom+Function         Bfn.  Coefficient  Atom+Function  
  ----- ------------  ---------------      ----- ------------  ---------------
    13      0.772632  1 O  pz                 7     -0.651253  1 O  pz         
    10     -0.300187  1 O  pz         

 Vector    9  Occ=0.000000D+00  E= 2.932079D-01
              MO Center=  2.9D-01,  2.3D-01,  3.6D-05, r^2= 4.8D+00
   Bfn.  Coefficient  Atom+Function         Bfn.  Coefficient  Atom+Function  
  ----- ------------  ---------------      ----- ------------  ---------------
     4      2.356996  1 O  s                 33     -1.197727  2 H  s          
    47     -1.133678  3 H  s                 11      0.690741  1 O  px         
    12      0.522863  1 O  py                38      0.497690  2 H  py         
    51      0.429031  3 H  px                32     -0.341368  2 H  s          
    46     -0.254214  3 H  s                 52     -0.174422  3 H  py         

 Vector   10  Occ=0.000000D+00  E= 3.354949D-01
              MO Center=  5.4D-01,  3.3D-01, -2.4D-07, r^2= 5.6D+00
   Bfn.  Coefficient  Atom+Function         Bfn.  Coefficient  Atom+Function  
  ----- ------------  ---------------      ----- ------------  ---------------
    47     -2.042646  3 H  s                 33      2.025058  2 H  s          
    12     -0.675268  1 O  py                11      0.457932  1 O  px         
    46      0.351809  3 H  s                 38     -0.322341  2 H  py         
    51      0.306585  3 H  px                32     -0.291567  2 H  s          

 Vector   11  Occ=0.000000D+00  E= 6.120887D-01
              MO Center=  1.8D-01,  6.3D-02, -2.6D-05, r^2= 2.0D+00
   Bfn.  Coefficient  Atom+Function         Bfn.  Coefficient  Atom+Function  
  ----- ------------  ---------------      ----- ------------  ---------------
     4      3.264352  1 O  s                 32     -2.494602  2 H  s          
    46     -2.114713  3 H  s                 11      1.426939  1 O  px         
    12      1.238537  1 O  py                38      0.614666  2 H  py         
    51      0.549638  3 H  px                21     -0.194907  1 O  d  0       
     2      0.159656  1 O  s          

 Vector   12  Occ=0.000000D+00  E= 6.565546D-01
              MO Center= -3.3D-01, -1.7D-01,  3.8D-07, r^2= 2.5D+00
   Bfn.  Coefficient  Atom+Function         Bfn.  Coefficient  Atom+Function  
  ----- ------------  ---------------      ----- ------------  ---------------
    12      2.397661  1 O  py                46      2.196585  3 H  s          
    32     -1.992584  2 H  s                 11     -1.805503  1 O  px         
    33     -0.828874  2 H  s                 47      0.811240  3 H  s          
    51     -0.668911  3 H  px                38      0.654813  2 H  py         
    23     -0.352177  1 O  d  2              52      0.294033  3 H  py         

 Vector   13  Occ=0.000000D+00  E= 8.104138D-01
              MO Center= -1.7D-01, -1.3D-01, -5.1D-06, r^2= 2.2D+00
   Bfn.  Coefficient  Atom+Function         Bfn.  Coefficient  Atom+Function  
  ----- ------------  ---------------      ----- ------------  ---------------
     4      1.894001  1 O  s                 11      1.643987  1 O  px         
    32     -1.497644  2 H  s                 46     -1.411645  3 H  s          
    12      1.165545  1 O  py                52     -1.005107  3 H  py         
    37     -0.927342  2 H  px                38      0.427963  2 H  py         
     2      0.187284  1 O  s          

 Vector   14  Occ=0.000000D+00  E= 8.457578D-01
              MO Center=  3.7D-01,  2.2D-01, -9.0D-07, r^2= 1.7D+00
   Bfn.  Coefficient  Atom+Function         Bfn.  Coefficient  Atom+Function  
  ----- ------------  ---------------      ----- ------------  ---------------
    53     -0.843535  3 H  pz                39      0.826846  2 H  pz         

 Vector   15  Occ=0.000000D+00  E= 9.737082D-01
              MO Center=  6.6D-02,  5.8D-02,  1.8D-05, r^2= 2.1D+00
   Bfn.  Coefficient  Atom+Function         Bfn.  Coefficient  Atom+Function  
  ----- ------------  ---------------      ----- ------------  ---------------
    13      1.313788  1 O  pz                39     -1.026647  2 H  pz         
    53     -0.983261  3 H  pz         


 center of mass
 --------------
 x =  -0.07599894 y =  -0.05059449 z =   0.00000000

 moments of inertia (a.u.)
 ------------------
           3.605346498210           1.239760535016           0.000000000000
           1.239760535016           2.833002082974           0.000000000000
           0.000000000000           0.000000000000           6.438348581184

  Mulliken analysis of the total density
  --------------------------------------

    Atom       Charge   Shell Charges
 -----------   ------   -------------------------------------------------------
    1 O    8     8.48   1.95  1.00  0.23  0.60  1.28  2.11  1.29  0.00  0.02  0.00
    2 H    1     0.76   0.26  0.37  0.04  0.02  0.06  0.01
    3 H    1     0.76   0.25  0.38  0.05  0.02  0.06  0.01

       Multipole analysis of the density wrt the origin
       ------------------------------------------------

     L   x y z        total         open         nuclear
     -   - - -        -----         ----         -------
     0   0 0 0     -0.000000      0.000000     10.000000

     1   1 0 0      0.592023      0.000000     -0.000000
     1   0 1 0      0.400304      0.000000     -0.000000
     1   0 0 1      0.000001      0.000000      0.000000

     2   2 0 0     -4.086415      0.000000      2.679864
     2   1 1 0     -0.811824      0.000000     -1.317440
     2   1 0 1     -0.000003      0.000000      0.000000
     2   0 2 0     -3.527667      0.000000      3.519233
     2   0 1 1     -0.000002      0.000000      0.000000
     2   0 0 2     -5.483393      0.000000      0.000000


 Parallel integral file used      16 records with       0 large values

                   NWChem Extensible Many-Electron Theory Module
                   ---------------------------------------------

              ======================================================
                   This portion of the program was automatically
                  generated by a Tensor Contraction Engine (TCE).
                  The development of this portion of the program
                 and TCE was supported by US Department of Energy,
                Office of Science, Office of Basic Energy Science.
                      TCE is a product of Battelle and PNNL.
              Please cite: S.Hirata, J.Phys.Chem.A 107, 9887 (2003).
              ======================================================

                                        H2O


            General Information
            -------------------
      Number of processors :     1
         Wavefunction type : Restricted Hartree-Fock
          No. of electrons :    10
           Alpha electrons :     5
            Beta electrons :     5
           No. of orbitals :   116
            Alpha orbitals :    58
             Beta orbitals :    58
        Alpha frozen cores :     0
         Beta frozen cores :     0
     Alpha frozen virtuals :     0
      Beta frozen virtuals :     0
         Spin multiplicity : singlet 
    Number of AO functions :    58
       Number of AO shells :    22
        Use of symmetry is : off
      Symmetry adaption is : off
         Schwarz screening : 0.10D-09

          Correlation Information
          -----------------------
          Calculation type : Coupled-cluster singles & doubles                           
   Perturbative correction : none                                                        
            Max iterations :      100
        Residual threshold : 0.10D-06
     T(0) DIIS level shift : 0.00D+00
     L(0) DIIS level shift : 0.00D+00
     T(1) DIIS level shift : 0.00D+00
     L(1) DIIS level shift : 0.00D+00
     T(R) DIIS level shift : 0.00D+00
     T(I) DIIS level shift : 0.00D+00
   CC-T/L Amplitude update :  5-th order DIIS
                I/O scheme : Global Array Library
        L-threshold :  0.10D-06
        EOM-threshold :  0.10D-06
 no EOMCCSD initial starts read in
 TCE RESTART OPTIONS
 READ_INT:   F
 WRITE_INT:  F
 READ_TA:    F
 WRITE_TA:   F
 READ_XA:    F
 WRITE_XA:   F
 READ_IN3:   F
 WRITE_IN3:  F
 SLICE:      F
 D4D5:       F
 quantumc:   F
 qrotation:  F
 pwtce:      F
 qducc:      T
 nacto:                         0
 nrotv:                         0
 nrot:                          0

            Memory Information
            ------------------
          Available GA space size is    1610609372 doubles
          Available MA space size is    1610609780 doubles

 Maximum block size        32 doubles

 tile_dim =     27

 Block   Spin    Irrep     Size     Offset   Alpha
 -------------------------------------------------
   1    alpha     a      5 doubles       0       1
   2    beta      a      5 doubles       5       1
   3    alpha     a     26 doubles      10       3
   4    alpha     a     27 doubles      36       4
   5    beta      a     26 doubles      63       3
   6    beta      a     27 doubles      89       4

 Global array virtual files algorithm will be used

 Parallel file system coherency ......... OK

 Integral file          = ./H2O.aoints.0
 Record size in doubles =  65536        No. of integs per rec  =  43688
 Max. records in memory =     49        Max. records in file   = 252486
 No. of bits per label  =      8        No. of bits per value  =     64


 #quartets = 3.213D+04 #integrals = 6.608D+05 #direct =  0.0% #cached =100.0%


 Fock matrix recomputed
 1-e file size   =             3364
 1-e file name   = ./H2O.f1
 Cpu & wall time / sec            0.3            0.3
 4-electron integrals stored in orbital form

 v2    file size   =          3631290
 4-index algorithm nr.  13 is used
 imaxsize =       30
 imaxsize ichop =        0
 Cpu & wall time / sec            4.2            4.2
 T1-number-of-tasks                    2

 t1 file size   =              265
 t1 file name   = ./H2O.t1
 t1 file handle =       -998
 T2-number-of-boxes                    7

 t2 file size   =           122900
 t2 file name   = ./H2O.t2
 t2 file handle =       -996
CCSD iterations
 ---------------------------------------------------------
 Iter          Residuum       Correlation     Cpu    Wall 
 ---------------------------------------------------------
NEW TASK SCHEDULING
CCSD_T1_NTS --- OK
CCSD_T2_NTS --- OK
    1   1.1998222837125  -0.4482032383410     0.6     0.6
    2   2.3081807376912   0.0785430384764     0.6     0.6
    3   4.7432491333432  -0.9842714326752     0.6     0.6
    4  10.3461696179448   1.1458987082412     0.6     0.6
    5  11.8084569279096  -2.7551928729557     0.6     0.6
 MICROCYCLE DIIS UPDATE:                    5                    5
    6   0.0888237006483  -0.2772311337452     0.6     0.6
    7   0.0915024518101  -0.2792198143248     0.6     0.6
    8   0.1859336898371  -0.2717432039108     0.6     0.6
    9   0.4199108973750  -0.2726867402173     0.7     0.7
   10   0.9924604957023  -0.0942199006199     0.6     0.6
 MICROCYCLE DIIS UPDATE:                   10                    5
   11   0.0107585759457  -0.2815090635017     0.6     0.6
   12   0.0074406487233  -0.2812850610725     0.6     0.6
   13   0.0141321113324  -0.2826713039769     0.6     0.6
   14   0.0339050490658  -0.2790320139880     0.6     0.6
   15   0.0822980141793  -0.2877555908744     0.6     0.6
 MICROCYCLE DIIS UPDATE:                   15                    5
   16   0.0005806850390  -0.2817856908254     0.6     0.6
   17   0.0005833359598  -0.2817046607950     0.6     0.6
   18   0.0010398196957  -0.2818885051298     0.6     0.6
   19   0.0021603346133  -0.2815095711311     0.6     0.6
   20   0.0046453370223  -0.2823095217300     0.6     0.6
 MICROCYCLE DIIS UPDATE:                   20                    5
   21   0.0000642583365  -0.2817668770122     0.6     0.6
   22   0.0000609157261  -0.2817684287070     0.6     0.6
   23   0.0001069998382  -0.2817670597848     0.6     0.6
   24   0.0002438464601  -0.2817654850261     0.6     0.6
   25   0.0005709560232  -0.2817792463372     0.6     0.6
 MICROCYCLE DIIS UPDATE:                   25                    5
   26   0.0000140311275  -0.2817682436356     0.6     0.6
   27   0.0000131301137  -0.2817666232126     0.6     0.6
   28   0.0000224346383  -0.2817703628101     0.6     0.6
   29   0.0000465934939  -0.2817623848850     0.6     0.6
   30   0.0000999530609  -0.2817793837771     0.6     0.6
 MICROCYCLE DIIS UPDATE:                   30                    5
   31   0.0000022733836  -0.2817677880479     0.6     0.6
   32   0.0000027308807  -0.2817678113688     0.6     0.6
   33   0.0000055178100  -0.2817678333536     0.6     0.6
   34   0.0000128237580  -0.2817675840177     0.6     0.6
   35   0.0000302987095  -0.2817686014491     0.6     0.6
 MICROCYCLE DIIS UPDATE:                   35                    5
   36   0.0000004909131  -0.2817678183022     0.6     0.6
   37   0.0000003859967  -0.2817677771974     0.6     0.6
   38   0.0000005902436  -0.2817678746258     0.6     0.6
   39   0.0000012130107  -0.2817676654668     0.6     0.6
   40   0.0000026105236  -0.2817681112194     0.6     0.6
 MICROCYCLE DIIS UPDATE:                   40                    5
   41   0.0000000785350  -0.2817678058268     0.6     0.6
 -----------------------------------------------------------------
 Iterations converged
 CCSD correlation energy / hartree =        -0.281767805826799
 CCSD total energy / hartree       =       -76.336246720147102

 Singles contributions

 Doubles contributions
     6a   (alpha)     7a   (alpha) ---     4a   (alpha)     5a   (alpha)        0.0206951638
     6a   (alpha)     7a   (alpha) ---     5a   (alpha)     4a   (alpha)       -0.0206951638
     6a   (alpha)     8a   (alpha) ---     3a   (alpha)     5a   (alpha)        0.0251790124
     6a   (alpha)     8a   (alpha) ---     5a   (alpha)     3a   (alpha)       -0.0251790124
     7a   (alpha)     6a   (alpha) ---     4a   (alpha)     5a   (alpha)       -0.0206951638
     7a   (alpha)     6a   (alpha) ---     5a   (alpha)     4a   (alpha)        0.0206951638
     7a   (alpha)     8a   (alpha) ---     3a   (alpha)     4a   (alpha)        0.0249691131
     7a   (alpha)     8a   (alpha) ---     4a   (alpha)     3a   (alpha)       -0.0249691131
     8a   (alpha)     6a   (alpha) ---     3a   (alpha)     5a   (alpha)       -0.0251790124
     8a   (alpha)     6a   (alpha) ---     5a   (alpha)     3a   (alpha)        0.0251790124
     8a   (alpha)     7a   (alpha) ---     3a   (alpha)     4a   (alpha)       -0.0249691131
     8a   (alpha)     7a   (alpha) ---     4a   (alpha)     3a   (alpha)        0.0249691131
     6a   (alpha)     6a   (beta ) ---     5a   (alpha)     5a   (beta )       -0.0758658175
     6a   (alpha)     7a   (beta ) ---     5a   (alpha)     4a   (beta )       -0.0263387555
     6a   (alpha)     8a   (beta ) ---     5a   (alpha)     3a   (beta )       -0.0346257740
     7a   (alpha)     6a   (beta ) ---     4a   (alpha)     5a   (beta )       -0.0263387555
     7a   (alpha)     7a   (beta ) ---     4a   (alpha)     4a   (beta )       -0.0705686734
     7a   (alpha)     8a   (beta ) ---     4a   (alpha)     3a   (beta )       -0.0342474364
     8a   (alpha)     6a   (beta ) ---     3a   (alpha)     5a   (beta )       -0.0346257740
     8a   (alpha)     7a   (beta ) ---     3a   (alpha)     4a   (beta )       -0.0342474364
     8a   (alpha)     8a   (beta ) ---     3a   (alpha)     3a   (beta )       -0.0523556328
     8a   (alpha)    16a   (beta ) ---     3a   (alpha)     2a   (beta )       -0.0219668071
    16a   (alpha)     8a   (beta ) ---     2a   (alpha)     3a   (beta )       -0.0219668071
 Ground state specification:
 exp(T)|Ref>~(1+T)|Ref>
 ------- a(p)+/a(q) strings ----------

 singles norm

 doubles norm

 Reference string
   1.0000000000000000      :(1a)+ (2a)+ (3a)+ (4a)+ (5a)+ (1b)+ (2b)+ (3b)+ (4b)+ (5b)+ |0>

 Singles strings

 Doubles strings
 -------------------------------------
 enrep_tce =    9.1247219172695697     
  EHF(total)         =       -76.05447891
  Shift (HFtot-HFA)  =         0.00000000
 ALL OCCUPIED ORBITALS ARE ACTIVE IN DUCC --> NO SHIFT
 Number of active orbitals                    8
 Number of active alpha electrons                    5
 Number of active beta electrons                    5
  nos                    10
  nvs                   106
 noas                     5
 nobs                     5
 nvas                    53
 nvbs                    53
 nactv                     3
 DUCC MODEL =                     3
 NONHF =  T
 F-T1 correlation    =   -4.4620926606888633E-005
 V-T1-T1 correlation =    7.7627127407300283E-006
 V-T2 correlation    =  -0.28173094761317685     
 Total correlation   =  -0.28176780582704303     
 F-T1(Ext) correlation         =   -5.0818734591629286E-005
 V-T1(Ext)-T1(Ext) correlation =    1.7837457560495761E-006
 V-T2(Ext) correlation         =  -0.19517288369366553     
 Total Ext correlation         =  -0.19522191868250111     
1-BODY TIME =    2.171 SECONDS.
  HHHH TIME =   12.919 SECONDS.
  PPPP TIME =    0.000 SECONDS.
  HHHP TIME =    3.510 SECONDS.
  PPPH TIME =    0.512 SECONDS.
  HPHP TIME =    0.250 SECONDS.
  HHPP TIME =    1.730 SECONDS.
 ONE-BODY UNITARY CHECK
 TWO-BODY UNITARY CHECK
 TWO-BODY ANTISYMMETRY CHECK
 TRANSFORMED ~FOCK~ MATRIX
    1    1       -20.3514789723
    1    2        -2.0283657784
    1    3         0.0000136816
    1    4         0.0353182908
    1    5         0.0253304540
    1    6         0.0026669670
    1    7         0.0019351510
    1    8        -0.0000005470
    2    1        -2.0283657784
    2    2        -1.3520685601
    2    3         0.0000473388
    2    4        -0.2779311690
    2    5        -0.2115272245
    2    6         0.0019314933
    2    7         0.0013408496
    2    8        -0.0000009892
    3    1         0.0000136816
    3    2         0.0000473388
    3    3        -0.5521254210
    3    4         0.0000220647
    3    5         0.0000168321
    3    6        -0.0000006776
    3    7        -0.0000005022
    3    8         0.0098235523
    4    1         0.0353182908
    4    2        -0.2779311690
    4    3         0.0000220647
    4    4        -0.8322708605
    4    5        -0.0456353667
    4    6         0.0027196156
    4    7         0.0020843732
    4    8         0.0000001664
    5    1         0.0253304540
    5    2        -0.2115272245
    5    3         0.0000168321
    5    4        -0.0456353667
    5    5        -0.7978466819
    5    6         0.0022869501
    5    7         0.0014849143
    5    8         0.0000001165
    6    1         0.0026669670
    6    2         0.0019314933
    6    3        -0.0000006776
    6    4         0.0027196156
    6    5         0.0022869501
    6    6         0.8301566542
    6    7         0.0015284872
    6    8        -0.0000003562
    7    1         0.0019351510
    7    2         0.0013408496
    7    3        -0.0000005022
    7    4         0.0020843732
    7    5         0.0014849143
    7    6         0.0015284872
    7    7         0.8696656452
    7    8        -0.0000004927
    8    1        -0.0000005470
    8    2        -0.0000009892
    8    3         0.0098235523
    8    4         0.0000001664
    8    5         0.0000001165
    8    6        -0.0000003562
    8    7        -0.0000004927
    8    8         1.1701484797
 begin_one_electron_integrals
    1    1       -32.8617303825
    1    2        -2.0727418788
    1    3        -0.0000305364
    1    4         0.1891504775
    1    5         0.1447990209
    1    6        -0.2508877338
    1    7        -0.1807013773
    1    8         0.0000447589
    2    1        -2.0727418788
    2    2        -7.9028297709
    2    3         0.0000544668
    2    4        -0.2783085180
    2    5        -0.2113280693
    2    6         0.0833817032
    2    7         0.0577894028
    2    8         0.0000170719
    3    1        -0.0000305364
    3    2         0.0000544668
    3    3        -7.0171475290
    3    4         0.0000260273
    3    5         0.0000200926
    3    6        -0.0000377148
    3    7        -0.0000321178
    3    8         2.1310761695
    4    1         0.1891504775
    4    2        -0.2783085180
    4    3         0.0000260273
    4    4        -6.9072234564
    4    5        -0.1225370114
    4    6         0.5705858762
    4    7         1.9154488889
    4    8         0.0000558123
    5    1         0.1447990209
    5    2        -0.2113280693
    5    3         0.0000200926
    5    4        -0.1225370114
    5    5        -6.7889188073
    5    6         1.9208170688
    5    7        -0.5463661541
    5    8         0.0000388537
    6    1        -0.2508877338
    6    2         0.0833817032
    6    3        -0.0000377148
    6    4         0.5705858762
    6    5         1.9208170688
    6    6        -6.1880928754
    6    7         0.0531772796
    6    8        -0.0000089343
    7    1        -0.1807013773
    7    2         0.0577894028
    7    3        -0.0000321178
    7    4         1.9154488889
    7    5        -0.5463661541
    7    6         0.0531772796
    7    7        -6.2269289348
    7    8        -0.0000071963
    8    1         0.0000447589
    8    2         0.0000170719
    8    3         2.1310761695
    8    4         0.0000558123
    8    5         0.0000388537
    8    6        -0.0000089343
    8    7        -0.0000071963
    8    8        -5.5751454689
 end_one_electron_integrals
 begin_two_electron_integrals
    1    1    1    1        4.8304066355
    1    1    1    2       -0.0436752484
    1    1    1    3        0.0000333004
    1    1    1    4       -0.1125327508
    1    1    1    5       -0.0871964061
    1    1    1    6        0.2039514413
    1    1    1    7        0.1479725268
    1    1    1    8       -0.0000368347
    1    2    1    1       -0.0436752484
    1    2    1    2        0.0126276944
    1    2    1    3        0.0000001046
    1    2    1    4       -0.0012442656
    1    2    1    5       -0.0009431110
    1    2    1    6       -0.0006199212
    1    2    1    7       -0.0003969474
    1    2    1    8       -0.0000001634
    1    3    1    1        0.0000333004
    1    3    1    2        0.0000001046
    1    3    1    3        0.0232026797
    1    3    1    4       -0.0000008543
    1    3    1    5       -0.0000006650
    1    3    1    6        0.0000021656
    1    3    1    7        0.0000016524
    1    3    1    8       -0.0369568174
    1    4    1    1       -0.1125327508
    1    4    1    2       -0.0012442656
    1    4    1    3       -0.0000008543
    1    4    1    4        0.0201238280
    1    4    1    5        0.0033098356
    1    4    1    6       -0.0142708448
    1    4    1    7       -0.0320827098
    1    4    1    8        0.0000001929
    1    5    1    1       -0.0871964061
    1    5    1    2       -0.0009431110
    1    5    1    3       -0.0000006650
    1    5    1    4        0.0033098356
    1    5    1    5        0.0181497127
    1    5    1    6       -0.0317963638
    1    5    1    7        0.0043318969
    1    5    1    8        0.0000002213
    1    6    1    1        0.2039514413
    1    6    1    2       -0.0006199212
    1    6    1    3        0.0000021656
    1    6    1    4       -0.0142708448
    1    6    1    5       -0.0317963638
    1    6    1    6        0.0576167327
    1    6    1    7        0.0065341608
    1    6    1    8       -0.0000013602
    1    7    1    1        0.1479725268
    1    7    1    2       -0.0003969474
    1    7    1    3        0.0000016524
    1    7    1    4       -0.0320827098
    1    7    1    5        0.0043318969
    1    7    1    6        0.0065341608
    1    7    1    7        0.0545599851
    1    7    1    8       -0.0000009908
    1    8    1    1       -0.0000368347
    1    8    1    2       -0.0000001634
    1    8    1    3       -0.0369568174
    1    8    1    4        0.0000001929
    1    8    1    5        0.0000002213
    1    8    1    6       -0.0000013602
    1    8    1    7       -0.0000009908
    1    8    1    8        0.0546124608
    1    1    2    1       -0.0436752484
    1    1    2    2        1.0518816273
    1    1    2    3       -0.0000028156
    1    1    2    4       -0.0094239680
    1    1    2    5       -0.0067423122
    1    1    2    6       -0.0124932182
    1    1    2    7       -0.0083534189
    1    1    2    8       -0.0000037328
    1    2    2    1        0.0154615162
    1    2    2    2        0.0242687039
    1    2    2    3        0.0000004556
    1    2    2    4       -0.0022357335
    1    2    2    5       -0.0016935979
    1    2    2    6        0.0028875943
    1    2    2    7        0.0021567018
    1    2    2    8       -0.0000009070
    1    3    2    1        0.0000001868
    1    3    2    2        0.0000037853
    1    3    2    3        0.0191438216
    1    3    2    4        0.0000004363
    1    3    2    5        0.0000003403
    1    3    2    6       -0.0000006622
    1    3    2    7       -0.0000004377
    1    3    2    8       -0.0192858794
    1    4    2    1       -0.0014476973
    1    4    2    2       -0.0138152532
    1    4    2    3        0.0000006181
    1    4    2    4        0.0125676505
    1    4    2    5       -0.0003006510
    1    4    2    6       -0.0016739731
    1    4    2    7       -0.0139244945
    1    4    2    8       -0.0000009233
    1    5    2    1       -0.0010882018
    1    5    2    2       -0.0106742954
    1    5    2    3        0.0000004734
    1    5    2    4       -0.0002692745
    1    5    2    5        0.0124776963
    1    5    2    6       -0.0135747395
    1    5    2    7        0.0063257370
    1    5    2    8       -0.0000006750
    1    6    2    1       -0.0005654665
    1    6    2    2        0.0243163971
    1    6    2    3       -0.0000009823
    1    6    2    4       -0.0039242174
    1    6    2    5       -0.0238531996
    1    6    2    6        0.0219090477
    1    6    2    7       -0.0049779031
    1    6    2    8        0.0000009655
    1    7    2    1       -0.0003528505
    1    7    2    2        0.0177393149
    1    7    2    3       -0.0000006479
    1    7    2    4       -0.0247711275
    1    7    2    5        0.0103164452
    1    7    2    6       -0.0050488745
    1    7    2    7        0.0255043517
    1    7    2    8        0.0000007033
    1    8    2    1       -0.0000001756
    1    8    2    2       -0.0000050145
    1    8    2    3       -0.0363474204
    1    8    2    4       -0.0000018432
    1    8    2    5       -0.0000013561
    1    8    2    6        0.0000015605
    1    8    2    7        0.0000011269
    1    8    2    8        0.0270920927
    1    1    3    1        0.0000333004
    1    1    3    2       -0.0000028156
    1    1    3    3        1.0232824824
    1    1    3    4       -0.0000010139
    1    1    3    5       -0.0000008792
    1    1    3    6        0.0000097533
    1    1    3    7        0.0000081998
    1    1    3    8       -0.5124147285
    1    2    3    1        0.0000001868
    1    2    3    2        0.0000004625
    1    2    3    3        0.0211488789
    1    2    3    4        0.0000003728
    1    2    3    5        0.0000002846
    1    2    3    6       -0.0000005192
    1    2    3    7       -0.0000003433
    1    2    3    8       -0.0169279566
    1    3    3    1        0.0253848581
    1    3    3    2        0.0185907436
    1    3    3    3       -0.0000021512
    1    3    3    4        0.0051272634
    1    3    3    5        0.0039937249
    1    3    3    6       -0.0077287056
    1    3    3    7       -0.0055878672
    1    3    3    8        0.0000019204
    1    4    3    1       -0.0000008275
    1    4    3    2        0.0000005861
    1    4    3    3       -0.0039037475
    1    4    3    4       -0.0000011600
    1    4    3    5       -0.0000000044
    1    4    3    6        0.0000000644
    1    4    3    7        0.0000011022
    1    4    3    8        0.0036083668
    1    5    3    1       -0.0000006454
    1    5    3    2        0.0000004481
    1    5    3    3       -0.0030389147
    1    5    3    4       -0.0000000075
    1    5    3    5       -0.0000011381
    1    5    3    6        0.0000010782
    1    5    3    7       -0.0000005786
    1    5    3    8        0.0027809893
    1    6    3    1        0.0000021134
    1    6    3    2       -0.0000009769
    1    6    3    3        0.0044660793
    1    6    3    4        0.0000003902
    1    6    3    5        0.0000019350
    1    6    3    6       -0.0000018180
    1    6    3    7        0.0000004491
    1    6    3    8       -0.0060043250
    1    7    3    1        0.0000016154
    1    7    3    2       -0.0000006458
    1    7    3    3        0.0031305626
    1    7    3    4        0.0000020191
    1    7    3    5       -0.0000007455
    1    7    3    6        0.0000004155
    1    7    3    7       -0.0000021430
    1    7    3    8       -0.0043410399
    1    8    3    1       -0.0371194086
    1    8    3    2       -0.0358288866
    1    8    3    3        0.0000047935
    1    8    3    4       -0.0089053749
    1    8    3    5       -0.0069582611
    1    8    3    6        0.0105689836
    1    8    3    7        0.0076327097
    1    8    3    8       -0.0000032378
    1    1    4    1       -0.1125327508
    1    1    4    2       -0.0094239680
    1    1    4    3       -0.0000010139
    1    1    4    4        0.9123245851
    1    1    4    5        0.0194806389
    1    1    4    6       -0.1373078852
    1    1    4    7       -0.4510339063
    1    1    4    8       -0.0000117178
    1    2    4    1       -0.0014476973
[...]
    8    2    3    1       -0.0192858794
    8    2    3    2       -0.0511576871
    8    2    3    3        0.0000055748
    8    2    3    4       -0.0065266487
    8    2    3    5       -0.0051697140
    8    2    3    6        0.0138389626
    8    2    3    7        0.0099523238
    8    2    3    8       -0.0000048372
    8    3    3    1        0.0000019204
    8    3    3    2        0.0000078935
    8    3    3    3       -0.2001067527
    8    3    3    4        0.0000009805
    8    3    3    5        0.0000008339
    8    3    3    6       -0.0000047525
    8    3    3    7       -0.0000037512
    8    3    3    8        0.1621349884
    8    4    3    1       -0.0038634552
    8    4    3    2       -0.0012689684
    8    4    3    3       -0.0000042608
    8    4    3    4       -0.0058127028
    8    4    3    5       -0.0005095470
    8    4    3    6        0.0067395527
    8    4    3    7        0.0166778770
    8    4    3    8        0.0000021718
    8    5    3    1       -0.0030292398
    8    5    3    2       -0.0010115587
    8    5    3    3       -0.0000029238
    8    5    3    4       -0.0004969128
    8    5    3    5       -0.0053122189
    8    5    3    6        0.0166325109
    8    5    3    7       -0.0029268374
    8    5    3    8        0.0000013490
    8    6    3    1        0.0080492369
    8    6    3    2        0.0295591912
    8    6    3    3       -0.0000055750
    8    6    3    4        0.0141919181
    8    6    3    5        0.0283445927
    8    6    3    6       -0.0195436440
    8    6    3    7       -0.0026796287
    8    6    3    8        0.0000013891
    8    7    3    1        0.0058340737
    8    7    3    2        0.0213540032
    8    7    3    3       -0.0000041007
    8    7    3    4        0.0282264592
    8    7    3    5       -0.0022188870
    8    7    3    6       -0.0027104389
    8    7    3    7       -0.0176171786
    8    7    3    8        0.0000009952
    8    8    3    1       -0.0000018107
    8    8    3    2       -0.0000141850
    8    8    3    3        0.6592796186
    8    8    3    4       -0.0000031720
    8    8    3    5       -0.0000026435
    8    8    3    6        0.0000053475
    8    8    3    7        0.0000042148
    8    8    3    8       -0.1901016708
    8    1    4    1        0.0000001929
    8    1    4    2       -0.0000018432
    8    1    4    3       -0.0089053749
    8    1    4    4       -0.0000016387
    8    1    4    5       -0.0000005036
    8    1    4    6        0.0000008062
    8    1    4    7        0.0000008931
    8    1    4    8        0.0047435046
    8    2    4    1       -0.0000009233
    8    2    4    2       -0.0000022297
    8    2    4    3       -0.0060765482
    8    2    4    4       -0.0000018142
    8    2    4    5       -0.0000001765
    8    2    4    6        0.0000011838
    8    2    4    7        0.0000013204
    8    2    4    8        0.0049799879
    8    3    4    1        0.0036083668
    8    3    4    2        0.0039867932
    8    3    4    3        0.0000008813
    8    3    4    4       -0.1450817755
    8    3    4    5       -0.0033381582
    8    3    4    6        0.0349287224
    8    3    4    7        0.1169637531
    8    3    4    8        0.0000021718
    8    4    4    1        0.0000005425
    8    4    4    2       -0.0000001957
    8    4    4    3       -0.0051531549
    8    4    4    4       -0.0000053462
    8    4    4    5        0.0000000480
    8    4    4    6        0.0000007135
    8    4    4    7        0.0000022480
    8    4    4    8        0.0174452147
    8    5    4    1       -0.0000000786
    8    5    4    2        0.0000002571
    8    5    4    3       -0.0004998511
    8    5    4    4       -0.0000023112
    8    5    4    5       -0.0000003439
    8    5    4    6        0.0000009017
    8    5    4    7        0.0000023139
    8    5    4    8        0.0017452909
    8    6    4    1        0.0000000029
    8    6    4    2        0.0000015701
    8    6    4    3        0.0142101985
    8    6    4    4        0.0000012005
    8    6    4    5        0.0000003528
    8    6    4    6       -0.0000001510
    8    6    4    7       -0.0000001396
    8    6    4    8       -0.0024397192
    8    7    4    1       -0.0000008776
    8    7    4    2       -0.0000007496
    8    7    4    3        0.0276201006
    8    7    4    4       -0.0000004518
    8    7    4    5        0.0000005471
    8    7    4    6        0.0000000168
    8    7    4    7        0.0000001200
    8    7    4    8       -0.0070302920
    8    8    4    1       -0.0061462470
    8    8    4    2        0.0078033529
    8    8    4    3       -0.0000031720
    8    8    4    4        0.5775923420
    8    8    4    5        0.0092611038
    8    8    4    6       -0.0458607849
    8    8    4    7       -0.1524693998
    8    8    4    8       -0.0000043691
    8    1    5    1        0.0000002213
    8    1    5    2       -0.0000013561
    8    1    5    3       -0.0069582611
    8    1    5    4       -0.0000005034
    8    1    5    5       -0.0000013138
    8    1    5    6        0.0000009092
    8    1    5    7        0.0000002632
    8    1    5    8        0.0037180329
    8    2    5    1       -0.0000006750
    8    2    5    2       -0.0000016214
    8    2    5    3       -0.0048221723
    8    2    5    4       -0.0000001755
    8    2    5    5       -0.0000016466
    8    2    5    6        0.0000013761
    8    2    5    7        0.0000003852
    8    2    5    8        0.0039973008
    8    3    5    1        0.0027809893
    8    3    5    2        0.0027982219
    8    3    5    3        0.0000007600
    8    3    5    4       -0.0033453540
    8    3    5    5       -0.1412032641
    8    3    5    6        0.1166802958
    8    3    5    7       -0.0330726023
    8    3    5    8        0.0000013490
    8    4    5    1       -0.0000000619
    8    4    5    2        0.0000002571
    8    4    5    3       -0.0005145997
    8    4    5    4        0.0000000639
    8    4    5    5       -0.0000037426
    8    4    5    6        0.0000031286
    8    4    5    7       -0.0000004815
    8    4    5    8        0.0017452909
    8    5    5    1        0.0000005683
    8    5    5    2       -0.0000003362
    8    5    5    3       -0.0046520519
    8    5    5    4       -0.0000003633
    8    5    5    5       -0.0000041423
    8    5    5    6        0.0000010728
    8    5    5    7       -0.0000006196
    8    5    5    8        0.0166363220
    8    6    5    1       -0.0000008552
    8    6    5    2       -0.0000006285
    8    6    5    3        0.0277318478
    8    6    5    4        0.0000003364
    8    6    5    5       -0.0000005331
    8    6    5    6        0.0000000951
    8    6    5    7       -0.0000000157
    8    6    5    8       -0.0068966150
    8    7    5    1        0.0000004921
    8    7    5    2        0.0000019217
    8    7    5    3       -0.0018495780
    8    7    5    4        0.0000005669
    8    7    5    5        0.0000011186
    8    7    5    6       -0.0000002451
    8    7    5    7       -0.0000000623
    8    7    5    8        0.0016443029
    8    8    5    1       -0.0047359284
    8    8    5    2        0.0062603640
    8    8    5    3       -0.0000026435
    8    8    5    4        0.0092611038
    8    8    5    5        0.5693376144
    8    8    5    6       -0.1529820553
    8    8    5    7        0.0431063893
    8    8    5    8       -0.0000029994
    8    1    6    1       -0.0000013602
    8    1    6    2        0.0000015605
    8    1    6    3        0.0105689836
    8    1    6    4        0.0000007323
    8    1    6    5        0.0000007516
    8    1    6    6       -0.0000021003
    8    1    6    7       -0.0000006540
    8    1    6    8       -0.0133227514
    8    2    6    1        0.0000009655
    8    2    6    2        0.0000033762
    8    2    6    3        0.0144400320
    8    2    6    4        0.0000012560
    8    2    6    5        0.0000017453
    8    2    6    6       -0.0000011531
    8    2    6    7       -0.0000008780
    8    2    6    8       -0.0102817974
    8    3    6    1       -0.0060043250
    8    3    6    2        0.0105589095
    8    3    6    3       -0.0000043350
    8    3    6    4        0.0330295581
    8    3    6    5        0.1126126597
    8    3    6    6       -0.1751216386
    8    3    6    7        0.0037574603
    8    3    6    8        0.0000013891
    8    4    6    1       -0.0000001977
    8    4    6    2        0.0000006362
    8    4    6    3        0.0065027051
    8    4    6    4        0.0000005615
    8    4    6    5        0.0000031021
    8    4    6    6       -0.0000042344
    8    4    6    7       -0.0000000511
    8    4    6    8       -0.0024397192
    8    5    6    1       -0.0000007866
    8    5    6    2        0.0000003641
    8    5    6    3        0.0170162894
    8    5    6    4        0.0000009723
    8    5    6    5        0.0000009118
    8    5    6    6       -0.0000039158
    8    5    6    7        0.0000002355
    8    5    6    8       -0.0068966150
    8    6    6    1        0.0000013697
    8    6    6    2        0.0000008237
    8    6    6    3       -0.0197666834
    8    6    6    4       -0.0000001809
    8    6    6    5       -0.0000000180
    8    6    6    6       -0.0000009018
    8    6    6    7        0.0000001158
    8    6    6    8        0.0338228750
    8    7    6    1       -0.0000004327
    8    7    6    2       -0.0000014639
    8    7    6    3       -0.0028855672
    8    7    6    4        0.0000000085
    8    7    6    5       -0.0000002731
    8    7    6    6        0.0000012287
    8    7    6    7       -0.0000005423
    8    7    6    8        0.0062941133
    8    8    6    1        0.0086275347
    8    8    6    2       -0.0113815608
    8    8    6    3        0.0000053475
    8    8    6    4       -0.0458607849
    8    8    6    5       -0.1529820553
    8    8    6    6        0.5996928878
    8    8    6    7       -0.0013717841
    8    8    6    8       -0.0000036205
    8    1    7    1       -0.0000009908
    8    1    7    2        0.0000011269
    8    1    7    3        0.0076327097
    8    1    7    4        0.0000007360
    8    1    7    5        0.0000002817
    8    1    7    6       -0.0000006542
    8    1    7    7       -0.0000016943
    8    1    7    8       -0.0096438451
    8    2    7    1        0.0000007033
    8    2    7    2        0.0000024714
    8    2    7    3        0.0104133666
    8    2    7    4        0.0000016794
    8    2    7    5        0.0000002479
    8    2    7    6       -0.0000008763
    8    2    7    7       -0.0000005500
    8    2    7    8       -0.0073678265
    8    3    7    1       -0.0043410399
    8    3    7    2        0.0075299357
    8    3    7    3       -0.0000034504
    8    3    7    4        0.1127751761
    8    3    7    5       -0.0325721576
    8    3    7    6        0.0037743543
    8    3    7    7       -0.1791353958
    8    3    7    8        0.0000009952
    8    4    7    1       -0.0000008167
    8    4    7    2        0.0000003095
    8    4    7    3        0.0170849355
    8    4    7    4        0.0000021457
    8    4    7    5       -0.0000004034
    8    4    7    6       -0.0000000835
    8    4    7    7       -0.0000052270
    8    4    7    8       -0.0070302920
    8    5    7    1        0.0000002844
    8    5    7    2        0.0000004310
    8    5    7    3       -0.0033783945
    8    5    7    4        0.0000022747
    8    5    7    5       -0.0000007383
    8    5    7    6        0.0000002778
    8    5    7    7       -0.0000027184
    8    5    7    8        0.0016443029
    8    6    7    1       -0.0000004325
    8    6    7    2       -0.0000014521
    8    6    7    3       -0.0028457698
    8    6    7    4       -0.0000001972
    8    6    7    5        0.0000000193
    8    6    7    6        0.0000001158
    8    6    7    7        0.0000009824
    8    6    7    8        0.0062941133
    8    7    7    1        0.0000016975
    8    7    7    2        0.0000018421
    8    7    7    3       -0.0177192867
    8    7    7    4        0.0000000208
    8    7    7    5       -0.0000000556
    8    7    7    6       -0.0000005423
    8    7    7    7       -0.0000010833
    8    7    7    8        0.0300538112
    8    8    7    1        0.0062078657
    8    8    7    2       -0.0078627159
    8    8    7    3        0.0000042148
    8    8    7    4       -0.1524693998
    8    8    7    5        0.0431063893
    8    8    7    6       -0.0013717841
    8    8    7    7        0.6035721942
    8    8    7    8       -0.0000025655
    8    1    8    1        0.0546124608
    8    1    8    2        0.0270920927
    8    1    8    3       -0.0000032378
    8    1    8    4        0.0044751082
    8    1    8    5        0.0035126941
    8    1    8    6       -0.0131212407
    8    1    8    7       -0.0094976472
    8    1    8    8        0.0000041446
    8    2    8    1        0.0270920927
    8    2    8    2        0.0519735723
    8    2    8    3       -0.0000037503
    8    2    8    4        0.0047940975
    8    2    8    5        0.0038630501
    8    2    8    6       -0.0111657709
    8    2    8    7       -0.0080048560
    8    2    8    8        0.0000051269
    8    3    8    1       -0.0000032378
    8    3    8    2       -0.0000037503
    8    3    8    3        0.1575569353
    8    3    8    4        0.0000024156
    8    3    8    5        0.0000015507
    8    3    8    6        0.0000012968
    8    3    8    7        0.0000009318
    8    3    8    8       -0.1901016708
    8    4    8    1        0.0044751082
    8    4    8    2        0.0047940975
    8    4    8    3        0.0000024156
    8    4    8    4        0.0169677144
    8    4    8    5        0.0016567223
    8    4    8    6       -0.0024670766
    8    4    8    7       -0.0072750141
    8    4    8    8       -0.0000043691
    8    5    8    1        0.0035126941
    8    5    8    2        0.0038630501
    8    5    8    3        0.0000015507
    8    5    8    4        0.0016567223
    8    5    8    5        0.0163514241
    8    5    8    6       -0.0071366685
    8    5    8    7        0.0017524201
    8    5    8    8       -0.0000029994
    8    6    8    1       -0.0131212407
    8    6    8    2       -0.0111657709
    8    6    8    3        0.0000012968
    8    6    8    4       -0.0024670766
    8    6    8    5       -0.0071366685
    8    6    8    6        0.0338228750
    8    6    8    7        0.0062941133
    8    6    8    8       -0.0000036205
    8    7    8    1       -0.0094976472
    8    7    8    2       -0.0080048560
    8    7    8    3        0.0000009318
    8    7    8    4       -0.0072750141
    8    7    8    5        0.0017524201
    8    7    8    6        0.0062941133
    8    7    8    7        0.0300538112
    8    7    8    8       -0.0000025655
    8    8    8    1        0.0000041446
    8    8    8    2        0.0000051269
    8    8    8    3       -0.1901016708
    8    8    8    4       -0.0000043691
    8    8    8    5       -0.0000029994
    8    8    8    6       -0.0000036205
    8    8    8    7       -0.0000025655
    8    8    8    8        0.6292595186
 end_two_electron_integrals

 Parallel integral file used      16 records with       0 large values


 Task  times  cpu:       86.9s     wall:       92.3s


                                NWChem Input Module
                                -------------------


 Summary of allocated global arrays
-----------------------------------
  No active global arrays


MA_summarize_allocated_blocks: starting scan ...
MA_summarize_allocated_blocks: scan completed: 0 heap blocks, 0 stack blocks
MA usage statistics:

	allocation statistics:
					      heap	     stack
					      ----	     -----
	current number of blocks	         0	         0
	maximum number of blocks	        18	        42
	current total bytes		         0	         0
	maximum total bytes		  25775928	4725685688
	maximum total K-bytes		     25776	   4725686
	maximum total M-bytes		        26	      4726


                                     CITATION
                                     --------
                Please cite the following reference when publishing
                           results obtained with NWChem:

          E. Apra, E. J. Bylaska, W. A. de Jong, N. Govind, K. Kowalski,
       T. P. Straatsma, M. Valiev, H. J. J. van Dam, Y. Alexeev, J. Anchell,
       V. Anisimov, F. W. Aquino, R. Atta-Fynn, J. Autschbach, N. P. Bauman,
     J. C. Becca, D. E. Bernholdt, K. Bhaskaran-Nair, S. Bogatko, P. Borowski,
         J. Boschen, J. Brabec, A. Bruner, E. Cauet, Y. Chen, G. N. Chuev,
      C. J. Cramer, J. Daily, M. J. O. Deegan, T. H. Dunning Jr., M. Dupuis,
   K. G. Dyall, G. I. Fann, S. A. Fischer, A. Fonari, H. Fruchtl, L. Gagliardi,
      J. Garza, N. Gawande, S. Ghosh, K. Glaesemann, A. W. Gotz, J. Hammond,
       V. Helms, E. D. Hermes, K. Hirao, S. Hirata, M. Jacquelin, L. Jensen,
   B. G. Johnson, H. Jonsson, R. A. Kendall, M. Klemm, R. Kobayashi, V. Konkov,
      S. Krishnamoorthy, M. Krishnan, Z. Lin, R. D. Lins, R. J. Littlefield,
      A. J. Logsdail, K. Lopata, W. Ma, A. V. Marenich, J. Martin del Campo,
   D. Mejia-Rodriguez, J. E. Moore, J. M. Mullin, T. Nakajima, D. R. Nascimento,
    J. A. Nichols, P. J. Nichols, J. Nieplocha, A. Otero-de-la-Roza, B. Palmer,
    A. Panyala, T. Pirojsirikul, B. Peng, R. Peverati, J. Pittner, L. Pollack,
   R. M. Richard, P. Sadayappan, G. C. Schatz, W. A. Shelton, D. W. Silverstein,
   D. M. A. Smith, T. A. Soares, D. Song, M. Swart, H. L. Taylor, G. S. Thomas,
            V. Tipparaju, D. G. Truhlar, K. Tsemekhman, T. Van Voorhis,
      A. Vazquez-Mayagoitia, P. Verma, O. Villa, A. Vishnu, K. D. Vogiatzis,
        D. Wang, J. H. Weare, M. J. Williamson, T. L. Windus, K. Wolinski,
        A. T. Wong, Q. Wu, C. Yang, Q. Yu, M. Zacharias, Z. Zhang, Y. Zhao,
                                and R. J. Harrison
                        "NWChem: Past, present, and future
                         J. Chem. Phys. 152, 184102 (2020)
                               doi:10.1063/5.0004997

                                      AUTHORS
                                      -------
  E. Apra, E. J. Bylaska, N. Govind, K. Kowalski, M. Valiev, D. Mejia-Rodriguez,
       A. Kunitsa, N. P. Bauman, A. Panyala, W. A. de Jong, T. P. Straatsma,
        H. J. J. van Dam, D. Wang, T. L. Windus, J. Hammond, J. Autschbach,
    K. Bhaskaran-Nair, J. Brabec, K. Lopata, S. A. Fischer, S. Krishnamoorthy,
     M. Jacquelin, W. Ma, M. Klemm, O. Villa, Y. Chen, V. Anisimov, F. Aquino,
    S. Hirata, M. T. Hackler, Eric Hermes, L. Jensen, J. E. Moore, J. C. Becca,
      V. Konjkov, T. Risthaus, M. Malagoli, A. Marenich, A. Otero-de-la-Roza,
        J. Mullin, P. Nichols, R. Peverati, J. Pittner, Y. Zhao, P.-D. Fan,
        A. Fonari, M. J. Williamson, R. J. Harrison, J. R. Rehr, M. Dupuis,
     D. Silverstein, D. M. A. Smith, J. Nieplocha, V. Tipparaju, M. Krishnan,
     B. E. Van Kuiken, A. Vazquez-Mayagoitia, M. Swart, Q. Wu, T. Van Voorhis,
     A. A. Auer, M. Nooijen, L. D. Crosby, E. Brown, G. Cisneros, G. I. Fann,
   H. Fruchtl, J. Garza, K. Hirao, R. A. Kendall, J. A. Nichols, K. Tsemekhman,
    K. Wolinski, J. Anchell, D. E. Bernholdt, P. Borowski, T. Clark, D. Clerc,
   H. Dachsel, M. J. O. Deegan, K. Dyall, D. Elwood, E. Glendening, M. Gutowski,
   A. C. Hess, J. Jaffe, B. G. Johnson, J. Ju, R. Kobayashi, R. Kutteh, Z. Lin,
   R. Littlefield, X. Long, B. Meng, T. Nakajima, S. Niu, L. Pollack, M. Rosing,
   K. Glaesemann, G. Sandrone, M. Stave, H. Taylor, G. Thomas, J. H. van Lenthe,
                               A. T. Wong, Z. Zhang.

 Total times  cpu:      104.0s     wall:      121.4s
