 argument  1 = input.nw
  NWChem w/ OpenMP: maximum threads =    1



============================== echo of input deck ==============================
 echo
 start H2O
 title "H2O"

 memory total 24 gb

 geometry units bohr
 symmetry c1
        O  0.00000000  0.00000000  0.00000000
        H  0.00000000  2.101533  0.00000000
        H  1.72558000 -0.64860000  0.00000000
 end

 basis spherical
   * library cc-pVTZ
 end

 mcscf
   active  8
   actelec 10
   multiplicity 1
   maxiter 40
   vectors input h2o.mos
   vectors output h2o.mos
 end

 task mcscf

 scf
   vectors input h2o.mos
   vectors output h2o-trash.mos
   noscf
 end

 tce
   2eorb
   2emet 13
   ccsd
 end

# set tce:print_integrals T
# set tce:qorb 8
# set tce:qela 5
# set tce:qelb 5

 set tce:qducc T
 set tce:nactv 3
 set tce:nonhf T
 set tce:ducc_model 3

 set tce:printtol 0.02

 task tce
================================================================================


                                         
                                         


             Northwest Computational Chemistry Package (NWChem) 7.0.1
             --------------------------------------------------------


                    Environmental Molecular Sciences Laboratory
                       Pacific Northwest National Laboratory
                                Richland, WA 99352

                              Copyright (c) 1994-2020
                       Pacific Northwest National Laboratory
                            Battelle Memorial Institute

             NWChem is an open-source computational chemistry package
                        distributed under the terms of the
                      Educational Community License (ECL) 2.0
             A copy of the license is included with this distribution
                              in the LICENSE.TXT file

                                  ACKNOWLEDGMENT
                                  --------------

            This software and its documentation were developed at the
            EMSL at Pacific Northwest National Laboratory, a multiprogram
            national laboratory, operated for the U.S. Department of Energy
            by Battelle under Contract Number DE-AC05-76RL01830. Support
            for this work was provided by the Department of Energy Office
            of Biological and Environmental Research, Office of Basic
            Energy Sciences, and the Office of Advanced Scientific Computing.


           Job information
           ---------------

    hostname        = WE46210
    program         = /home/baum612/code/nwchem/bin/LINUX64/nwchem
    date            = Tue Feb 20 11:51:15 2024

    compiled        = Fri_Feb_16_11:09:52_2024
    source          = /home/baum612/code/nwchem
    nwchem branch   = 7.0.0
    nwchem revision = nwchem_on_git-4191-g39d87d64de
    ga revision     = 5.8.1
    use scalapack   = F
    input           = input.nw
    prefix          = H2O.
    data base       = ./H2O.db
    status          = startup
    nproc           =        1
    time left       =     -1s



           Memory information
           ------------------

    heap     =  805306366 doubles =   6144.0 Mbytes
    stack    =  805306363 doubles =   6144.0 Mbytes
    global   = 1610612736 doubles =  12288.0 Mbytes (distinct from heap & stack)
    total    = 3221225465 doubles =  24576.0 Mbytes
    verify   = yes
    hardfail = no 


           Directory information
           ---------------------

  0 permanent = .
  0 scratch   = .




                                NWChem Input Module
                                -------------------


                                        H2O
                                        ---
 Turning off AUTOSYM since
 SYMMETRY directive was detected!


          ------
          auto-z
          ------
  no constraints, skipping    0.0000000000000000     
  no constraints, skipping    0.0000000000000000     


                             Geometry "geometry" -> ""
                             -------------------------

 Output coordinates in a.u. (scale by  1.000000000 to convert to a.u.)

  No.       Tag          Charge          X              Y              Z
 ---- ---------------- ---------- -------------- -------------- --------------
    1 O                    8.0000    -0.17255800    -0.14529330     0.00000000
    2 H                    1.0000    -0.17255800     1.95623970     0.00000000
    3 H                    1.0000     1.55302200    -0.79389330     0.00000000

      Atomic Mass 
      ----------- 

      O                 15.994910
      H                  1.007825


 Effective nuclear repulsion energy (a.u.)       8.4544418216

            Nuclear Dipole moment (a.u.) 
            ----------------------------
        X                 Y               Z
 ---------------- ---------------- ----------------
    -0.0000000000     0.0000000000     0.0000000000



                                Z-matrix (autoz)
                                -------- 

 Units are Angstrom for bonds and degrees for angles

      Type          Name      I     J     K     L     M      Value
      ----------- --------  ----- ----- ----- ----- ----- ----------
    1 Stretch                  1     2                       1.11208
    2 Stretch                  1     3                       0.97551
    3 Bend                     2     1     3               110.59992


            XYZ format geometry
            -------------------
     3
 geometry
 O                    -0.09131377    -0.07688591     0.00000000
 H                    -0.09131377     1.03519754     0.00000000
 H                     0.82182391    -0.42011027     0.00000000

 ==============================================================================
                                internuclear distances
 ------------------------------------------------------------------------------
       center one      |      center two      | atomic units |       a.u.
 ------------------------------------------------------------------------------
    3 H                |   1 O                |     1.84345  |     1.84345
 ------------------------------------------------------------------------------
                         number of included internuclear distances:          1
 ==============================================================================





 Summary of "ao basis" -> "" (spherical)
 ------------------------------------------------------------------------------
       Tag                 Description            Shells   Functions and Types
 ---------------- ------------------------------  ------  ---------------------
 *                          cc-pVTZ                   on all atoms 


                      Basis "ao basis" -> "ao basis" (spherical)
                      -----
  O (Oxygen)
  ----------
            Exponent  Coefficients 
       -------------- ---------------------------------------------------------
  1 S  1.53300000E+04  0.000508
  1 S  2.29900000E+03  0.003929
  1 S  5.22400000E+02  0.020243
  1 S  1.47300000E+02  0.079181
  1 S  4.75500000E+01  0.230687
  1 S  1.67600000E+01  0.433118
  1 S  6.20700000E+00  0.350260
  1 S  6.88200000E-01 -0.008154

  2 S  1.53300000E+04 -0.000115
  2 S  2.29900000E+03 -0.000895
  2 S  5.22400000E+02 -0.004636
  2 S  1.47300000E+02 -0.018724
  2 S  4.75500000E+01 -0.058463
  2 S  1.67600000E+01 -0.136463
  2 S  6.20700000E+00 -0.175740
  2 S  6.88200000E-01  0.603418

  3 S  1.75200000E+00  1.000000

  4 S  2.38400000E-01  1.000000

  5 P  3.44600000E+01  0.015928
  5 P  7.74900000E+00  0.099740
  5 P  2.28000000E+00  0.310492

  6 P  7.15600000E-01  1.000000

  7 P  2.14000000E-01  1.000000

  8 D  2.31400000E+00  1.000000

  9 D  6.45000000E-01  1.000000

 10 F  1.42800000E+00  1.000000

  H (Hydrogen)
  ------------
            Exponent  Coefficients 
       -------------- ---------------------------------------------------------
  1 S  3.38700000E+01  0.006068
  1 S  5.09500000E+00  0.045308
  1 S  1.15900000E+00  0.202822

  2 S  3.25800000E-01  1.000000

  3 S  1.02700000E-01  1.000000

  4 P  1.40700000E+00  1.000000

  5 P  3.88000000E-01  1.000000

  6 D  1.05700000E+00  1.000000



 Summary of "ao basis" -> "ao basis" (spherical)
 ------------------------------------------------------------------------------
       Tag                 Description            Shells   Functions and Types
 ---------------- ------------------------------  ------  ---------------------
 O                          cc-pVTZ                 10       30   4s3p2d1f
 H                          cc-pVTZ                  6       14   3s2p1d



                            NWChem Direct MCSCF Module
                            --------------------------


                                        H2O


     -----------------------------------
       Basis functions:             58
       Inactive shells:              0
       Active shells:                8
       Active electrons:            10
       Symmetry:                    a       
       Multiplicity:                 1
       Orbital rotations:          400
     -----------------------------------

     -----------------------------------
       E2 extrapolation:             F
       Conjugacy:                    T
       Micro CI relax:               T
       Canonical orbitals:           T
       Maximum iterations:          40
       Converge threshold:    1.00E-04
       Conjugacy resets:            20
       Initial levelshift:        0.10
     -----------------------------------

 Loading old vectors from job with title :

H2O


   input molecular orbitals = ./h2o.mos
  output molecular orbtials = ./h2o.mos

       No. of determinants:          3136


  Starting Orbital Energies
   -20.554148    -1.316156    -0.704542    -0.570620    -0.520010    -0.031714
    -0.025757    -0.015872     0.305934     0.335432     0.611296     0.683292
     0.816377     0.829809     0.972071     1.126930     1.183279     1.271862
     1.404341     1.951113     2.051786     2.095034     2.149724     2.276974
     2.599303     2.834550     3.348569     3.469328     3.474421     3.521010
     3.557188     3.749666     3.875053     3.905042     3.925140     4.003408
     4.078987     4.201621     4.284103     4.317085     4.540253     4.650788
     4.959749     5.167478     5.530878     5.868687     6.165152     6.484430
     6.800415     6.889754     6.982729     7.027209     7.097849     7.149045
     7.414937     7.573673     7.877120    11.714047

  Orbital Symmetry Irreps
a    a    a    a    a    a    a    a    a    a    a    a    a    a    a   
a    a    a    a    a    a    a    a    a    a    a    a    a    a    a   
a    a    a    a    a    a    a    a    a    a    a    a    a    a    a   
a    a    a    a    a    a    a    a    a    a    a    a    a   

 Integral file          = ./H2O.aoints.0
 Record size in doubles =  65536        No. of integs per rec  =  43688
 Max. records in memory =     49        Max. records in file   = 252467
 No. of bits per label  =      8        No. of bits per value  =     64


 #quartets = 3.213D+04 #integrals = 6.608D+05 #direct =  0.0% #cached =100.0%




          %%%%% MacroIteration   1 %%%%%


          Number of sigma calls:       15
                       o<<<<< (aa):             0.01
                       o<<<<< (bb):             0.01
                       o<<<<< (ab):             0.19
                       o<<<<< (total)           0.21
                       o<<<<< (aa) ff           0.00
                       o<<<<< (aa) gop          0.00
                       o<<<<< (aa) dot          0.00
                       o<<<<< (ab) str          0.00
                       o<<<<< (ab) gath         0.00
                       o<<<<< (ab) dotab        0.00
                       o<<<<< (ab) scat         0.00
                       o<<<<< (ab) sync         0.00
                       o<<<<< Density           0.02
                       o<<<<< Density one       0.01
                       o<<<<< Density two       0.01
                       o<<<<< Density ab        0.00
                       o<<<<< Spin adapt        0.97
                       o<<<<< Symm adapt        0.00

                       o<<<<< (ab) max sync:      0.00

           >>>| Valence CI:            -84.586733498385
           >>>| MCSCF energy:          -76.132291676738
           >>>| Gradient norm:          0.822289836D-02

                              ----- Line search ------

        step       energy         lsg     num-lsg   num-lsh   lsrat    time
      ------- ---------------- --------- --------- --------- ------- --------
       0.0000     -76.13229168 -7.41D-06  0.00D+00  0.00D+00 0.0D+00      3.5

          Number of sigma calls:       14
                       o<<<<< (aa):             0.02
                       o<<<<< (bb):             0.01
                       o<<<<< (ab):             0.18
                       o<<<<< (total)           0.21
                       o<<<<< (aa) ff           0.00
                       o<<<<< (aa) gop          0.00
                       o<<<<< (aa) dot          0.00
                       o<<<<< (ab) str          0.00
                       o<<<<< (ab) gath         0.00
                       o<<<<< (ab) dotab        0.00
                       o<<<<< (ab) scat         0.00
                       o<<<<< (ab) sync         0.00
                       o<<<<< Density           0.04
                       o<<<<< Density one       0.02
                       o<<<<< Density two       0.01
                       o<<<<< Density ab        0.01
                       o<<<<< Spin adapt        1.13
                       o<<<<< Symm adapt        0.00

                       o<<<<< (ab) max sync:      0.00
       1.0000     -76.13229554 -3.13D-07 -3.13D-07  7.10D-06 4.2D-02      5.2
     --- Orbitals canonicalized ---



          %%%%% MacroIteration   2 %%%%%


          Number of sigma calls:       12
                       o<<<<< (aa):             0.01
                       o<<<<< (bb):             0.02
                       o<<<<< (ab):             0.16
                       o<<<<< (total)           0.19
                       o<<<<< (aa) ff           0.00
                       o<<<<< (aa) gop          0.00
                       o<<<<< (aa) dot          0.00
                       o<<<<< (ab) str          0.00
                       o<<<<< (ab) gath         0.00
                       o<<<<< (ab) dotab        0.00
                       o<<<<< (ab) scat         0.00
                       o<<<<< (ab) sync         0.00
                       o<<<<< Density           0.03
                       o<<<<< Density one       0.00
                       o<<<<< Density two       0.01
                       o<<<<< Density ab        0.02
                       o<<<<< Spin adapt        0.72
                       o<<<<< Symm adapt        0.00

                       o<<<<< (ab) max sync:      0.00

           >>>| Valence CI:            -84.586737359248
           >>>| MCSCF energy:          -76.132295537601
           >>>| Gradient norm:          0.728664318D-03
     --- Warning:    2 Hessian diagonals < 0.05 ---
     --- Conjugacy reset ---

                              ----- Line search ------

        step       energy         lsg     num-lsg   num-lsh   lsrat    time
      ------- ---------------- --------- --------- --------- ------- --------
       0.0000     -76.13229554 -9.55D-08  0.00D+00  0.00D+00 0.0D+00      6.8

          Number of sigma calls:       10
                       o<<<<< (aa):             0.00
                       o<<<<< (bb):             0.01
                       o<<<<< (ab):             0.12
                       o<<<<< (total)           0.13
                       o<<<<< (aa) ff           0.00
                       o<<<<< (aa) gop          0.00
                       o<<<<< (aa) dot          0.00
                       o<<<<< (ab) str          0.00
                       o<<<<< (ab) gath         0.00
                       o<<<<< (ab) dotab        0.00
                       o<<<<< (ab) scat         0.00
                       o<<<<< (ab) sync         0.00
                       o<<<<< Density           0.04
                       o<<<<< Density one       0.01
                       o<<<<< Density two       0.01
                       o<<<<< Density ab        0.02
                       o<<<<< Spin adapt        0.72
                       o<<<<< Symm adapt        0.00

                       o<<<<< (ab) max sync:      0.00
       1.0000     -76.13229560 -3.22D-08 -3.22D-08  6.33D-08 3.4D-01      7.9

          Number of sigma calls:        9
                       o<<<<< (aa):             0.01
                       o<<<<< (bb):             0.01
                       o<<<<< (ab):             0.11
                       o<<<<< (total)           0.13
                       o<<<<< (aa) ff           0.00
                       o<<<<< (aa) gop          0.00
                       o<<<<< (aa) dot          0.00
                       o<<<<< (ab) str          0.00
                       o<<<<< (ab) gath         0.00
                       o<<<<< (ab) dotab        0.00
                       o<<<<< (ab) scat         0.00
                       o<<<<< (ab) sync         0.00
                       o<<<<< Density           0.04
                       o<<<<< Density one       0.01
                       o<<<<< Density two       0.01
                       o<<<<< Density ab        0.02
                       o<<<<< Spin adapt        0.56
                       o<<<<< Symm adapt        0.00

                       o<<<<< (ab) max sync:      0.00
       1.5083     -76.13229561  2.78D-11  2.52D-11  6.34D-08 2.9D-04      8.9



          %%%%% MacroIteration   3 %%%%%


          Number of sigma calls:        1
                       o<<<<< (aa):             0.00
                       o<<<<< (bb):             0.00
                       o<<<<< (ab):             0.02
                       o<<<<< (total)           0.02
                       o<<<<< (aa) ff           0.00
                       o<<<<< (aa) gop          0.00
                       o<<<<< (aa) dot          0.00
                       o<<<<< (ab) str          0.00
                       o<<<<< (ab) gath         0.00
                       o<<<<< (ab) dotab        0.00
                       o<<<<< (ab) scat         0.00
                       o<<<<< (ab) sync         0.00
                       o<<<<< Density           0.02
                       o<<<<< Density one       0.00
                       o<<<<< Density two       0.01
                       o<<<<< Density ab        0.01
                       o<<<<< Spin adapt        0.00
                       o<<<<< Symm adapt        0.00

                       o<<<<< (ab) max sync:      0.00

           >>>| Valence CI:            -84.586737431276
           >>>| MCSCF energy:          -76.132295609628
           >>>| Gradient norm:          0.100394145D-03
     --- Warning:    2 Hessian diagonals < 0.05 ---

                              ----- Line search ------

        step       energy         lsg     num-lsg   num-lsh   lsrat    time
      ------- ---------------- --------- --------- --------- ------- --------
       0.0000     -76.13229561 -2.19D-09  0.00D+00  0.00D+00 0.0D+00      9.4

          Number of sigma calls:        8
                       o<<<<< (aa):             0.01
                       o<<<<< (bb):             0.01
                       o<<<<< (ab):             0.11
                       o<<<<< (total)           0.12
                       o<<<<< (aa) ff           0.00
                       o<<<<< (aa) gop          0.00
                       o<<<<< (aa) dot          0.00
                       o<<<<< (ab) str          0.00
                       o<<<<< (ab) gath         0.00
                       o<<<<< (ab) dotab        0.00
                       o<<<<< (ab) scat         0.00
                       o<<<<< (ab) sync         0.00
                       o<<<<< Density           0.02
                       o<<<<< Density one       0.00
                       o<<<<< Density two       0.00
                       o<<<<< Density ab        0.02
                       o<<<<< Spin adapt        0.69
                       o<<<<< Symm adapt        0.00

                       o<<<<< (ab) max sync:      0.00
       1.0000     -76.13229561 -4.53D-10 -4.53D-10  1.73D-09 2.1D-01     10.5

          Number of sigma calls:        7
                       o<<<<< (aa):             0.00
                       o<<<<< (bb):             0.00
                       o<<<<< (ab):             0.11
                       o<<<<< (total)           0.12
                       o<<<<< (aa) ff           0.00
                       o<<<<< (aa) gop          0.00
                       o<<<<< (aa) dot          0.00
                       o<<<<< (ab) str          0.00
                       o<<<<< (ab) gath         0.00
                       o<<<<< (ab) dotab        0.00
                       o<<<<< (ab) scat         0.00
                       o<<<<< (ab) sync         0.00
                       o<<<<< Density           0.01
                       o<<<<< Density one       0.00
                       o<<<<< Density two       0.00
                       o<<<<< Density ab        0.01
                       o<<<<< Spin adapt        0.45
                       o<<<<< Symm adapt        0.00

                       o<<<<< (ab) max sync:      0.00
       1.2611     -76.13229561  2.42D-14 -8.96D-13  1.73D-09 1.1D-05     11.3



          %%%%% MacroIteration   4 %%%%%


          Number of sigma calls:        1
                       o<<<<< (aa):             0.00
                       o<<<<< (bb):             0.00
                       o<<<<< (ab):             0.01
                       o<<<<< (total)           0.01
                       o<<<<< (aa) ff           0.00
                       o<<<<< (aa) gop          0.00
                       o<<<<< (aa) dot          0.00
                       o<<<<< (ab) str          0.00
                       o<<<<< (ab) gath         0.00
                       o<<<<< (ab) dotab        0.00
                       o<<<<< (ab) scat         0.00
                       o<<<<< (ab) sync         0.00
                       o<<<<< Density           0.03
                       o<<<<< Density one       0.01
                       o<<<<< Density two       0.00
                       o<<<<< Density ab        0.02
                       o<<<<< Spin adapt        0.00
                       o<<<<< Symm adapt        0.00

                       o<<<<< (ab) max sync:      0.00

           >>>| Valence CI:            -84.586737432654
           >>>| MCSCF energy:          -76.132295611007
           >>>| Gradient norm:          0.235708253D-04




     ==============================
            MCSCF Converged
     ==============================



          Canonical Eigenvalues

              1      
    1  -20.5545
    2   -1.3154
    3   -0.7035
    4   -0.5702
    5   -0.5199
    6   -0.0320
    7   -0.0258
    8   -0.0159
    9    0.3063
   10    0.3355
   11    0.6112
   12    0.6844
   13    0.8167
   14    0.8293
   15    0.9720
   16    1.1256
   17    1.1843
   18    1.2690
   19    1.4047
   20    1.9491
   21    2.0516
   22    2.0940
   23    2.1509
   24    2.2801
   25    2.6001
   26    2.8331
   27    3.3479
   28    3.4677
   29    3.4734
   30    3.5190
   31    3.5577
   32    3.7453
   33    3.8746
   34    3.9041
   35    3.9185
   36    4.0034
   37    4.0789
   38    4.1969
   39    4.2794
   40    4.3139
   41    4.5379
   42    4.6467
   43    4.9586
   44    5.1644
   45    5.5304
   46    5.8656
   47    6.1578
   48    6.4709
   49    6.7969
   50    6.8893
   51    6.9826
   52    7.0254
   53    7.0977
   54    7.1483
   55    7.4112
   56    7.5708
   57    7.8671
   58   11.6876


          Converged CI vector

   Index           Coefficient          Config. Occupation
         1          0.97167876          1  2  3  4  5  1  2  3  4  5
        22          0.07350680          1  2  3  4  5  1  2  3  4  8
         3         -0.04397642          1  2  3  4  5  1  2  3  5  6
         8          0.02716878          1  2  3  4  5  1  2  3  5  7
        27         -0.02011987          1  2  3  4  5  1  2  3  6  8
         4         -0.02823163          1  2  3  4  5  1  2  4  5  6
         9         -0.03751651          1  2  3  4  5  1  2  4  5  7
        38         -0.02169778          1  2  3  4  5  1  2  4  7  8
      1177          0.07350680          1  2  3  4  8  1  2  3  4  5
      1198         -0.05157767          1  2  3  4  8  1  2  3  4  8
      1179          0.02544446          1  2  3  4  8  1  2  3  5  6
      1180          0.02226763          1  2  3  4  8  1  2  4  5  6
      1185          0.02916352          1  2  3  4  8  1  2  4  5  7
       113         -0.04397642          1  2  3  5  6  1  2  3  4  5
       134          0.02544446          1  2  3  5  6  1  2  3  4  8
       115         -0.05333807          1  2  3  5  6  1  2  3  5  6
       116         -0.04070990          1  2  3  5  6  1  2  4  5  6
       117          0.02017451          1  2  3  5  6  1  3  4  5  6
       393          0.02716878          1  2  3  5  7  1  2  3  4  5
       400         -0.02438020          1  2  3  5  7  1  2  3  5  7
       401          0.02718271          1  2  3  5  7  1  2  4  5  7
      1457         -0.02011987          1  2  3  6  8  1  2  3  4  5
       169         -0.02823163          1  2  4  5  6  1  2  3  4  5
       190          0.02226763          1  2  4  5  6  1  2  3  4  8
       171         -0.04070990          1  2  4  5  6  1  2  3  5  6
       172         -0.04661401          1  2  4  5  6  1  2  4  5  6
       177         -0.02005381          1  2  4  5  6  1  2  4  5  7
       173          0.02218226          1  2  4  5  6  1  3  4  5  6
       449         -0.03751651          1  2  4  5  7  1  2  3  4  5
       470          0.02916352          1  2  4  5  7  1  2  3  4  8
       456          0.02718271          1  2  4  5  7  1  2  3  5  7
       452         -0.02005381          1  2  4  5  7  1  2  4  5  6
       457         -0.05161939          1  2  4  5  7  1  2  4  5  7
       458         -0.02353830          1  2  4  5  7  1  3  4  5  7
      2073         -0.02169778          1  2  4  7  8  1  2  3  4  5
       227          0.02017451          1  3  4  5  6  1  2  3  5  6
       228          0.02218226          1  3  4  5  6  1  2  4  5  6
       229         -0.02353688          1  3  4  5  6  1  3  4  5  6
       513         -0.02353830          1  3  4  5  7  1  2  4  5  7
       514         -0.02282672          1  3  4  5  7  1  3  4  5  7

          Number of sigma calls:        1
                       o<<<<< (aa):             0.00
                       o<<<<< (bb):             0.00
                       o<<<<< (ab):             0.02
                       o<<<<< (total)           0.02
                       o<<<<< (aa) ff           0.00
                       o<<<<< (aa) gop          0.00
                       o<<<<< (aa) dot          0.00
                       o<<<<< (ab) str          0.00
                       o<<<<< (ab) gath         0.00
                       o<<<<< (ab) dotab        0.00
                       o<<<<< (ab) scat         0.00
                       o<<<<< (ab) sync         0.00
                       o<<<<< Density           0.02
                       o<<<<< Density one       0.02
                       o<<<<< Density two       0.00
                       o<<<<< Density ab        0.00
                       o<<<<< Spin adapt        0.00
                       o<<<<< Symm adapt        0.00

                       o<<<<< (ab) max sync:      0.00



          Natural orbital occupation numbers

              1      
    1    2.0000
    2    1.9987
    3    1.9811
    4    1.9758
    5    1.9666
    6    0.0345
    7    0.0249
    8    0.0184


          Number of sigma calls:       15
                       o<<<<< (aa):             0.00
                       o<<<<< (bb):             0.02
                       o<<<<< (ab):             0.19
                       o<<<<< (total)           0.22
                       o<<<<< (aa) ff           0.00
                       o<<<<< (aa) gop          0.00
                       o<<<<< (aa) dot          0.00
                       o<<<<< (ab) str          0.00
                       o<<<<< (ab) gath         0.00
                       o<<<<< (ab) dotab        0.00
                       o<<<<< (ab) scat         0.00
                       o<<<<< (ab) sync         0.00
                       o<<<<< Density           0.01
                       o<<<<< Density one       0.00
                       o<<<<< Density two       0.01
                       o<<<<< Density ab        0.00
                       o<<<<< Spin adapt        0.89
                       o<<<<< Symm adapt        0.00

                       o<<<<< (ab) max sync:      0.00


       Final MCSCF results 
       ------------------- 

       Total MCSCF energy =    -76.132295611007
            Gradient norm =      2.4D-05

    CPU time for solution =     12.9s
   Wall time for solution =     21.9s



                        Analysis of MCSCF natural orbitals
                        ----------------------------------

 Vector    1  Occ=1.999989D+00  E=-2.055449D+01  Symmetry=a
              MO Center= -9.1D-02, -7.7D-02,  8.2D-11, r^2= 1.6D-02
   Bfn.  Coefficient  Atom+Function         Bfn.  Coefficient  Atom+Function  
  ----- ------------  ---------------      ----- ------------  ---------------
     1      0.972584  1 O  s          

 Vector    2  Occ=1.998666D+00  E=-1.315423D+00  Symmetry=a
              MO Center= -2.9D-01, -2.1D-01,  2.7D-08, r^2= 4.2D-01
   Bfn.  Coefficient  Atom+Function         Bfn.  Coefficient  Atom+Function  
  ----- ------------  ---------------      ----- ------------  ---------------
     2      0.520996  1 O  s                  4      0.392712  1 O  s          

 Vector    3  Occ=1.981113D+00  E=-7.035049D-01  Symmetry=a
              MO Center= -6.3D-02, -6.1D-02,  1.5D-07, r^2= 6.5D-01
   Bfn.  Coefficient  Atom+Function         Bfn.  Coefficient  Atom+Function  
  ----- ------------  ---------------      ----- ------------  ---------------
    10      0.431657  1 O  pz                13      0.392874  1 O  pz         
     7      0.360234  1 O  pz         

 Vector    4  Occ=1.975789D+00  E=-5.701676D-01  Symmetry=a
              MO Center=  3.4D-01, -1.9D-01,  4.2D-08, r^2= 6.0D-01
   Bfn.  Coefficient  Atom+Function         Bfn.  Coefficient  Atom+Function  
  ----- ------------  ---------------      ----- ------------  ---------------
     8      0.343271  1 O  px                 5      0.285666  1 O  px         
    46      0.263316  3 H  s                 11      0.205636  1 O  px         
    45      0.183574  3 H  s          

 Vector    5  Occ=1.966590D+00  E=-5.199120D-01  Symmetry=a
              MO Center= -4.5D-02,  4.2D-01,  3.3D-08, r^2= 6.9D-01
   Bfn.  Coefficient  Atom+Function         Bfn.  Coefficient  Atom+Function  
  ----- ------------  ---------------      ----- ------------  ---------------
     9      0.340056  1 O  py                 6      0.274250  1 O  py         
    32      0.266102  2 H  s                 12      0.198237  1 O  py         
    31      0.168013  2 H  s          

 Vector    6  Occ=3.448809D-02  E=-3.195757D-02  Symmetry=a
              MO Center= -3.7D-02,  6.1D-01,  4.2D-08, r^2= 7.0D-01
   Bfn.  Coefficient  Atom+Function         Bfn.  Coefficient  Atom+Function  
  ----- ------------  ---------------      ----- ------------  ---------------
    32      0.600837  2 H  s                  6     -0.477066  1 O  py         
     9     -0.464232  1 O  py                 2     -0.278373  1 O  s          
    31      0.270694  2 H  s          

 Vector    7  Occ=2.493591D-02  E=-2.576567D-02  Symmetry=a
              MO Center=  5.0D-01, -2.4D-01,  6.7D-08, r^2= 6.6D-01
   Bfn.  Coefficient  Atom+Function         Bfn.  Coefficient  Atom+Function  
  ----- ------------  ---------------      ----- ------------  ---------------
    46      0.656340  3 H  s                  5     -0.518755  1 O  px         
     8     -0.432215  1 O  px                45      0.295113  3 H  s          
     2     -0.279866  1 O  s                  4     -0.193512  1 O  s          

 Vector    8  Occ=1.842930D-02  E=-1.586331D-02  Symmetry=a
              MO Center= -4.8D-03, -1.9D-02,  6.5D-08, r^2= 1.2D+00
   Bfn.  Coefficient  Atom+Function         Bfn.  Coefficient  Atom+Function  
  ----- ------------  ---------------      ----- ------------  ---------------
    13      0.799613  1 O  pz                 7     -0.632531  1 O  pz         
    10     -0.316357  1 O  pz         

 Vector    9  Occ=0.000000D+00  E= 3.062571D-01  Symmetry=a
              MO Center=  4.8D-01,  7.0D-02, -1.4D-07, r^2= 4.7D+00
   Bfn.  Coefficient  Atom+Function         Bfn.  Coefficient  Atom+Function  
  ----- ------------  ---------------      ----- ------------  ---------------
     4      1.891933  1 O  s                 47     -1.376062  3 H  s          
    33     -0.935296  2 H  s                 11      0.705283  1 O  px         
    51      0.460388  3 H  px                38      0.307286  2 H  py         
    12      0.248871  1 O  py                52     -0.188667  3 H  py         
    46     -0.168321  3 H  s                 32      0.155467  2 H  s          

 Vector   10  Occ=0.000000D+00  E= 3.354505D-01  Symmetry=a
              MO Center=  3.7D-01,  6.2D-01,  1.9D-08, r^2= 5.5D+00
   Bfn.  Coefficient  Atom+Function         Bfn.  Coefficient  Atom+Function  
  ----- ------------  ---------------      ----- ------------  ---------------
    33      1.974055  2 H  s                 47     -1.798581  3 H  s          
    32     -0.594993  2 H  s                 12     -0.565518  1 O  py         
    11      0.398208  1 O  px                46      0.320174  3 H  s          
    51      0.273363  3 H  px                38     -0.248240  2 H  py         

 Vector   11  Occ=0.000000D+00  E= 6.112139D-01  Symmetry=a
              MO Center= -4.8D-02,  2.8D-01, -1.3D-07, r^2= 2.0D+00
   Bfn.  Coefficient  Atom+Function         Bfn.  Coefficient  Atom+Function  
  ----- ------------  ---------------      ----- ------------  ---------------
    46     -2.511794  3 H  s                  4      2.445120  1 O  s          
    11      1.790923  1 O  px                32     -1.025672  2 H  s          
    51      0.692301  3 H  px                38      0.279172  2 H  py         
    37      0.257453  2 H  px                33      0.220919  2 H  s          
    21     -0.160202  1 O  d  0              12      0.158590  1 O  py         

 Vector   12  Occ=0.000000D+00  E= 6.844365D-01  Symmetry=a
              MO Center= -1.0D-01, -3.8D-01,  5.6D-08, r^2= 2.4D+00
   Bfn.  Coefficient  Atom+Function         Bfn.  Coefficient  Atom+Function  
  ----- ------------  ---------------      ----- ------------  ---------------
    12      2.348091  1 O  py                32     -1.743381  2 H  s          
    46      1.345597  3 H  s                 11     -1.176049  1 O  px         
    47      0.763119  3 H  s                 33     -0.684723  2 H  s          
    38      0.653366  2 H  py                51     -0.402465  3 H  px         
    52      0.304415  3 H  py                23     -0.293132  1 O  d  2       

 Vector   13  Occ=0.000000D+00  E= 8.166702D-01  Symmetry=a
              MO Center= -2.2D-01, -8.9D-02,  5.2D-08, r^2= 2.2D+00
   Bfn.  Coefficient  Atom+Function         Bfn.  Coefficient  Atom+Function  
  ----- ------------  ---------------      ----- ------------  ---------------
     4      1.829331  1 O  s                 11      1.683203  1 O  px         
    46     -1.646188  3 H  s                 32     -1.237710  2 H  s          
    12      1.077231  1 O  py                52     -1.012732  3 H  py         
    37     -0.846886  2 H  px                38      0.491365  2 H  py         
     2      0.191385  1 O  s                 51      0.186201  3 H  px         

 Vector   14  Occ=0.000000D+00  E= 8.293063D-01  Symmetry=a
              MO Center=  3.0D-01,  3.9D-01,  1.5D-08, r^2= 1.8D+00
   Bfn.  Coefficient  Atom+Function         Bfn.  Coefficient  Atom+Function  
  ----- ------------  ---------------      ----- ------------  ---------------
    39      0.839735  2 H  pz                53     -0.753541  3 H  pz         

 Vector   15  Occ=0.000000D+00  E= 9.719905D-01  Symmetry=a
              MO Center=  1.4D-01,  3.6D-02,  3.4D-07, r^2= 2.1D+00
   Bfn.  Coefficient  Atom+Function         Bfn.  Coefficient  Atom+Function  
  ----- ------------  ---------------      ----- ------------  ---------------
    13      1.206560  1 O  pz                53     -1.050555  3 H  pz         
    39     -0.858093  2 H  pz         

 Vector   16  Occ=0.000000D+00  E= 1.125572D+00  Symmetry=a
              MO Center=  2.5D-01,  1.5D-01, -1.8D-08, r^2= 2.3D+00
   Bfn.  Coefficient  Atom+Function         Bfn.  Coefficient  Atom+Function  
  ----- ------------  ---------------      ----- ------------  ---------------
     4      2.152444  1 O  s                 46     -2.089516  3 H  s          
    11      1.446819  1 O  px                12     -1.281230  1 O  py         
    51      1.088814  3 H  px                37     -1.019449  2 H  px         
    52      0.665752  3 H  py                47     -0.396973  3 H  s          
    32      0.326355  2 H  s                  8      0.305882  1 O  px         

 Vector   17  Occ=0.000000D+00  E= 1.184297D+00  Symmetry=a
              MO Center= -6.9D-02,  4.2D-02, -3.5D-07, r^2= 1.9D+00
   Bfn.  Coefficient  Atom+Function         Bfn.  Coefficient  Atom+Function  
  ----- ------------  ---------------      ----- ------------  ---------------
     4      5.565712  1 O  s                 46     -2.659853  3 H  s          
    32     -1.736631  2 H  s                 51      1.244742  3 H  px         
    11      1.164176  1 O  px                52     -1.050323  3 H  py         
     2     -1.038740  1 O  s                  8      0.849579  1 O  px         
    12      0.819953  1 O  py                47     -0.722047  3 H  s          

 Vector   18  Occ=0.000000D+00  E= 1.269027D+00  Symmetry=a
              MO Center= -3.1D-03,  1.1D+00,  1.1D-09, r^2= 1.7D+00
   Bfn.  Coefficient  Atom+Function         Bfn.  Coefficient  Atom+Function  
  ----- ------------  ---------------      ----- ------------  ---------------
     4      3.434792  1 O  s                 38      2.291472  2 H  py         
    32     -1.513437  2 H  s                 46     -1.080416  3 H  s          
    12      1.005469  1 O  py                33     -0.890850  2 H  s          
    51      0.822120  3 H  px                 9      0.535342  1 O  py         
    11      0.356047  1 O  px                52     -0.357263  3 H  py         


 Wrote Lagrangian and 1- and 2-particle density matrices to ./H2O.mcpdm


     Multipole analysis of the density
     ---------------------------------

     L   x y z        total        nuclear
     -   - - -        -----        -------
     0   0 0 0     -0.000000     10.000000

     1   1 0 0      0.564787     -0.000000
     1   0 1 0      0.430757      0.000000
     1   0 0 1     -0.000001      0.000000

     2   2 0 0     -4.231831      2.679864
     2   1 1 0     -0.831292     -1.369926
     2   1 0 1     -0.000001      0.000000
     2   0 2 0     -3.324475      4.626021
     2   0 1 1     -0.000000      0.000000
     2   0 0 2     -5.628598      0.000000


  Mulliken analysis of the total density
  --------------------------------------

    Atom       Charge   Shell Charges
 -----------   ------   -------------------------------------------------------
    1 O    8     8.49   1.95  1.01  0.23  0.62  1.26  2.07  1.33  0.00  0.02  0.00
    2 H    1     0.75   0.21  0.40  0.08  0.01  0.05  0.00
    3 H    1     0.76   0.25  0.38  0.05  0.02  0.06  0.01

    Mulliken analysis of the active space density
    ---------------------------------------------

    Atom       Charge   Shell Charges
 -----------   ------   -------------------------------------------------------
    1 O    8     8.49   1.95  1.01  0.23  0.62  1.26  2.07  1.33  0.00  0.02  0.00
    2 H    1     0.75   0.21  0.40  0.08  0.01  0.05  0.00
    3 H    1     0.76   0.25  0.38  0.05  0.02  0.06  0.01

 Parallel integral file used      16 records with       0 large values


 Task  times  cpu:       13.0s     wall:       22.0s


                                NWChem Input Module
                                -------------------


                                 NWChem SCF Module
                                 -----------------


                                        H2O



  ao basis        = "ao basis"
  functions       =    58
  atoms           =     3
  closed shells   =     5
  open shells     =     0
  charge          =   0.00
  wavefunction    = RHF 
  input vectors   = ./h2o.mos
  output vectors  = ./h2o-trash.mos
  use symmetry    = F
  symmetry adapt  = F


 Summary of "ao basis" -> "ao basis" (spherical)
 ------------------------------------------------------------------------------
       Tag                 Description            Shells   Functions and Types
 ---------------- ------------------------------  ------  ---------------------
 O                          cc-pVTZ                 10       30   4s3p2d1f
 H                          cc-pVTZ                  6       14   3s2p1d



 Forming initial guess at      22.1s


 Loading old vectors from job with title :

H2O


 Starting SCF solution at      22.1s



 ----------------------------------------------
         Quadratically convergent ROHF

 Convergence threshold     :          1.000E-04
 Maximum no. of iterations :           30
 Final Fock-matrix accuracy:          1.000E-07
 ----------------------------------------------


 Integral file          = ./H2O.aoints.0
 Record size in doubles =  65536        No. of integs per rec  =  43688
 Max. records in memory =     49        Max. records in file   = 252505
 No. of bits per label  =      8        No. of bits per value  =     64


 #quartets = 3.213D+04 #integrals = 6.608D+05 #direct =  0.0% #cached =100.0%



       Final RHF  results 
       ------------------ 

         Total SCF energy =    -76.030790015153
      One-electron energy =   -121.759545081974
      Two-electron energy =     37.274313245173
 Nuclear repulsion energy =      8.454441821647

        Time for solution =      0.3s


             Final eigenvalues
             -----------------

              1      
    1  -20.5545
    2   -1.3154
    3   -0.7035
    4   -0.5702
    5   -0.5199
    6   -0.0320
    7   -0.0258
    8   -0.0159
    9    0.3063
   10    0.3355
   11    0.6112
   12    0.6844
   13    0.8167
   14    0.8293
   15    0.9720

                       ROHF Final Molecular Orbital Analysis
                       -------------------------------------

 Vector    2  Occ=2.000000D+00  E=-1.315423D+00
              MO Center= -2.9D-01, -2.1D-01,  2.7D-08, r^2= 4.2D-01
   Bfn.  Coefficient  Atom+Function         Bfn.  Coefficient  Atom+Function  
  ----- ------------  ---------------      ----- ------------  ---------------
     2      0.520996  1 O  s                  4      0.392712  1 O  s          

 Vector    3  Occ=2.000000D+00  E=-7.035049D-01
              MO Center= -6.3D-02, -6.1D-02,  1.5D-07, r^2= 6.5D-01
   Bfn.  Coefficient  Atom+Function         Bfn.  Coefficient  Atom+Function  
  ----- ------------  ---------------      ----- ------------  ---------------
    10      0.431657  1 O  pz                13      0.392874  1 O  pz         
     7      0.360234  1 O  pz         

 Vector    4  Occ=2.000000D+00  E=-5.701676D-01
              MO Center=  3.4D-01, -1.9D-01,  4.2D-08, r^2= 6.0D-01
   Bfn.  Coefficient  Atom+Function         Bfn.  Coefficient  Atom+Function  
  ----- ------------  ---------------      ----- ------------  ---------------
     8      0.343271  1 O  px                 5      0.285666  1 O  px         
    46      0.263316  3 H  s                 11      0.205636  1 O  px         
    45      0.183574  3 H  s          

 Vector    5  Occ=2.000000D+00  E=-5.199120D-01
              MO Center= -4.5D-02,  4.2D-01,  3.3D-08, r^2= 6.9D-01
   Bfn.  Coefficient  Atom+Function         Bfn.  Coefficient  Atom+Function  
  ----- ------------  ---------------      ----- ------------  ---------------
     9      0.340056  1 O  py                 6      0.274250  1 O  py         
    32      0.266102  2 H  s                 12      0.198237  1 O  py         
    31      0.168013  2 H  s          

 Vector    6  Occ=0.000000D+00  E=-3.195757D-02
              MO Center= -3.7D-02,  6.1D-01,  4.2D-08, r^2= 7.0D-01
   Bfn.  Coefficient  Atom+Function         Bfn.  Coefficient  Atom+Function  
  ----- ------------  ---------------      ----- ------------  ---------------
    32      0.600837  2 H  s                  6     -0.477066  1 O  py         
     9     -0.464232  1 O  py                 2     -0.278373  1 O  s          
    31      0.270694  2 H  s          

 Vector    7  Occ=0.000000D+00  E=-2.576567D-02
              MO Center=  5.0D-01, -2.4D-01,  6.7D-08, r^2= 6.6D-01
   Bfn.  Coefficient  Atom+Function         Bfn.  Coefficient  Atom+Function  
  ----- ------------  ---------------      ----- ------------  ---------------
    46      0.656340  3 H  s                  5     -0.518755  1 O  px         
     8     -0.432215  1 O  px                45      0.295113  3 H  s          
     2     -0.279866  1 O  s                  4     -0.193512  1 O  s          

 Vector    8  Occ=0.000000D+00  E=-1.586331D-02
              MO Center= -4.8D-03, -1.9D-02,  6.5D-08, r^2= 1.2D+00
   Bfn.  Coefficient  Atom+Function         Bfn.  Coefficient  Atom+Function  
  ----- ------------  ---------------      ----- ------------  ---------------
    13      0.799613  1 O  pz                 7     -0.632531  1 O  pz         
    10     -0.316357  1 O  pz         

 Vector    9  Occ=0.000000D+00  E= 3.062571D-01
              MO Center=  4.8D-01,  7.0D-02, -1.4D-07, r^2= 4.7D+00
   Bfn.  Coefficient  Atom+Function         Bfn.  Coefficient  Atom+Function  
  ----- ------------  ---------------      ----- ------------  ---------------
     4      1.891933  1 O  s                 47     -1.376062  3 H  s          
    33     -0.935296  2 H  s                 11      0.705283  1 O  px         
    51      0.460388  3 H  px                38      0.307286  2 H  py         
    12      0.248871  1 O  py                52     -0.188667  3 H  py         
    46     -0.168321  3 H  s                 32      0.155467  2 H  s          

 Vector   10  Occ=0.000000D+00  E= 3.354505D-01
              MO Center=  3.7D-01,  6.2D-01,  1.9D-08, r^2= 5.5D+00
   Bfn.  Coefficient  Atom+Function         Bfn.  Coefficient  Atom+Function  
  ----- ------------  ---------------      ----- ------------  ---------------
    33      1.974055  2 H  s                 47     -1.798581  3 H  s          
    32     -0.594993  2 H  s                 12     -0.565518  1 O  py         
    11      0.398208  1 O  px                46      0.320174  3 H  s          
    51      0.273363  3 H  px                38     -0.248240  2 H  py         

 Vector   11  Occ=0.000000D+00  E= 6.112139D-01
              MO Center= -4.8D-02,  2.8D-01, -1.3D-07, r^2= 2.0D+00
   Bfn.  Coefficient  Atom+Function         Bfn.  Coefficient  Atom+Function  
  ----- ------------  ---------------      ----- ------------  ---------------
    46     -2.511794  3 H  s                  4      2.445120  1 O  s          
    11      1.790923  1 O  px                32     -1.025672  2 H  s          
    51      0.692301  3 H  px                38      0.279172  2 H  py         
    37      0.257453  2 H  px                33      0.220919  2 H  s          
    21     -0.160202  1 O  d  0              12      0.158590  1 O  py         

 Vector   12  Occ=0.000000D+00  E= 6.844365D-01
              MO Center= -1.0D-01, -3.8D-01,  5.6D-08, r^2= 2.4D+00
   Bfn.  Coefficient  Atom+Function         Bfn.  Coefficient  Atom+Function  
  ----- ------------  ---------------      ----- ------------  ---------------
    12      2.348091  1 O  py                32     -1.743381  2 H  s          
    46      1.345597  3 H  s                 11     -1.176049  1 O  px         
    47      0.763119  3 H  s                 33     -0.684723  2 H  s          
    38      0.653366  2 H  py                51     -0.402465  3 H  px         
    52      0.304415  3 H  py                23     -0.293132  1 O  d  2       

 Vector   13  Occ=0.000000D+00  E= 8.166702D-01
              MO Center= -2.2D-01, -8.9D-02,  5.2D-08, r^2= 2.2D+00
   Bfn.  Coefficient  Atom+Function         Bfn.  Coefficient  Atom+Function  
  ----- ------------  ---------------      ----- ------------  ---------------
     4      1.829331  1 O  s                 11      1.683203  1 O  px         
    46     -1.646188  3 H  s                 32     -1.237710  2 H  s          
    12      1.077231  1 O  py                52     -1.012732  3 H  py         
    37     -0.846886  2 H  px                38      0.491365  2 H  py         
     2      0.191385  1 O  s                 51      0.186201  3 H  px         

 Vector   14  Occ=0.000000D+00  E= 8.293063D-01
              MO Center=  3.0D-01,  3.9D-01,  1.5D-08, r^2= 1.8D+00
   Bfn.  Coefficient  Atom+Function         Bfn.  Coefficient  Atom+Function  
  ----- ------------  ---------------      ----- ------------  ---------------
    39      0.839735  2 H  pz                53     -0.753541  3 H  pz         

 Vector   15  Occ=0.000000D+00  E= 9.719905D-01
              MO Center=  1.4D-01,  3.6D-02,  3.4D-07, r^2= 2.1D+00
   Bfn.  Coefficient  Atom+Function         Bfn.  Coefficient  Atom+Function  
  ----- ------------  ---------------      ----- ------------  ---------------
    13      1.206560  1 O  pz                53     -1.050555  3 H  pz         
    39     -0.858093  2 H  pz         


 center of mass
 --------------
 x =  -0.07599894 y =  -0.06399088 z =   0.00000000

 moments of inertia (a.u.)
 ------------------
           4.755922077243           1.269360653086           0.000000000000
           1.269360653086           2.833002082974           0.000000000000
           0.000000000000           0.000000000000           7.588924160217

  Mulliken analysis of the total density
  --------------------------------------

    Atom       Charge   Shell Charges
 -----------   ------   -------------------------------------------------------
    1 O    8     8.50   1.95  1.01  0.23  0.62  1.25  2.08  1.34  0.00  0.02  0.00
    2 H    1     0.74   0.20  0.39  0.08  0.01  0.05  0.00
    3 H    1     0.75   0.25  0.38  0.04  0.02  0.06  0.01

       Multipole analysis of the density wrt the origin
       ------------------------------------------------

     L   x y z        total         open         nuclear
     -   - - -        -----         ----         -------
     0   0 0 0     -0.000000      0.000000     10.000000

     1   1 0 0      0.576113      0.000000     -0.000000
     1   0 1 0      0.443364      0.000000      0.000000
     1   0 0 1     -0.000001      0.000000      0.000000

     2   2 0 0     -4.208770      0.000000      2.679864
     2   1 1 0     -0.840144      0.000000     -1.369926
     2   1 0 1     -0.000001      0.000000      0.000000
     2   0 2 0     -3.283551      0.000000      4.626021
     2   0 1 1     -0.000000      0.000000      0.000000
     2   0 0 2     -5.610771      0.000000      0.000000


 Parallel integral file used      16 records with       0 large values

                   NWChem Extensible Many-Electron Theory Module
                   ---------------------------------------------

              ======================================================
                   This portion of the program was automatically
                  generated by a Tensor Contraction Engine (TCE).
                  The development of this portion of the program
                 and TCE was supported by US Department of Energy,
                Office of Science, Office of Basic Energy Science.
                      TCE is a product of Battelle and PNNL.
              Please cite: S.Hirata, J.Phys.Chem.A 107, 9887 (2003).
              ======================================================

                                        H2O


            General Information
            -------------------
      Number of processors :     1
         Wavefunction type : Restricted Hartree-Fock
          No. of electrons :    10
           Alpha electrons :     5
            Beta electrons :     5
           No. of orbitals :   116
            Alpha orbitals :    58
             Beta orbitals :    58
        Alpha frozen cores :     0
         Beta frozen cores :     0
     Alpha frozen virtuals :     0
      Beta frozen virtuals :     0
         Spin multiplicity : singlet 
    Number of AO functions :    58
       Number of AO shells :    22
        Use of symmetry is : off
      Symmetry adaption is : off
         Schwarz screening : 0.10D-09

          Correlation Information
          -----------------------
          Calculation type : Coupled-cluster singles & doubles                           
   Perturbative correction : none                                                        
            Max iterations :      100
        Residual threshold : 0.10D-06
     T(0) DIIS level shift : 0.00D+00
     L(0) DIIS level shift : 0.00D+00
     T(1) DIIS level shift : 0.00D+00
     L(1) DIIS level shift : 0.00D+00
     T(R) DIIS level shift : 0.00D+00
     T(I) DIIS level shift : 0.00D+00
   CC-T/L Amplitude update :  5-th order DIIS
                I/O scheme : Global Array Library
        L-threshold :  0.10D-06
        EOM-threshold :  0.10D-06
 no EOMCCSD initial starts read in
 TCE RESTART OPTIONS
 READ_INT:   F
 WRITE_INT:  F
 READ_TA:    F
 WRITE_TA:   F
 READ_XA:    F
 WRITE_XA:   F
 READ_IN3:   F
 WRITE_IN3:  F
 SLICE:      F
 D4D5:       F
 quantumc:   F
 qrotation:  F
 pwtce:      F
 qducc:      T
 nacto:                         0
 nrotv:                         0
 nrot:                          0

            Memory Information
            ------------------
          Available GA space size is    1610609372 doubles
          Available MA space size is    1610609780 doubles

 Maximum block size        32 doubles

 tile_dim =     27

 Block   Spin    Irrep     Size     Offset   Alpha
 -------------------------------------------------
   1    alpha     a      5 doubles       0       1
   2    beta      a      5 doubles       5       1
   3    alpha     a     26 doubles      10       3
   4    alpha     a     27 doubles      36       4
   5    beta      a     26 doubles      63       3
   6    beta      a     27 doubles      89       4

 Global array virtual files algorithm will be used

 Parallel file system coherency ......... OK

 Integral file          = ./H2O.aoints.0
 Record size in doubles =  65536        No. of integs per rec  =  43688
 Max. records in memory =     49        Max. records in file   = 252505
 No. of bits per label  =      8        No. of bits per value  =     64


 #quartets = 3.213D+04 #integrals = 6.608D+05 #direct =  0.0% #cached =100.0%


 Fock matrix recomputed
 1-e file size   =             3364
 1-e file name   = ./H2O.f1
 Cpu & wall time / sec            0.3            0.3
 4-electron integrals stored in orbital form

 v2    file size   =          3631290
 4-index algorithm nr.  13 is used
 imaxsize =       30
 imaxsize ichop =        0
 Cpu & wall time / sec            4.1            4.1
 T1-number-of-tasks                    2

 t1 file size   =              265
 t1 file name   = ./H2O.t1
 t1 file handle =       -998
 T2-number-of-boxes                    7

 t2 file size   =           122900
 t2 file name   = ./H2O.t2
 t2 file handle =       -996
CCSD iterations
 ---------------------------------------------------------
 Iter          Residuum       Correlation     Cpu    Wall 
 ---------------------------------------------------------
NEW TASK SCHEDULING
CCSD_T1_NTS --- OK
CCSD_T2_NTS --- OK
    1   1.1047949014031  -0.4520285738542     0.6     0.6
    2   1.9803038719037   0.0416135583471     0.6     0.6
    3   3.7344144612511  -0.8908800198549     0.6     0.6
    4   7.5774661308241   0.8287577329558     0.6     0.6
    5   9.8863697141006  -2.2396792796258     0.6     0.6
 MICROCYCLE DIIS UPDATE:                    5                    5
    6   0.0693467537310  -0.2884488257674     0.6     0.6
    7   0.0884449883150  -0.2757422410339     0.6     0.6
    8   0.1591754716965  -0.2993861235061     0.6     0.6
    9   0.2972303451249  -0.2471675008016     0.6     0.6
   10   0.5962265855133  -0.2728859788820     0.6     0.6
 MICROCYCLE DIIS UPDATE:                   10                    5
   11   0.0063663678097  -0.2867114208526     0.6     0.6
   12   0.0057932143373  -0.2873857125444     0.6     0.6
   13   0.0113005637237  -0.2862977259771     0.6     0.6
   14   0.0240741856660  -0.2883857550225     0.6     0.6
   15   0.0521478380464  -0.2846310639424     0.6     0.6
 MICROCYCLE DIIS UPDATE:                   15                    5
   16   0.0003535901493  -0.2870839898051     0.6     0.6
   17   0.0003020734349  -0.2870425744988     0.6     0.6
   18   0.0005237420248  -0.2871219341781     0.6     0.6
   19   0.0010609361813  -0.2869804338916     0.6     0.6
   20   0.0022389487503  -0.2872444957505     0.6     0.6
 MICROCYCLE DIIS UPDATE:                   20                    5
   21   0.0000294634992  -0.2870720705031     0.6     0.6
   22   0.0000299740270  -0.2870746808899     0.6     0.6
   23   0.0000561379455  -0.2870690792857     0.6     0.6
   24   0.0001184777762  -0.2870800842390     0.6     0.6
   25   0.0002558075826  -0.2870594717603     0.6     0.6
 MICROCYCLE DIIS UPDATE:                   25                    5
   26   0.0000042419583  -0.2870731831669     0.6     0.6
   27   0.0000041739522  -0.2870725217382     0.6     0.6
   28   0.0000074079680  -0.2870737118967     0.6     0.6
   29   0.0000150983835  -0.2870715581325     0.6     0.6
   30   0.0000319194586  -0.2870755503018     0.6     0.6
 MICROCYCLE DIIS UPDATE:                   30                    5
   31   0.0000005788870  -0.2870729374128     0.5     0.6
   32   0.0000005840076  -0.2870729813905     0.6     0.6
   33   0.0000011193330  -0.2870728789685     0.6     0.6
   34   0.0000023858075  -0.2870730761965     0.6     0.6
   35   0.0000051920344  -0.2870727107009     0.6     0.6
 MICROCYCLE DIIS UPDATE:                   35                    5
   36   0.0000000904855  -0.2870729532067     0.6     0.6
 -----------------------------------------------------------------
 Iterations converged
 CCSD correlation energy / hartree =        -0.287072953206663
 CCSD total energy / hartree       =       -76.317862968360046

 Singles contributions

 Doubles contributions
     6a   (alpha)     7a   (alpha) ---     4a   (alpha)     5a   (alpha)        0.0211864690
     6a   (alpha)     7a   (alpha) ---     5a   (alpha)     4a   (alpha)       -0.0211864690
     6a   (alpha)     8a   (alpha) ---     3a   (alpha)     5a   (alpha)        0.0273811541
     6a   (alpha)     8a   (alpha) ---     5a   (alpha)     3a   (alpha)       -0.0273811541
     7a   (alpha)     6a   (alpha) ---     4a   (alpha)     5a   (alpha)       -0.0211864690
     7a   (alpha)     6a   (alpha) ---     5a   (alpha)     4a   (alpha)        0.0211864690
     7a   (alpha)     8a   (alpha) ---     3a   (alpha)     4a   (alpha)        0.0262024865
     7a   (alpha)     8a   (alpha) ---     4a   (alpha)     3a   (alpha)       -0.0262024865
     8a   (alpha)     6a   (alpha) ---     3a   (alpha)     5a   (alpha)       -0.0273811541
     8a   (alpha)     6a   (alpha) ---     5a   (alpha)     3a   (alpha)        0.0273811541
     8a   (alpha)     7a   (alpha) ---     3a   (alpha)     4a   (alpha)       -0.0262024865
     8a   (alpha)     7a   (alpha) ---     4a   (alpha)     3a   (alpha)        0.0262024865
     6a   (alpha)     6a   (beta ) ---     5a   (alpha)     5a   (beta )       -0.1027971701
     6a   (alpha)     7a   (beta ) ---     5a   (alpha)     4a   (beta )       -0.0321460009
     6a   (alpha)     8a   (beta ) ---     5a   (alpha)     3a   (beta )       -0.0379394975
     7a   (alpha)     6a   (beta ) ---     4a   (alpha)     5a   (beta )       -0.0321460009
     7a   (alpha)     7a   (beta ) ---     4a   (alpha)     4a   (beta )       -0.0794295207
     7a   (alpha)     8a   (beta ) ---     4a   (alpha)     3a   (beta )       -0.0360619950
     8a   (alpha)     6a   (beta ) ---     3a   (alpha)     5a   (beta )       -0.0379394975
     8a   (alpha)     7a   (beta ) ---     3a   (alpha)     4a   (beta )       -0.0360619950
     8a   (alpha)     8a   (beta ) ---     3a   (alpha)     3a   (beta )       -0.0525142006
     8a   (alpha)    17a   (beta ) ---     3a   (alpha)     2a   (beta )       -0.0206415649
    17a   (alpha)     8a   (beta ) ---     2a   (alpha)     3a   (beta )       -0.0206415649
 Ground state specification:
 exp(T)|Ref>~(1+T)|Ref>
 ------- a(p)+/a(q) strings ----------

 singles norm

 doubles norm

 Reference string
  0.99475788063357873      :(1a)+ (2a)+ (3a)+ (4a)+ (5a)+ (1b)+ (2b)+ (3b)+ (4b)+ (5b)+ |0>

 Singles strings

 Doubles strings
 -0.10225829510309004      :(6a)+ (6b)+ (5b)  (5a)  (1a)+ (2a)+ (3a)+ (4a)+ (5a)+ (1b)+ (2b)+ (3b)+ (4b)+ (5b)+ |0>
 -------------------------------------
 enrep_tce =    8.4544418216470199     
  EHF(total)         =       -76.03079002
  Shift (HFtot-HFA)  =         0.00000000
 ALL OCCUPIED ORBITALS ARE ACTIVE IN DUCC --> NO SHIFT
 Number of active orbitals                    8
 Number of active alpha electrons                    5
 Number of active beta electrons                    5
  nos                    10
  nvs                   106
 noas                     5
 nobs                     5
 nvas                    53
 nvbs                    53
 nactv                     3
 DUCC MODEL =                     3
 NONHF =  T
 F-T1 correlation    =   -5.4617926240420275E-005
 V-T1-T1 correlation =    1.3267699435526473E-005
 V-T2 correlation    =  -0.28703160297993124     
 Total correlation   =  -0.28707295320673615     
 F-T1(Ext) correlation         =   -5.0650860053925428E-005
 V-T1(Ext)-T1(Ext) correlation =    2.0783076232038053E-006
 V-T2(Ext) correlation         =  -0.19363652096606235     
 Total Ext correlation         =  -0.19368509351849306     
1-BODY TIME =    2.022 SECONDS.
  HHHH TIME =   12.451 SECONDS.
  PPPP TIME =    0.000 SECONDS.
  HHHP TIME =    3.537 SECONDS.
  PPPH TIME =    0.511 SECONDS.
  HPHP TIME =    0.250 SECONDS.
  HHPP TIME =    1.700 SECONDS.
 ONE-BODY UNITARY CHECK
 TWO-BODY UNITARY CHECK
 TWO-BODY ANTISYMMETRY CHECK
 TRANSFORMED ~FOCK~ MATRIX
    1    1       -20.4409213903
    1    2        -1.6282440157
    1    3        -0.0000000098
    1    4         0.0219164604
    1    5         0.0126344651
    1    6         0.0023858187
    1    7         0.0023432787
    1    8         0.0000000162
    2    1        -1.6282440157
    2    2        -1.2846207005
    2    3         0.0000000530
    2    4        -0.2516262984
    2    5        -0.2087765828
    2    6         0.0020221483
    2    7         0.0019860900
    2    8         0.0000000082
    3    1        -0.0000000098
    3    2         0.0000000530
    3    3        -0.5475435785
    3    4         0.0000000370
    3    5         0.0000000227
    3    6         0.0000000166
    3    7         0.0000000155
    3    8         0.0114768197
    4    1         0.0219164604
    4    2        -0.2516262984
    4    3         0.0000000370
    4    4        -0.8011659655
    4    5        -0.0386578778
    4    6         0.0024307056
    4    7         0.0035099830
    4    8         0.0000000077
    5    1         0.0126344651
    5    2        -0.2087765828
    5    3         0.0000000227
    5    4        -0.0386578778
    5    5        -0.7303672260
    5    6         0.0047545902
    5    7         0.0020879847
    5    8         0.0000000067
    6    1         0.0023858187
    6    2         0.0020221483
    6    3         0.0000000166
    6    4         0.0024307056
    6    5         0.0047545902
    6    6         0.6182798566
    6    7        -0.0034248656
    6    8        -0.0000000932
    7    1         0.0023432787
    7    2         0.0019860900
    7    3         0.0000000155
    7    4         0.0035099830
    7    5         0.0020879847
    7    6        -0.0034248656
    7    7         0.8101015673
    7    8        -0.0000001067
    8    1         0.0000000162
    8    2         0.0000000082
    8    3         0.0114768197
    8    4         0.0000000077
    8    5         0.0000000067
    8    6        -0.0000000932
    8    7        -0.0000001067
    8    8         1.1269493488
 begin_one_electron_integrals
    1    1       -32.8590638151
    1    2        -1.5370581847
    1    3        -0.0000000546
    1    4         0.1514899595
    1    5         0.1233824305
    1    6        -0.2111951064
    1    7        -0.2022518295
    1    8         0.0000001715
    2    1        -1.5370581847
    2    2        -7.8044074144
    2    3         0.0000000698
    2    4        -0.2522219034
    2    5        -0.1992137679
    2    6         0.1201651323
    2    7         0.0851615987
    2    8        -0.0000000381
    3    1        -0.0000000546
    3    2         0.0000000698
    3    3        -6.9636921568
    3    4         0.0000000355
    3    5         0.0000000355
    3    6         0.0000000724
    3    7         0.0000001808
    3    8         2.1015842281
    4    1         0.1514899595
    4    2        -0.2522219034
    4    3         0.0000000355
    4    4        -6.7705683674
    4    5        -0.1225516242
    4    6         0.1303130362
    4    7         1.9698551897
    4    8        -0.0000001771
    5    1         0.1233824305
    5    2        -0.1992137679
    5    3         0.0000000355
    5    4        -0.1225516242
    5    5        -6.4662791893
    5    6         2.0012388077
    5    7        -0.1102299948
    5    8        -0.0000001025
    6    1        -0.2111951064
    6    2         0.1201651323
    6    3         0.0000000724
    6    4         0.1303130362
    6    5         2.0012388077
    6    6        -6.0598345525
    6    7         0.0557448003
    6    8         0.0000003032
    7    1        -0.2022518295
    7    2         0.0851615987
    7    3         0.0000001808
    7    4         1.9698551897
    7    5        -0.1102299948
    7    6         0.0557448003
    7    7        -6.1338847541
    7    8         0.0000003773
    8    1         0.0000001715
    8    2        -0.0000000381
    8    3         2.1015842281
    8    4        -0.0000001771
    8    5        -0.0000001025
    8    6         0.0000003032
    8    7         0.0000003773
    8    8        -5.4696616467
 end_one_electron_integrals
 begin_two_electron_integrals
    1    1    1    1        4.8270142311
    1    1    1    2       -0.1295417741
    1    1    1    3        0.0000000350
    1    1    1    4       -0.0953081113
    1    1    1    5       -0.0806585150
    1    1    1    6        0.1672415297
    1    1    1    7        0.1656648835
    1    1    1    8       -0.0000001266
    1    2    1    1       -0.1295417741
    1    2    1    2        0.0173669030
    1    2    1    3       -0.0000000006
    1    2    1    4        0.0006558595
    1    2    1    5        0.0004862442
    1    2    1    6       -0.0044591587
    1    2    1    7       -0.0039155804
    1    2    1    8        0.0000000038
    1    3    1    1        0.0000000350
    1    3    1    2       -0.0000000006
    1    3    1    3        0.0240492061
    1    3    1    4       -0.0000000010
    1    3    1    5       -0.0000000011
    1    3    1    6        0.0000000004
    1    3    1    7       -0.0000000014
    1    3    1    8       -0.0373195809
    1    4    1    1       -0.0953081113
    1    4    1    2        0.0006558595
    1    4    1    3       -0.0000000010
    1    4    1    4        0.0193395125
    1    4    1    5        0.0028149385
    1    4    1    6       -0.0059968660
    1    4    1    7       -0.0328728160
    1    4    1    8        0.0000000097
    1    5    1    1       -0.0806585150
    1    5    1    2        0.0004862442
    1    5    1    3       -0.0000000011
    1    5    1    4        0.0028149385
    1    5    1    5        0.0173747252
    1    5    1    6       -0.0292609707
    1    5    1    7       -0.0020716013
    1    5    1    8        0.0000000071
    1    6    1    1        0.1672415297
    1    6    1    2       -0.0044591587
    1    6    1    3        0.0000000004
    1    6    1    4       -0.0059968660
    1    6    1    5       -0.0292609707
    1    6    1    6        0.0484017333
    1    6    1    7        0.0057782208
    1    6    1    8       -0.0000000117
    1    7    1    1        0.1656648835
    1    7    1    2       -0.0039155804
    1    7    1    3       -0.0000000014
    1    7    1    4       -0.0328728160
    1    7    1    5       -0.0020716013
    1    7    1    6        0.0057782208
    1    7    1    7        0.0543779239
    1    7    1    8       -0.0000000121
    1    8    1    1       -0.0000001266
    1    8    1    2        0.0000000038
    1    8    1    3       -0.0373195809
    1    8    1    4        0.0000000097
    1    8    1    5        0.0000000071
    1    8    1    6       -0.0000000117
    1    8    1    7       -0.0000000121
    1    8    1    8        0.0532526381
    1    1    2    1       -0.1295417741
    1    1    2    2        1.0602128580
    1    1    2    3       -0.0000000017
    1    1    2    4       -0.0079353553
    1    1    2    5       -0.0073517325
    1    1    2    6       -0.0245054476
    1    1    2    7       -0.0163072334
    1    1    2    8        0.0000000138
    1    2    2    1        0.0202433212
    1    2    2    2        0.0182381952
    1    2    2    3        0.0000000008
    1    2    2    4       -0.0028185525
    1    2    2    5       -0.0024106787
    1    2    2    6        0.0027816094
    1    2    2    7        0.0031513245
    1    2    2    8       -0.0000000018
    1    3    2    1       -0.0000000005
    1    3    2    2        0.0000000044
    1    3    2    3        0.0214918342
    1    3    2    4        0.0000000005
    1    3    2    5        0.0000000002
    1    3    2    6       -0.0000000011
    1    3    2    7       -0.0000000019
    1    3    2    8       -0.0196430795
    1    4    2    1        0.0004703746
    1    4    2    2       -0.0128761123
    1    4    2    3        0.0000000007
    1    4    2    4        0.0140386679
    1    4    2    5       -0.0004015113
    1    4    2    6        0.0015474435
    1    4    2    7       -0.0149397952
    1    4    2    8        0.0000000012
    1    5    2    1        0.0003719195
    1    5    2    2       -0.0109628917
    1    5    2    3        0.0000000003
    1    5    2    4       -0.0003419555
    1    5    2    5        0.0131019233
    1    5    2    6       -0.0142696142
    1    5    2    7        0.0031758802
    1    5    2    8        0.0000000004
    1    6    2    1       -0.0044534068
    1    6    2    2        0.0197982037
    1    6    2    3       -0.0000000007
    1    6    2    4        0.0012011160
    1    6    2    5       -0.0231598709
    1    6    2    6        0.0221501053
    1    6    2    7       -0.0051368421
    1    6    2    8        0.0000000001
    1    7    2    1       -0.0038800258
    1    7    2    2        0.0204629450
    1    7    2    3       -0.0000000028
    1    7    2    4       -0.0258656842
    1    7    2    5        0.0043282798
    1    7    2    6       -0.0055313012
    1    7    2    7        0.0241223758
    1    7    2    8       -0.0000000002
    1    8    2    1        0.0000000035
    1    8    2    2       -0.0000000144
    1    8    2    3       -0.0363924026
    1    8    2    4        0.0000000042
    1    8    2    5        0.0000000023
    1    8    2    6       -0.0000000004
    1    8    2    7       -0.0000000009
    1    8    2    8        0.0265535441
    1    1    3    1        0.0000000350
    1    1    3    2       -0.0000000017
    1    1    3    3        1.0254581813
    1    1    3    4        0.0000000027
    1    1    3    5       -0.0000000022
    1    1    3    6       -0.0000000116
    1    1    3    7       -0.0000000382
    1    1    3    8       -0.5078903775
    1    2    3    1       -0.0000000005
    1    2    3    2        0.0000000007
    1    2    3    3        0.0142166736
    1    2    3    4        0.0000000006
    1    2    3    5        0.0000000004
    1    2    3    6       -0.0000000009
    1    2    3    7       -0.0000000015
    1    2    3    8       -0.0102424783
    1    3    3    1        0.0263254129
    1    3    3    2        0.0209529984
    1    3    3    3       -0.0000000025
    1    3    3    4        0.0048409616
    1    3    3    5        0.0042199444
    1    3    3    6       -0.0068605279
    1    3    3    7       -0.0066681115
    1    3    3    8        0.0000000055
    1    4    3    1       -0.0000000005
    1    4    3    2        0.0000000008
    1    4    3    3       -0.0030080603
    1    4    3    4       -0.0000000014
    1    4    3    6       -0.0000000002
    1    4    3    7        0.0000000011
    1    4    3    8        0.0029134370
    1    5    3    1       -0.0000000008
    1    5    3    2        0.0000000005
    1    5    3    3       -0.0025381997
    1    5    3    5       -0.0000000012
    1    5    3    6        0.0000000010
    1    5    3    7       -0.0000000002
    1    5    3    8        0.0022994971
    1    6    3    1        0.0000000007
    1    6    3    2       -0.0000000016
    1    6    3    3        0.0040816393
    1    6    3    4       -0.0000000003
    1    6    3    5        0.0000000015
    1    6    3    6       -0.0000000013
    1    6    3    7        0.0000000004
    1    6    3    8       -0.0048838218
    1    7    3    1       -0.0000000014
    1    7    3    2       -0.0000000036
    1    7    3    3        0.0034231109
    1    7    3    4        0.0000000017
    1    7    3    5       -0.0000000009
    1    7    3    6        0.0000000011
    1    7    3    7       -0.0000000010
    1    7    3    8       -0.0046996555
    1    8    3    1       -0.0375101949
    1    8    3    2       -0.0358552669
    1    8    3    3        0.0000000012
    1    8    3    4       -0.0076308125
    1    8    3    5       -0.0067415270
    1    8    3    6        0.0090594211
    1    8    3    7        0.0087523389
    1    8    3    8       -0.0000000048
    1    1    4    1       -0.0953081113
    1    1    4    2       -0.0079353553
    1    1    4    3        0.0000000027
    1    1    4    4        0.9000622580
    1    1    4    5        0.0209827489
    1    1    4    6       -0.0332747765
    1    1    4    7       -0.4642129519
    1    1    4    8        0.0000000660
    1    2    4    1        0.0004703746
    1    2    4    2       -0.0028289107
    1    2    4    3        0.0000000005
    1    2    4    4        0.0099659930
    1    2    4    5       -0.0006409088
    1    2    4    6        0.0015280415
    1    2    4    7       -0.0070597862
    1    3    4    1       -0.0000000005
    1    3    4    2        0.0000000007
    1    3    4    3        0.0048592328
    1    3    4    4        0.0000000005
    1    3    4    5        0.0000000002
    1    3    4    6       -0.0000000003
    1    3    4    7       -0.0000000006
    1    3    4    8       -0.0032865046
    1    4    4    1        0.0206471319
    1    4    4    2        0.0136390076
    1    4    4    3       -0.0000000014
    1    4    4    4        0.0064217010
    1    4    4    5        0.0027400143
    1    4    4    6       -0.0042159860
    1    4    4    7       -0.0052280328
    1    4    4    8        0.0000000020
    1    5    4    1        0.0028828614
    1    5    4    2       -0.0002547036
    1    5    4    4       -0.0018497490
    1    5    4    5        0.0031165831
    1    5    4    6       -0.0029064248
    1    5    4    7        0.0023000209
    1    5    4    8       -0.0000000004
    1    6    4    1       -0.0059098072
    1    6    4    2        0.0011705169
    1    6    4    3       -0.0000000008
    1    6    4    4        0.0039650994
    1    6    4    5       -0.0046962601
    1    6    4    6        0.0043108987
    1    6    4    7       -0.0042438149
    1    6    4    8        0.0000000008
    1    7    4    1       -0.0325372675
    1    7    4    2       -0.0254254753
    1    7    4    3        0.0000000025
    1    7    4    4       -0.0153325900
    1    7    4    5       -0.0034509265
    1    7    4    6        0.0053590375
    1    7    4    7        0.0050443160
    1    7    4    8       -0.0000000017
    1    8    4    1        0.0000000096
    1    8    4    2        0.0000000041
    1    8    4    3       -0.0077099932
    1    8    4    4        0.0000000022
    1    8    4    5        0.0000000011
    1    8    4    6       -0.0000000011
    1    8    4    7        0.0000000016
    1    8    4    8        0.0037181672
    1    1    5    1       -0.0806585150
    1    1    5    2       -0.0073517325
    1    1    5    3       -0.0000000022
    1    1    5    4        0.0209827489
    1    1    5    5        0.8526892885
    1    1    5    6       -0.4546241445
    1    1    5    7        0.0224810937
    1    1    5    8        0.0000000418
    1    2    5    1        0.0003719195
    1    2    5    2       -0.0024319738
    1    2    5    3        0.0000000003
    1    2    5    4       -0.0006453788
    1    2    5    5        0.0095058768
    1    2    5    6       -0.0069986014
    1    2    5    7        0.0023752905
    1    2    5    8       -0.0000000004
    1    3    5    1       -0.0000000008
    1    3    5    2        0.0000000003
    1    3    5    3        0.0042384413
    1    3    5    4        0.0000000002
    1    3    5    5        0.0000000004
    1    3    5    6       -0.0000000003
    1    3    5    7       -0.0000000003
    1    3    5    8       -0.0029219761
    1    4    5    1        0.0028828614
    1    4    5    2       -0.0003154090
    1    4    5    3        0.0000000001
    1    4    5    4        0.0027570574
    1    4    5    5       -0.0019001527
    1    4    5    6        0.0021389980
    1    4    5    7       -0.0028080987
    1    4    5    8       -0.0000000002
    1    5    5    1        0.0185011119
    1    5    5    2        0.0126673330
    1    5    5    3       -0.0000000012
    1    5    5    4        0.0030960293
    1    5    5    5        0.0051615107
    1    5    5    6       -0.0051581229
    1    5    5    7       -0.0037667178
    1    5    5    8        0.0000000021
    1    6    5    1       -0.0287729661
    1    6    5    2       -0.0226697880
    1    6    5    3        0.0000000017
    1    6    5    4       -0.0047290829
    1    6    5    5       -0.0114017585
    1    6    5    6        0.0042332169
    1    6    5    7        0.0054422131
    1    6    5    8       -0.0000000021
    1    7    5    1       -0.0020428117
    1    7    5    2        0.0042679766
    1    7    5    3       -0.0000000015
    1    7    5    4       -0.0034174510
[...]
    8    1    3    7        0.0090640998
    8    1    3    8       -0.0000000051
    8    2    3    1       -0.0196430795
    8    2    3    2       -0.0512889395
    8    2    3    3        0.0000000113
    8    2    3    4       -0.0053503680
    8    2    3    5       -0.0047434774
    8    2    3    6        0.0121872546
    8    2    3    7        0.0113864306
    8    2    3    8       -0.0000000155
    8    3    3    1        0.0000000055
    8    3    3    2        0.0000000093
    8    3    3    3       -0.2005234062
    8    3    3    4        0.0000000038
    8    3    3    5        0.0000000041
    8    3    3    6       -0.0000000004
    8    3    3    7        0.0000000065
    8    3    3    8        0.1599728769
    8    4    3    1       -0.0032865046
    8    4    3    2       -0.0004463924
    8    4    3    3        0.0000000135
    8    4    3    4       -0.0054315859
    8    4    3    5       -0.0004184010
    8    4    3    6        0.0026249454
    8    4    3    7        0.0168874976
    8    4    3    8       -0.0000000196
    8    5    3    1       -0.0029219761
    8    5    3    2        0.0000973217
    8    5    3    3        0.0000000078
    8    5    3    4       -0.0003138914
    8    5    3    5       -0.0044932773
    8    5    3    6        0.0155443368
    8    5    3    7        0.0006754990
    8    5    3    8       -0.0000000123
    8    6    3    1        0.0070146470
    8    6    3    2        0.0254170977
    8    6    3    3       -0.0000000346
    8    6    3    4        0.0068674569
    8    6    3    5        0.0259707623
    8    6    3    6       -0.0184775567
    8    6    3    7       -0.0024821586
    8    6    3    8        0.0000000217
    8    7    3    1        0.0069277435
    8    7    3    2        0.0244810240
    8    7    3    3       -0.0000000389
    8    7    3    4        0.0284643424
    8    7    3    5        0.0035816119
    8    7    3    6       -0.0026628664
    8    7    3    7       -0.0179077582
    8    7    3    8        0.0000000237
    8    8    3    1       -0.0000000095
    8    8    3    2       -0.0000000303
    8    8    3    3        0.6506995268
    8    8    3    4       -0.0000000122
    8    8    3    5       -0.0000000103
    8    8    3    6        0.0000000046
    8    8    3    7       -0.0000000035
    8    8    3    8       -0.1839092427
    8    1    4    1        0.0000000097
    8    1    4    2        0.0000000042
    8    1    4    3       -0.0076308125
    8    1    4    4        0.0000000022
    8    1    4    5        0.0000000011
    8    1    4    6       -0.0000000012
    8    1    4    7        0.0000000019
    8    1    4    8        0.0039473171
    8    2    4    1        0.0000000012
    8    2    4    2        0.0000000030
    8    2    4    3       -0.0049367188
    8    2    4    4        0.0000000021
    8    2    4    5        0.0000000005
    8    2    4    6        0.0000000001
    8    2    4    7       -0.0000000060
    8    2    4    8        0.0041210703
    8    3    4    1        0.0029134370
    8    3    4    2        0.0042860791
    8    3    4    3        0.0000000024
    8    3    4    4       -0.1424656265
    8    3    4    5       -0.0039295264
    8    3    4    6        0.0080317307
    8    3    4    7        0.1200201104
    8    3    4    8       -0.0000000196
    8    4    4    1        0.0000000020
    8    4    4    2       -0.0000000063
    8    4    4    3       -0.0047849822
    8    4    4    4       -0.0000000089
    8    4    4    5        0.0000000012
    8    4    4    6       -0.0000000032
    8    4    4    7       -0.0000000320
    8    4    4    8        0.0168185753
    8    5    4    1       -0.0000000002
    8    5    4    2        0.0000000012
    8    5    4    3       -0.0003271024
    8    5    4    4        0.0000000070
    8    5    4    5        0.0000000019
    8    5    4    6       -0.0000000019
    8    5    4    7       -0.0000000063
    8    5    4    8        0.0016832432
    8    6    4    2        0.0000000015
    8    6    4    3        0.0070349553
    8    6    4    4       -0.0000000283
    8    6    4    5       -0.0000000036
    8    6    4    6        0.0000000054
    8    6    4    7        0.0000000162
    8    6    4    8       -0.0006681935
    8    7    4    1       -0.0000000034
    8    7    4    2       -0.0000000151
    8    7    4    3        0.0278259773
    8    7    4    4       -0.0000000647
    8    7    4    5       -0.0000000024
    8    7    4    6        0.0000000033
    8    7    4    7        0.0000000119
    8    7    4    8       -0.0066231322
    8    8    4    1       -0.0047595722
    8    8    4    2        0.0067879811
    8    8    4    3       -0.0000000122
    8    8    4    4        0.5648670127
    8    8    4    5        0.0095369407
    8    8    4    6       -0.0107429945
    8    8    4    7       -0.1541128031
    8    8    4    8        0.0000000193
    8    1    5    1        0.0000000071
    8    1    5    2        0.0000000023
    8    1    5    3       -0.0067415270
    8    1    5    4        0.0000000011
    8    1    5    5        0.0000000005
    8    1    5    6        0.0000000018
    8    1    5    7       -0.0000000012
    8    1    5    8        0.0034689280
    8    2    5    1        0.0000000004
    8    2    5    2       -0.0000000007
    8    2    5    3       -0.0043974604
    8    2    5    4        0.0000000005
    8    2    5    5        0.0000000012
    8    2    5    6       -0.0000000054
    8    2    5    7        0.0000000012
    8    2    5    8        0.0039927114
    8    3    5    1        0.0022994971
    8    3    5    2        0.0034731600
    8    3    5    3        0.0000000030
    8    3    5    4       -0.0039677074
    8    3    5    5       -0.1320652197
    8    3    5    6        0.1176201383
    8    3    5    7       -0.0063414537
    8    3    5    8       -0.0000000123
    8    4    5    1       -0.0000000004
    8    4    5    2        0.0000000011
    8    4    5    3       -0.0004346429
    8    4    5    4        0.0000000015
    8    4    5    5        0.0000000106
    8    4    5    6       -0.0000000107
    8    4    5    7        0.0000000007
    8    4    5    8        0.0016832432
    8    5    5    1        0.0000000021
    8    5    5    2       -0.0000000017
    8    5    5    3       -0.0038057507
    8    5    5    4        0.0000000016
    8    5    5    5       -0.0000000042
    8    5    5    6       -0.0000000173
    8    5    5    7       -0.0000000005
    8    5    5    8        0.0166386730
    8    6    5    1       -0.0000000030
    8    6    5    2       -0.0000000091
    8    6    5    3        0.0252454796
    8    6    5    4       -0.0000000035
    8    6    5    5       -0.0000000396
    8    6    5    6        0.0000000165
    8    6    5    7        0.0000000030
    8    6    5    8       -0.0060349962
    8    7    5    1        0.0000000006
    8    7    5    2        0.0000000045
    8    7    5    3        0.0038183014
    8    7    5    4       -0.0000000025
    8    7    5    5       -0.0000000278
    8    7    5    6        0.0000000210
    8    7    5    7        0.0000000025
    8    7    5    8        0.0003124370
    8    8    5    1       -0.0038387572
    8    8    5    2        0.0058900930
    8    8    5    3       -0.0000000103
    8    8    5    4        0.0095369407
    8    8    5    5        0.5449083317
    8    8    5    6       -0.1574541114
    8    8    5    7        0.0082710368
    8    8    5    8        0.0000000124
    8    1    6    1       -0.0000000117
    8    1    6    2       -0.0000000004
    8    1    6    3        0.0090594211
    8    1    6    4       -0.0000000011
    8    1    6    5        0.0000000017
    8    1    6    6       -0.0000000025
    8    1    6    7        0.0000000011
    8    1    6    8       -0.0108622222
    8    2    6    1        0.0000000001
    8    2    6    2        0.0000000026
    8    2    6    3        0.0125470999
    8    2    6    5       -0.0000000057
    8    2    6    6        0.0000000028
    8    2    6    7       -0.0000000012
    8    2    6    8       -0.0086883896
    8    3    6    1       -0.0048838218
    8    3    6    2        0.0114892764
    8    3    6    3       -0.0000000060
    8    3    6    4        0.0070570878
    8    3    6    5        0.1134817834
    8    3    6    6       -0.1645905748
    8    3    6    7        0.0039765232
    8    3    6    8        0.0000000217
    8    4    6    1        0.0000000008
    8    4    6    2       -0.0000000009
    8    4    6    3        0.0023053318
    8    4    6    4       -0.0000000043
    8    4    6    5       -0.0000000086
    8    4    6    6        0.0000000170
    8    4    6    7       -0.0000000001
    8    4    6    8       -0.0006681935
    8    5    6    1       -0.0000000021
    8    5    6    2       -0.0000000028
    8    5    6    3        0.0158320009
    8    5    6    4       -0.0000000016
    8    5    6    5       -0.0000000218
    8    5    6    6        0.0000000030
    8    5    6    7        0.0000000028
    8    5    6    8       -0.0060349962
    8    6    6    1        0.0000000042
    8    6    6    2        0.0000000064
    8    6    6    3       -0.0186343093
    8    6    6    4        0.0000000053
    8    6    6    5        0.0000000174
    8    6    6    6       -0.0000000410
    8    6    6    7       -0.0000000011
    8    6    6    8        0.0282277065
    8    7    6    1       -0.0000000018
    8    7    6    2       -0.0000000017
    8    7    6    3       -0.0028764412
    8    7    6    4        0.0000000035
    8    7    6    5        0.0000000211
    8    7    6    6       -0.0000000303
    8    7    6    7       -0.0000000036
    8    7    6    8        0.0059890502
    8    8    6    1        0.0070065431
    8    8    6    2       -0.0137442095
    8    8    6    3        0.0000000046
    8    8    6    4       -0.0107429945
    8    8    6    5       -0.1574541114
    8    8    6    6        0.5694483752
    8    8    6    7       -0.0018266529
    8    8    6    8       -0.0000000391
    8    1    7    1       -0.0000000121
    8    1    7    2       -0.0000000009
    8    1    7    3        0.0087523389
    8    1    7    4        0.0000000016
    8    1    7    5       -0.0000000011
    8    1    7    6        0.0000000011
    8    1    7    7       -0.0000000026
    8    1    7    8       -0.0106480443
    8    2    7    1       -0.0000000002
    8    2    7    2       -0.0000000005
    8    2    7    3        0.0117999054
    8    2    7    4       -0.0000000053
    8    2    7    5        0.0000000011
    8    2    7    6       -0.0000000012
    8    2    7    7        0.0000000030
    8    2    7    8       -0.0080969255
    8    3    7    1       -0.0046996555
    8    3    7    2        0.0093712713
    8    3    7    3       -0.0000000005
    8    3    7    4        0.1149161977
    8    3    7    5       -0.0068099234
    8    3    7    6        0.0040534026
    8    3    7    7       -0.1738167792
    8    3    7    8        0.0000000237
    8    4    7    1       -0.0000000017
    8    4    7    2       -0.0000000018
    8    4    7    3        0.0171191250
    8    4    7    4       -0.0000000356
    8    4    7    5        0.0000000013
    8    4    7    6       -0.0000000004
    8    4    7    7       -0.0000000004
    8    4    7    8       -0.0066231322
    8    5    7    1        0.0000000007
    8    5    7    2        0.0000000004
    8    5    7    3        0.0003697824
    8    5    7    4       -0.0000000043
    8    5    7    5       -0.0000000017
    8    5    7    6        0.0000000031
    8    5    7    7        0.0000000106
    8    5    7    8        0.0003124370
    8    6    7    1       -0.0000000016
    8    6    7    2       -0.0000000015
    8    6    7    3       -0.0026553199
    8    6    7    4        0.0000000163
    8    6    7    5        0.0000000032
    8    6    7    6       -0.0000000011
    8    6    7    7       -0.0000000292
    8    6    7    8        0.0059890502
    8    7    7    1        0.0000000052
    8    7    7    2        0.0000000064
    8    7    7    3       -0.0180556815
    8    7    7    4        0.0000000127
    8    7    7    5        0.0000000024
    8    7    7    6       -0.0000000036
    8    7    7    7       -0.0000000630
    8    7    7    8        0.0302454171
    8    8    7    1        0.0066186760
    8    8    7    2       -0.0100814714
    8    8    7    3       -0.0000000035
    8    8    7    4       -0.1541128031
    8    8    7    5        0.0082710368
    8    8    7    6       -0.0018266529
    8    8    7    7        0.5882699082
    8    8    7    8       -0.0000000449
    8    1    8    1        0.0532526381
    8    1    8    2        0.0265535441
    8    1    8    3       -0.0000000048
    8    1    8    4        0.0037181672
    8    1    8    5        0.0032781920
    8    1    8    6       -0.0107126626
    8    1    8    7       -0.0105005034
    8    1    8    8        0.0000000111
    8    2    8    1        0.0265535441
    8    2    8    2        0.0507163791
    8    2    8    3       -0.0000000153
    8    2    8    4        0.0038901686
    8    2    8    5        0.0037576661
    8    2    8    6       -0.0094323271
    8    2    8    7       -0.0088070051
    8    2    8    8        0.0000000250
    8    3    8    1       -0.0000000048
    8    3    8    2       -0.0000000153
    8    3    8    3        0.1541014124
    8    3    8    4       -0.0000000170
    8    3    8    5       -0.0000000105
    8    3    8    6        0.0000000219
    8    3    8    7        0.0000000240
    8    3    8    8       -0.1839092427
    8    4    8    1        0.0037181672
    8    4    8    2        0.0038901686
    8    4    8    3       -0.0000000170
    8    4    8    4        0.0163510405
    8    4    8    5        0.0015932880
    8    4    8    6       -0.0006266090
    8    4    8    7       -0.0068528631
    8    4    8    8        0.0000000193
    8    5    8    1        0.0032781920
    8    5    8    2        0.0037576661
    8    5    8    3       -0.0000000105
    8    5    8    4        0.0015932880
    8    5    8    5        0.0170050290
    8    5    8    6       -0.0062454162
    8    5    8    7        0.0003654820
    8    5    8    8        0.0000000124
    8    6    8    1       -0.0107126626
    8    6    8    2       -0.0094323271
    8    6    8    3        0.0000000219
    8    6    8    4       -0.0006266090
    8    6    8    5       -0.0062454162
    8    6    8    6        0.0282277065
    8    6    8    7        0.0059890502
    8    6    8    8       -0.0000000391
    8    7    8    1       -0.0105005034
    8    7    8    2       -0.0088070051
    8    7    8    3        0.0000000240
    8    7    8    4       -0.0068528631
    8    7    8    5        0.0003654820
    8    7    8    6        0.0059890502
    8    7    8    7        0.0302454171
    8    7    8    8       -0.0000000449
    8    8    8    1        0.0000000111
    8    8    8    2        0.0000000250
    8    8    8    3       -0.1839092427
    8    8    8    4        0.0000000193
    8    8    8    5        0.0000000124
    8    8    8    6       -0.0000000391
    8    8    8    7       -0.0000000449
    8    8    8    8        0.6121033185
 end_two_electron_integrals

 Parallel integral file used      16 records with       0 large values


 Task  times  cpu:       80.7s     wall:       84.5s


                                NWChem Input Module
                                -------------------


 Summary of allocated global arrays
-----------------------------------
  No active global arrays


MA_summarize_allocated_blocks: starting scan ...
MA_summarize_allocated_blocks: scan completed: 0 heap blocks, 0 stack blocks
MA usage statistics:

	allocation statistics:
					      heap	     stack
					      ----	     -----
	current number of blocks	         0	         0
	maximum number of blocks	        18	        42
	current total bytes		         0	         0
	maximum total bytes		  25775928	4725685688
	maximum total K-bytes		     25776	   4725686
	maximum total M-bytes		        26	      4726


                                     CITATION
                                     --------
                Please cite the following reference when publishing
                           results obtained with NWChem:

          E. Apra, E. J. Bylaska, W. A. de Jong, N. Govind, K. Kowalski,
       T. P. Straatsma, M. Valiev, H. J. J. van Dam, Y. Alexeev, J. Anchell,
       V. Anisimov, F. W. Aquino, R. Atta-Fynn, J. Autschbach, N. P. Bauman,
     J. C. Becca, D. E. Bernholdt, K. Bhaskaran-Nair, S. Bogatko, P. Borowski,
         J. Boschen, J. Brabec, A. Bruner, E. Cauet, Y. Chen, G. N. Chuev,
      C. J. Cramer, J. Daily, M. J. O. Deegan, T. H. Dunning Jr., M. Dupuis,
   K. G. Dyall, G. I. Fann, S. A. Fischer, A. Fonari, H. Fruchtl, L. Gagliardi,
      J. Garza, N. Gawande, S. Ghosh, K. Glaesemann, A. W. Gotz, J. Hammond,
       V. Helms, E. D. Hermes, K. Hirao, S. Hirata, M. Jacquelin, L. Jensen,
   B. G. Johnson, H. Jonsson, R. A. Kendall, M. Klemm, R. Kobayashi, V. Konkov,
      S. Krishnamoorthy, M. Krishnan, Z. Lin, R. D. Lins, R. J. Littlefield,
      A. J. Logsdail, K. Lopata, W. Ma, A. V. Marenich, J. Martin del Campo,
   D. Mejia-Rodriguez, J. E. Moore, J. M. Mullin, T. Nakajima, D. R. Nascimento,
    J. A. Nichols, P. J. Nichols, J. Nieplocha, A. Otero-de-la-Roza, B. Palmer,
    A. Panyala, T. Pirojsirikul, B. Peng, R. Peverati, J. Pittner, L. Pollack,
   R. M. Richard, P. Sadayappan, G. C. Schatz, W. A. Shelton, D. W. Silverstein,
   D. M. A. Smith, T. A. Soares, D. Song, M. Swart, H. L. Taylor, G. S. Thomas,
            V. Tipparaju, D. G. Truhlar, K. Tsemekhman, T. Van Voorhis,
      A. Vazquez-Mayagoitia, P. Verma, O. Villa, A. Vishnu, K. D. Vogiatzis,
        D. Wang, J. H. Weare, M. J. Williamson, T. L. Windus, K. Wolinski,
        A. T. Wong, Q. Wu, C. Yang, Q. Yu, M. Zacharias, Z. Zhang, Y. Zhao,
                                and R. J. Harrison
                        "NWChem: Past, present, and future
                         J. Chem. Phys. 152, 184102 (2020)
                               doi:10.1063/5.0004997

                                      AUTHORS
                                      -------
  E. Apra, E. J. Bylaska, N. Govind, K. Kowalski, M. Valiev, D. Mejia-Rodriguez,
       A. Kunitsa, N. P. Bauman, A. Panyala, W. A. de Jong, T. P. Straatsma,
        H. J. J. van Dam, D. Wang, T. L. Windus, J. Hammond, J. Autschbach,
    K. Bhaskaran-Nair, J. Brabec, K. Lopata, S. A. Fischer, S. Krishnamoorthy,
     M. Jacquelin, W. Ma, M. Klemm, O. Villa, Y. Chen, V. Anisimov, F. Aquino,
    S. Hirata, M. T. Hackler, Eric Hermes, L. Jensen, J. E. Moore, J. C. Becca,
      V. Konjkov, T. Risthaus, M. Malagoli, A. Marenich, A. Otero-de-la-Roza,
        J. Mullin, P. Nichols, R. Peverati, J. Pittner, Y. Zhao, P.-D. Fan,
        A. Fonari, M. J. Williamson, R. J. Harrison, J. R. Rehr, M. Dupuis,
     D. Silverstein, D. M. A. Smith, J. Nieplocha, V. Tipparaju, M. Krishnan,
     B. E. Van Kuiken, A. Vazquez-Mayagoitia, M. Swart, Q. Wu, T. Van Voorhis,
     A. A. Auer, M. Nooijen, L. D. Crosby, E. Brown, G. Cisneros, G. I. Fann,
   H. Fruchtl, J. Garza, K. Hirao, R. A. Kendall, J. A. Nichols, K. Tsemekhman,
    K. Wolinski, J. Anchell, D. E. Bernholdt, P. Borowski, T. Clark, D. Clerc,
   H. Dachsel, M. J. O. Deegan, K. Dyall, D. Elwood, E. Glendening, M. Gutowski,
   A. C. Hess, J. Jaffe, B. G. Johnson, J. Ju, R. Kobayashi, R. Kutteh, Z. Lin,
   R. Littlefield, X. Long, B. Meng, T. Nakajima, S. Niu, L. Pollack, M. Rosing,
   K. Glaesemann, G. Sandrone, M. Stave, H. Taylor, G. Thomas, J. H. van Lenthe,
                               A. T. Wong, Z. Zhang.

 Total times  cpu:       93.7s     wall:      106.6s
