 argument  1 = input.nw
  NWChem w/ OpenMP: maximum threads =    1



============================== echo of input deck ==============================
 echo
 start H2O
 title "H2O"

 memory total 24 gb

 geometry units bohr
 symmetry c1
        O  0.00000000  0.00000000  0.00000000
        H  0.00000000  2.14761925  0.00000000
        H  1.72558000 -0.64860000  0.00000000
 end

 basis spherical
   * library cc-pVTZ
 end

 mcscf
   active  8
   actelec 10
   multiplicity 1
   maxiter 40
   vectors input h2o.mos
   vectors output h2o.mos
 end

 task mcscf

 scf
   vectors input h2o.mos
   vectors output h2o-trash.mos
   noscf
 end

 tce
   2eorb
   2emet 13
   ccsd
 end

# set tce:print_integrals T
# set tce:qorb 8
# set tce:qela 5
# set tce:qelb 5

 set tce:qducc T
 set tce:nactv 3
 set tce:nonhf T
 set tce:ducc_model 3

 set tce:printtol 0.02

 task tce
================================================================================


                                         
                                         


             Northwest Computational Chemistry Package (NWChem) 7.0.1
             --------------------------------------------------------


                    Environmental Molecular Sciences Laboratory
                       Pacific Northwest National Laboratory
                                Richland, WA 99352

                              Copyright (c) 1994-2020
                       Pacific Northwest National Laboratory
                            Battelle Memorial Institute

             NWChem is an open-source computational chemistry package
                        distributed under the terms of the
                      Educational Community License (ECL) 2.0
             A copy of the license is included with this distribution
                              in the LICENSE.TXT file

                                  ACKNOWLEDGMENT
                                  --------------

            This software and its documentation were developed at the
            EMSL at Pacific Northwest National Laboratory, a multiprogram
            national laboratory, operated for the U.S. Department of Energy
            by Battelle under Contract Number DE-AC05-76RL01830. Support
            for this work was provided by the Department of Energy Office
            of Biological and Environmental Research, Office of Basic
            Energy Sciences, and the Office of Advanced Scientific Computing.


           Job information
           ---------------

    hostname        = WE46210
    program         = /home/baum612/code/nwchem/bin/LINUX64/nwchem
    date            = Tue Feb 20 11:58:40 2024

    compiled        = Fri_Feb_16_11:09:52_2024
    source          = /home/baum612/code/nwchem
    nwchem branch   = 7.0.0
    nwchem revision = nwchem_on_git-4191-g39d87d64de
    ga revision     = 5.8.1
    use scalapack   = F
    input           = input.nw
    prefix          = H2O.
    data base       = ./H2O.db
    status          = startup
    nproc           =        1
    time left       =     -1s



           Memory information
           ------------------

    heap     =  805306366 doubles =   6144.0 Mbytes
    stack    =  805306363 doubles =   6144.0 Mbytes
    global   = 1610612736 doubles =  12288.0 Mbytes (distinct from heap & stack)
    total    = 3221225465 doubles =  24576.0 Mbytes
    verify   = yes
    hardfail = no 


           Directory information
           ---------------------

  0 permanent = .
  0 scratch   = .




                                NWChem Input Module
                                -------------------


                                        H2O
                                        ---
 Turning off AUTOSYM since
 SYMMETRY directive was detected!


          ------
          auto-z
          ------
  no constraints, skipping    0.0000000000000000     
  no constraints, skipping    0.0000000000000000     


                             Geometry "geometry" -> ""
                             -------------------------

 Output coordinates in a.u. (scale by  1.000000000 to convert to a.u.)

  No.       Tag          Charge          X              Y              Z
 ---- ---------------- ---------- -------------- -------------- --------------
    1 O                    8.0000    -0.17255800    -0.14990193     0.00000000
    2 H                    1.0000    -0.17255800     1.99771733     0.00000000
    3 H                    1.0000     1.55302200    -0.79850193     0.00000000

      Atomic Mass 
      ----------- 

      O                 15.994910
      H                  1.007825


 Effective nuclear repulsion energy (a.u.)       8.3690840726

            Nuclear Dipole moment (a.u.) 
            ----------------------------
        X                 Y               Z
 ---------------- ---------------- ----------------
    -0.0000000000    -0.0000000000     0.0000000000



                                Z-matrix (autoz)
                                -------- 

 Units are Angstrom for bonds and degrees for angles

      Type          Name      I     J     K     L     M      Value
      ----------- --------  ----- ----- ----- ----- ----- ----------
    1 Stretch                  1     2                       1.13647
    2 Stretch                  1     3                       0.97551
    3 Bend                     2     1     3               110.59992


            XYZ format geometry
            -------------------
     3
 geometry
 O                    -0.09131377    -0.07932469     0.00000000
 H                    -0.09131377     1.05714656     0.00000000
 H                     0.82182391    -0.42254905     0.00000000

 ==============================================================================
                                internuclear distances
 ------------------------------------------------------------------------------
       center one      |      center two      | atomic units |       a.u.
 ------------------------------------------------------------------------------
    3 H                |   1 O                |     1.84345  |     1.84345
 ------------------------------------------------------------------------------
                         number of included internuclear distances:          1
 ==============================================================================





 Summary of "ao basis" -> "" (spherical)
 ------------------------------------------------------------------------------
       Tag                 Description            Shells   Functions and Types
 ---------------- ------------------------------  ------  ---------------------
 *                          cc-pVTZ                   on all atoms 


                      Basis "ao basis" -> "ao basis" (spherical)
                      -----
  O (Oxygen)
  ----------
            Exponent  Coefficients 
       -------------- ---------------------------------------------------------
  1 S  1.53300000E+04  0.000508
  1 S  2.29900000E+03  0.003929
  1 S  5.22400000E+02  0.020243
  1 S  1.47300000E+02  0.079181
  1 S  4.75500000E+01  0.230687
  1 S  1.67600000E+01  0.433118
  1 S  6.20700000E+00  0.350260
  1 S  6.88200000E-01 -0.008154

  2 S  1.53300000E+04 -0.000115
  2 S  2.29900000E+03 -0.000895
  2 S  5.22400000E+02 -0.004636
  2 S  1.47300000E+02 -0.018724
  2 S  4.75500000E+01 -0.058463
  2 S  1.67600000E+01 -0.136463
  2 S  6.20700000E+00 -0.175740
  2 S  6.88200000E-01  0.603418

  3 S  1.75200000E+00  1.000000

  4 S  2.38400000E-01  1.000000

  5 P  3.44600000E+01  0.015928
  5 P  7.74900000E+00  0.099740
  5 P  2.28000000E+00  0.310492

  6 P  7.15600000E-01  1.000000

  7 P  2.14000000E-01  1.000000

  8 D  2.31400000E+00  1.000000

  9 D  6.45000000E-01  1.000000

 10 F  1.42800000E+00  1.000000

  H (Hydrogen)
  ------------
            Exponent  Coefficients 
       -------------- ---------------------------------------------------------
  1 S  3.38700000E+01  0.006068
  1 S  5.09500000E+00  0.045308
  1 S  1.15900000E+00  0.202822

  2 S  3.25800000E-01  1.000000

  3 S  1.02700000E-01  1.000000

  4 P  1.40700000E+00  1.000000

  5 P  3.88000000E-01  1.000000

  6 D  1.05700000E+00  1.000000



 Summary of "ao basis" -> "ao basis" (spherical)
 ------------------------------------------------------------------------------
       Tag                 Description            Shells   Functions and Types
 ---------------- ------------------------------  ------  ---------------------
 O                          cc-pVTZ                 10       30   4s3p2d1f
 H                          cc-pVTZ                  6       14   3s2p1d



                            NWChem Direct MCSCF Module
                            --------------------------


                                        H2O


     -----------------------------------
       Basis functions:             58
       Inactive shells:              0
       Active shells:                8
       Active electrons:            10
       Symmetry:                    a       
       Multiplicity:                 1
       Orbital rotations:          400
     -----------------------------------

     -----------------------------------
       E2 extrapolation:             F
       Conjugacy:                    T
       Micro CI relax:               T
       Canonical orbitals:           T
       Maximum iterations:          40
       Converge threshold:    1.00E-04
       Conjugacy resets:            20
       Initial levelshift:        0.10
     -----------------------------------

 Loading old vectors from job with title :

H2O


   input molecular orbitals = ./h2o.mos
  output molecular orbtials = ./h2o.mos

       No. of determinants:          3136


  Starting Orbital Energies
   -20.555828    -1.312631    -0.699470    -0.568321    -0.519554    -0.032954
    -0.025798    -0.015825     0.307503     0.335543     0.610859     0.689097
     0.817907     0.827297     0.971649     1.120146     1.187188     1.259050
     1.406136     1.940975     2.050959     2.089822     2.154982     2.291739
     2.604233     2.827386     3.345608     3.461714     3.469571     3.511404
     3.559615     3.727923     3.870775     3.893383     3.900193     4.003277
     4.078315     4.178045     4.261603     4.301378     4.528647     4.631432
     4.954134     5.152167     5.527365     5.853814     6.129181     6.418294
     6.783957     6.887564     6.981488     7.018588     7.096940     7.145288
     7.393267     7.561348     7.828788    11.587117

  Orbital Symmetry Irreps
a    a    a    a    a    a    a    a    a    a    a    a    a    a    a   
a    a    a    a    a    a    a    a    a    a    a    a    a    a    a   
a    a    a    a    a    a    a    a    a    a    a    a    a    a    a   
a    a    a    a    a    a    a    a    a    a    a    a    a   

 Integral file          = ./H2O.aoints.0
 Record size in doubles =  65536        No. of integs per rec  =  43688
 Max. records in memory =     49        Max. records in file   = 252463
 No. of bits per label  =      8        No. of bits per value  =     64


 #quartets = 3.213D+04 #integrals = 6.608D+05 #direct =  0.0% #cached =100.0%




          %%%%% MacroIteration   1 %%%%%


          Number of sigma calls:       15
                       o<<<<< (aa):             0.01
                       o<<<<< (bb):             0.00
                       o<<<<< (ab):             0.19
                       o<<<<< (total)           0.21
                       o<<<<< (aa) ff           0.00
                       o<<<<< (aa) gop          0.00
                       o<<<<< (aa) dot          0.00
                       o<<<<< (ab) str          0.00
                       o<<<<< (ab) gath         0.00
                       o<<<<< (ab) dotab        0.00
                       o<<<<< (ab) scat         0.00
                       o<<<<< (ab) sync         0.00
                       o<<<<< Density           0.03
                       o<<<<< Density one       0.01
                       o<<<<< Density two       0.01
                       o<<<<< Density ab        0.01
                       o<<<<< Spin adapt        0.85
                       o<<<<< Symm adapt        0.00

                       o<<<<< (ab) max sync:      0.00

           >>>| Valence CI:            -84.496891813809
           >>>| MCSCF energy:          -76.127807741246
           >>>| Gradient norm:          0.785912165D-02

                              ----- Line search ------

        step       energy         lsg     num-lsg   num-lsh   lsrat    time
      ------- ---------------- --------- --------- --------- ------- --------
       0.0000     -76.12780774 -6.95D-06  0.00D+00  0.00D+00 0.0D+00      3.3

          Number of sigma calls:       14
                       o<<<<< (aa):             0.00
                       o<<<<< (bb):             0.03
                       o<<<<< (ab):             0.19
                       o<<<<< (total)           0.22
                       o<<<<< (aa) ff           0.00
                       o<<<<< (aa) gop          0.00
                       o<<<<< (aa) dot          0.00
                       o<<<<< (ab) str          0.00
                       o<<<<< (ab) gath         0.00
                       o<<<<< (ab) dotab        0.00
                       o<<<<< (ab) scat         0.00
                       o<<<<< (ab) sync         0.00
                       o<<<<< Density           0.02
                       o<<<<< Density one       0.01
                       o<<<<< Density two       0.00
                       o<<<<< Density ab        0.01
                       o<<<<< Spin adapt        1.04
                       o<<<<< Symm adapt        0.00

                       o<<<<< (ab) max sync:      0.00
       1.0000     -76.12781138 -3.16D-07 -3.16D-07  6.64D-06 4.5D-02      4.9
     --- Orbitals canonicalized ---



          %%%%% MacroIteration   2 %%%%%


          Number of sigma calls:       12
                       o<<<<< (aa):             0.01
                       o<<<<< (bb):             0.00
                       o<<<<< (ab):             0.16
                       o<<<<< (total)           0.18
                       o<<<<< (aa) ff           0.00
                       o<<<<< (aa) gop          0.00
                       o<<<<< (aa) dot          0.00
                       o<<<<< (ab) str          0.00
                       o<<<<< (ab) gath         0.00
                       o<<<<< (ab) dotab        0.00
                       o<<<<< (ab) scat         0.00
                       o<<<<< (ab) sync         0.00
                       o<<<<< Density           0.03
                       o<<<<< Density one       0.00
                       o<<<<< Density two       0.00
                       o<<<<< Density ab        0.02
                       o<<<<< Spin adapt        0.82
                       o<<<<< Symm adapt        0.00

                       o<<<<< (ab) max sync:      0.00

           >>>| Valence CI:            -84.496895447720
           >>>| MCSCF energy:          -76.127811375157
           >>>| Gradient norm:          0.718367902D-03
     --- Warning:    2 Hessian diagonals < 0.05 ---
     --- Conjugacy reset ---

                              ----- Line search ------

        step       energy         lsg     num-lsg   num-lsh   lsrat    time
      ------- ---------------- --------- --------- --------- ------- --------
       0.0000     -76.12781138 -9.76D-08  0.00D+00  0.00D+00 0.0D+00      6.6

          Number of sigma calls:       10
                       o<<<<< (aa):             0.01
                       o<<<<< (bb):             0.00
                       o<<<<< (ab):             0.13
                       o<<<<< (total)           0.14
                       o<<<<< (aa) ff           0.00
                       o<<<<< (aa) gop          0.00
                       o<<<<< (aa) dot          0.00
                       o<<<<< (ab) str          0.00
                       o<<<<< (ab) gath         0.00
                       o<<<<< (ab) dotab        0.00
                       o<<<<< (ab) scat         0.00
                       o<<<<< (ab) sync         0.00
                       o<<<<< Density           0.03
                       o<<<<< Density one       0.01
                       o<<<<< Density two       0.00
                       o<<<<< Density ab        0.02
                       o<<<<< Spin adapt        0.71
                       o<<<<< Symm adapt        0.00

                       o<<<<< (ab) max sync:      0.00
       1.0000     -76.12781144 -3.35D-08 -3.36D-08  6.41D-08 3.4D-01      7.9

          Number of sigma calls:       10
                       o<<<<< (aa):             0.00
                       o<<<<< (bb):             0.00
                       o<<<<< (ab):             0.14
                       o<<<<< (total)           0.14
                       o<<<<< (aa) ff           0.00
                       o<<<<< (aa) gop          0.00
                       o<<<<< (aa) dot          0.00
                       o<<<<< (ab) str          0.00
                       o<<<<< (ab) gath         0.00
                       o<<<<< (ab) dotab        0.00
                       o<<<<< (ab) scat         0.00
                       o<<<<< (ab) sync         0.00
                       o<<<<< Density           0.03
                       o<<<<< Density one       0.01
                       o<<<<< Density two       0.01
                       o<<<<< Density ab        0.01
                       o<<<<< Spin adapt        0.78
                       o<<<<< Symm adapt        0.00

                       o<<<<< (ab) max sync:      0.00
       1.5236     -76.12781145  3.51D-11  3.40D-11  6.41D-08 3.6D-04      9.2



          %%%%% MacroIteration   3 %%%%%


          Number of sigma calls:        1
                       o<<<<< (aa):             0.00
                       o<<<<< (bb):             0.01
                       o<<<<< (ab):             0.01
                       o<<<<< (total)           0.02
                       o<<<<< (aa) ff           0.00
                       o<<<<< (aa) gop          0.00
                       o<<<<< (aa) dot          0.00
                       o<<<<< (ab) str          0.00
                       o<<<<< (ab) gath         0.00
                       o<<<<< (ab) dotab        0.00
                       o<<<<< (ab) scat         0.00
                       o<<<<< (ab) sync         0.00
                       o<<<<< Density           0.01
                       o<<<<< Density one       0.00
                       o<<<<< Density two       0.01
                       o<<<<< Density ab        0.00
                       o<<<<< Spin adapt        0.00
                       o<<<<< Symm adapt        0.00

                       o<<<<< (ab) max sync:      0.00

           >>>| Valence CI:            -84.496895522091
           >>>| MCSCF energy:          -76.127811449528
           >>>| Gradient norm:          0.996582368D-04




     ==============================
            MCSCF Converged
     ==============================



          Canonical Eigenvalues

              1      
    1  -20.5562
    2   -1.3120
    3   -0.6985
    4   -0.5679
    5   -0.5195
    6   -0.0332
    7   -0.0258
    8   -0.0158
    9    0.3078
   10    0.3356
   11    0.6108
   12    0.6903
   13    0.8182
   14    0.8268
   15    0.9716
   16    1.1188
   17    1.1876
   18    1.2570
   19    1.4065
   20    1.9389
   21    2.0508
   22    2.0887
   23    2.1559
   24    2.2944
   25    2.6055
   26    2.8260
   27    3.3451
   28    3.4603
   29    3.4686
   30    3.5096
   31    3.5601
   32    3.7236
   33    3.8684
   34    3.8884
   35    3.8992
   36    4.0032
   37    4.0781
   38    4.1733
   39    4.2574
   40    4.2983
   41    4.5264
   42    4.6279
   43    4.9530
   44    5.1491
   45    5.5264
   46    5.8510
   47    6.1222
   48    6.4056
   49    6.7809
   50    6.8871
   51    6.9811
   52    7.0169
   53    7.0968
   54    7.1445
   55    7.3880
   56    7.5595
   57    7.8197
   58   11.5634


          Converged CI vector

   Index           Coefficient          Config. Occupation
         1          0.97081894          1  2  3  4  5  1  2  3  4  5
        22          0.07387688          1  2  3  4  5  1  2  3  4  8
         3         -0.04539527          1  2  3  4  5  1  2  3  5  6
         8         -0.02713202          1  2  3  4  5  1  2  3  5  7
        27         -0.02033599          1  2  3  4  5  1  2  3  6  8
         4          0.02867372          1  2  3  4  5  1  2  4  5  6
         9         -0.03788021          1  2  3  4  5  1  2  4  5  7
        38         -0.02169088          1  2  3  4  5  1  2  4  7  8
      1177          0.07387688          1  2  3  4  8  1  2  3  4  5
      1198         -0.05159138          1  2  3  4  8  1  2  3  4  8
      1179          0.02590719          1  2  3  4  8  1  2  3  5  6
      1180         -0.02231282          1  2  3  4  8  1  2  4  5  6
      1185          0.02908086          1  2  3  4  8  1  2  4  5  7
       113         -0.04539527          1  2  3  5  6  1  2  3  4  5
       134          0.02590719          1  2  3  5  6  1  2  3  4  8
       115         -0.05800097          1  2  3  5  6  1  2  3  5  6
       116          0.04330233          1  2  3  5  6  1  2  4  5  6
       117         -0.02028549          1  2  3  5  6  1  3  4  5  6
       393         -0.02713202          1  2  3  5  7  1  2  3  4  5
       400         -0.02358655          1  2  3  5  7  1  2  3  5  7
       401         -0.02699912          1  2  3  5  7  1  2  4  5  7
      1457         -0.02033599          1  2  3  6  8  1  2  3  4  5
       169          0.02867372          1  2  4  5  6  1  2  3  4  5
       190         -0.02231282          1  2  4  5  6  1  2  3  4  8
       171          0.04330233          1  2  4  5  6  1  2  3  5  6
       172         -0.04771084          1  2  4  5  6  1  2  4  5  6
       177          0.02007315          1  2  4  5  6  1  2  4  5  7
       173          0.02204783          1  2  4  5  6  1  3  4  5  6
       449         -0.03788021          1  2  4  5  7  1  2  3  4  5
       470          0.02908086          1  2  4  5  7  1  2  3  4  8
       456         -0.02699912          1  2  4  5  7  1  2  3  5  7
       452          0.02007315          1  2  4  5  7  1  2  4  5  6
       457         -0.05197769          1  2  4  5  7  1  2  4  5  7
       458         -0.02395087          1  2  4  5  7  1  3  4  5  7
      2073         -0.02169088          1  2  4  7  8  1  2  3  4  5
       227         -0.02028549          1  3  4  5  6  1  2  3  5  6
       228          0.02204783          1  3  4  5  6  1  2  4  5  6
       229         -0.02338323          1  3  4  5  6  1  3  4  5  6
       513         -0.02395087          1  3  4  5  7  1  2  4  5  7
       514         -0.02325927          1  3  4  5  7  1  3  4  5  7

          Number of sigma calls:        1
                       o<<<<< (aa):             0.00
                       o<<<<< (bb):             0.00
                       o<<<<< (ab):             0.01
                       o<<<<< (total)           0.01
                       o<<<<< (aa) ff           0.00
                       o<<<<< (aa) gop          0.00
                       o<<<<< (aa) dot          0.00
                       o<<<<< (ab) str          0.00
                       o<<<<< (ab) gath         0.00
                       o<<<<< (ab) dotab        0.00
                       o<<<<< (ab) scat         0.00
                       o<<<<< (ab) sync         0.00
                       o<<<<< Density           0.04
                       o<<<<< Density one       0.01
                       o<<<<< Density two       0.01
                       o<<<<< Density ab        0.02
                       o<<<<< Spin adapt        0.00
                       o<<<<< Symm adapt        0.00

                       o<<<<< (ab) max sync:      0.00



          Natural orbital occupation numbers

              1      
    1    2.0000
    2    1.9986
    3    1.9810
    4    1.9756
    5    1.9643
    6    0.0369
    7    0.0251
    8    0.0186


          Number of sigma calls:       15
                       o<<<<< (aa):             0.00
                       o<<<<< (bb):             0.02
                       o<<<<< (ab):             0.20
                       o<<<<< (total)           0.23
                       o<<<<< (aa) ff           0.00
                       o<<<<< (aa) gop          0.00
                       o<<<<< (aa) dot          0.00
                       o<<<<< (ab) str          0.00
                       o<<<<< (ab) gath         0.00
                       o<<<<< (ab) dotab        0.00
                       o<<<<< (ab) scat         0.00
                       o<<<<< (ab) sync         0.00
                       o<<<<< Density           0.03
                       o<<<<< Density one       0.01
                       o<<<<< Density two       0.00
                       o<<<<< Density ab        0.02
                       o<<<<< Spin adapt        0.94
                       o<<<<< Symm adapt        0.00

                       o<<<<< (ab) max sync:      0.00


       Final MCSCF results 
       ------------------- 

       Total MCSCF energy =    -76.127811449528
            Gradient norm =      1.0D-04

    CPU time for solution =     10.9s
   Wall time for solution =     17.9s



                        Analysis of MCSCF natural orbitals
                        ----------------------------------

 Vector    1  Occ=1.999989D+00  E=-2.055616D+01  Symmetry=a
              MO Center= -9.1D-02, -7.9D-02, -7.0D-11, r^2= 1.6D-02
   Bfn.  Coefficient  Atom+Function         Bfn.  Coefficient  Atom+Function  
  ----- ------------  ---------------      ----- ------------  ---------------
     1      0.972831  1 O  s          

 Vector    2  Occ=1.998615D+00  E=-1.311966D+00  Symmetry=a
              MO Center= -2.9D-01, -2.1D-01,  4.8D-08, r^2= 4.2D-01
   Bfn.  Coefficient  Atom+Function         Bfn.  Coefficient  Atom+Function  
  ----- ------------  ---------------      ----- ------------  ---------------
     2      0.522752  1 O  s                  4      0.393087  1 O  s          

 Vector    3  Occ=1.980957D+00  E=-6.984896D-01  Symmetry=a
              MO Center= -6.3D-02, -6.5D-02, -6.2D-07, r^2= 6.5D-01
   Bfn.  Coefficient  Atom+Function         Bfn.  Coefficient  Atom+Function  
  ----- ------------  ---------------      ----- ------------  ---------------
    10      0.431899  1 O  pz                13      0.393334  1 O  pz         
     7      0.360524  1 O  pz         

 Vector    4  Occ=1.975615D+00  E=-5.678511D-01  Symmetry=a
              MO Center=  3.4D-01, -1.9D-01,  2.7D-07, r^2= 6.0D-01
   Bfn.  Coefficient  Atom+Function         Bfn.  Coefficient  Atom+Function  
  ----- ------------  ---------------      ----- ------------  ---------------
     8      0.343422  1 O  px                 5      0.285877  1 O  px         
    46      0.263735  3 H  s                 11      0.205744  1 O  px         
    45      0.183702  3 H  s          

 Vector    5  Occ=1.964251D+00  E=-5.194730D-01  Symmetry=a
              MO Center= -4.4D-02,  4.2D-01,  8.5D-08, r^2= 7.1D-01
   Bfn.  Coefficient  Atom+Function         Bfn.  Coefficient  Atom+Function  
  ----- ------------  ---------------      ----- ------------  ---------------
     9      0.339666  1 O  py                 6      0.272978  1 O  py         
    32      0.266968  2 H  s                 12      0.200634  1 O  py         
    31      0.165683  2 H  s          

 Vector    6  Occ=3.689694D-02  E=-3.320847D-02  Symmetry=a
              MO Center= -4.0D-02,  6.2D-01,  1.3D-07, r^2= 7.1D-01
   Bfn.  Coefficient  Atom+Function         Bfn.  Coefficient  Atom+Function  
  ----- ------------  ---------------      ----- ------------  ---------------
    32      0.589536  2 H  s                  6     -0.469085  1 O  py         
     9     -0.464944  1 O  py                 2     -0.269325  1 O  s          
    31      0.266211  2 H  s          

 Vector    7  Occ=2.511365D-02  E=-2.580549D-02  Symmetry=a
              MO Center=  5.0D-01, -2.4D-01,  2.9D-07, r^2= 6.6D-01
   Bfn.  Coefficient  Atom+Function         Bfn.  Coefficient  Atom+Function  
  ----- ------------  ---------------      ----- ------------  ---------------
    46      0.655916  3 H  s                  5     -0.518068  1 O  px         
     8     -0.432995  1 O  px                45      0.295210  3 H  s          
     2     -0.280716  1 O  s                  4     -0.196732  1 O  s          

 Vector    8  Occ=1.856224D-02  E=-1.581528D-02  Symmetry=a
              MO Center= -4.7D-03, -2.2D-02, -5.4D-07, r^2= 1.2D+00
   Bfn.  Coefficient  Atom+Function         Bfn.  Coefficient  Atom+Function  
  ----- ------------  ---------------      ----- ------------  ---------------
    13      0.803535  1 O  pz                 7     -0.630166  1 O  pz         
    10     -0.318446  1 O  pz         

 Vector    9  Occ=0.000000D+00  E= 3.078030D-01  Symmetry=a
              MO Center=  5.2D-01,  3.3D-02, -2.3D-07, r^2= 4.7D+00
   Bfn.  Coefficient  Atom+Function         Bfn.  Coefficient  Atom+Function  
  ----- ------------  ---------------      ----- ------------  ---------------
     4      1.842056  1 O  s                 47     -1.417356  3 H  s          
    33     -0.889659  2 H  s                 11      0.707777  1 O  px         
    51      0.464365  3 H  px                38      0.281768  2 H  py         
    12      0.213774  1 O  py                32      0.200247  2 H  s          
    52     -0.190116  3 H  py                46     -0.151848  3 H  s          

 Vector   10  Occ=0.000000D+00  E= 3.355719D-01  Symmetry=a
              MO Center=  3.4D-01,  6.8D-01,  1.5D-08, r^2= 5.5D+00
   Bfn.  Coefficient  Atom+Function         Bfn.  Coefficient  Atom+Function  
  ----- ------------  ---------------      ----- ------------  ---------------
    33      1.971937  2 H  s                 47     -1.754632  3 H  s          
    32     -0.633554  2 H  s                 12     -0.553288  1 O  py         
    11      0.384075  1 O  px                46      0.317402  3 H  s          
    51      0.265458  3 H  px                38     -0.238709  2 H  py         

 Vector   11  Occ=0.000000D+00  E= 6.107630D-01  Symmetry=a
              MO Center= -7.4D-02,  3.0D-01,  2.9D-07, r^2= 2.0D+00
   Bfn.  Coefficient  Atom+Function         Bfn.  Coefficient  Atom+Function  
  ----- ------------  ---------------      ----- ------------  ---------------
    46     -2.515814  3 H  s                  4      2.357110  1 O  s          
    11      1.803916  1 O  px                32     -0.895965  2 H  s          
    51      0.695834  3 H  px                37      0.271026  2 H  px         
    38      0.243879  2 H  py                33      0.231251  2 H  s          
     9     -0.166049  1 O  py                21     -0.154543  1 O  d  0       

 Vector   12  Occ=0.000000D+00  E= 6.902809D-01  Symmetry=a
              MO Center= -7.3D-02, -3.9D-01,  4.3D-08, r^2= 2.4D+00
   Bfn.  Coefficient  Atom+Function         Bfn.  Coefficient  Atom+Function  
  ----- ------------  ---------------      ----- ------------  ---------------
    12      2.293832  1 O  py                32     -1.636030  2 H  s          
    46      1.290402  3 H  s                 11     -1.129710  1 O  px         
    47      0.752168  3 H  s                 33     -0.663864  2 H  s          
    38      0.623743  2 H  py                51     -0.382569  3 H  px         
    52      0.316959  3 H  py                23     -0.278625  1 O  d  2       

 Vector   13  Occ=0.000000D+00  E= 8.182313D-01  Symmetry=a
              MO Center= -2.3D-01, -8.3D-02,  5.8D-08, r^2= 2.3D+00
   Bfn.  Coefficient  Atom+Function         Bfn.  Coefficient  Atom+Function  
  ----- ------------  ---------------      ----- ------------  ---------------
     4      1.790775  1 O  s                 11      1.676660  1 O  px         
    46     -1.657671  3 H  s                 32     -1.194462  2 H  s          
    12      1.069393  1 O  py                52     -1.007356  3 H  py         
    37     -0.837701  2 H  px                38      0.492029  2 H  py         
     2      0.194059  1 O  s                 51      0.194184  3 H  px         

 Vector   14  Occ=0.000000D+00  E= 8.267949D-01  Symmetry=a
              MO Center=  2.9D-01,  4.2D-01,  6.0D-09, r^2= 1.8D+00
   Bfn.  Coefficient  Atom+Function         Bfn.  Coefficient  Atom+Function  
  ----- ------------  ---------------      ----- ------------  ---------------
    39      0.841984  2 H  pz                53     -0.741752  3 H  pz         

 Vector   15  Occ=0.000000D+00  E= 9.715579D-01  Symmetry=a
              MO Center=  1.6D-01,  3.3D-02,  2.7D-07, r^2= 2.1D+00
   Bfn.  Coefficient  Atom+Function         Bfn.  Coefficient  Atom+Function  
  ----- ------------  ---------------      ----- ------------  ---------------
    13      1.192216  1 O  pz                53     -1.058332  3 H  pz         
    39     -0.838554  2 H  pz         

 Vector   16  Occ=0.000000D+00  E= 1.118793D+00  Symmetry=a
              MO Center=  2.6D-01,  1.5D-01, -2.1D-09, r^2= 2.3D+00
   Bfn.  Coefficient  Atom+Function         Bfn.  Coefficient  Atom+Function  
  ----- ------------  ---------------      ----- ------------  ---------------
     4      2.038204  1 O  s                 46     -2.043876  3 H  s          
    11      1.413313  1 O  px                12     -1.302264  1 O  py         
    51      1.069244  3 H  px                37     -1.001377  2 H  px         
    52      0.680281  3 H  py                47     -0.387982  3 H  s          
    32      0.371708  2 H  s                  8      0.286264  1 O  px         

 Vector   17  Occ=0.000000D+00  E= 1.187556D+00  Symmetry=a
              MO Center= -5.6D-02,  1.5D-01,  1.1D-07, r^2= 1.9D+00
   Bfn.  Coefficient  Atom+Function         Bfn.  Coefficient  Atom+Function  
  ----- ------------  ---------------      ----- ------------  ---------------
     4      4.997913  1 O  s                 46     -2.541676  3 H  s          
    32     -1.399112  2 H  s                 51      1.172777  3 H  px         
    11      1.148479  1 O  px                 2     -1.065039  1 O  s          
    52     -0.993612  3 H  py                 8      0.812310  1 O  px         
    47     -0.738902  3 H  s                 12      0.611120  1 O  py         

 Vector   18  Occ=0.000000D+00  E= 1.256953D+00  Symmetry=a
              MO Center= -1.3D-02,  1.0D+00, -5.4D-08, r^2= 1.9D+00
   Bfn.  Coefficient  Atom+Function         Bfn.  Coefficient  Atom+Function  
  ----- ------------  ---------------      ----- ------------  ---------------
     4      4.089022  1 O  s                 38      2.274717  2 H  py         
    32     -1.575350  2 H  s                 46     -1.493964  3 H  s          
    12      1.051415  1 O  py                51      1.018249  3 H  px         
    33     -0.906018  2 H  s                 11      0.537756  1 O  px         
    52     -0.500928  3 H  py                 9      0.476989  1 O  py         


 Wrote Lagrangian and 1- and 2-particle density matrices to ./H2O.mcpdm


     Multipole analysis of the density
     ---------------------------------

     L   x y z        total        nuclear
     -   - - -        -----        -------
     0   0 0 0     -0.000000     10.000000

     1   1 0 0      0.562728     -0.000000
     1   0 1 0      0.433933     -0.000000
     1   0 0 1      0.000001      0.000000

     2   2 0 0     -4.248758      2.679864
     2   1 1 0     -0.834480     -1.377879
     2   1 0 1      0.000001      0.000000
     2   0 2 0     -3.290098      4.808245
     2   0 1 1      0.000000      0.000000
     2   0 0 2     -5.646386      0.000000


  Mulliken analysis of the total density
  --------------------------------------

    Atom       Charge   Shell Charges
 -----------   ------   -------------------------------------------------------
    1 O    8     8.49   1.95  1.01  0.24  0.62  1.26  2.06  1.34  0.00  0.02  0.00
    2 H    1     0.75   0.20  0.40  0.09  0.01  0.05  0.00
    3 H    1     0.76   0.25  0.38  0.04  0.02  0.06  0.01

    Mulliken analysis of the active space density
    ---------------------------------------------

    Atom       Charge   Shell Charges
 -----------   ------   -------------------------------------------------------
    1 O    8     8.49   1.95  1.01  0.24  0.62  1.26  2.06  1.34  0.00  0.02  0.00
    2 H    1     0.75   0.20  0.40  0.09  0.01  0.05  0.00
    3 H    1     0.76   0.25  0.38  0.04  0.02  0.06  0.01

 Parallel integral file used      16 records with       0 large values


 Task  times  cpu:       10.9s     wall:       18.0s


                                NWChem Input Module
                                -------------------


                                 NWChem SCF Module
                                 -----------------


                                        H2O



  ao basis        = "ao basis"
  functions       =    58
  atoms           =     3
  closed shells   =     5
  open shells     =     0
  charge          =   0.00
  wavefunction    = RHF 
  input vectors   = ./h2o.mos
  output vectors  = ./h2o-trash.mos
  use symmetry    = F
  symmetry adapt  = F


 Summary of "ao basis" -> "ao basis" (spherical)
 ------------------------------------------------------------------------------
       Tag                 Description            Shells   Functions and Types
 ---------------- ------------------------------  ------  ---------------------
 O                          cc-pVTZ                 10       30   4s3p2d1f
 H                          cc-pVTZ                  6       14   3s2p1d



 Forming initial guess at      18.1s


 Loading old vectors from job with title :

H2O


 Starting SCF solution at      18.1s



 ----------------------------------------------
         Quadratically convergent ROHF

 Convergence threshold     :          1.000E-04
 Maximum no. of iterations :           30
 Final Fock-matrix accuracy:          1.000E-07
 ----------------------------------------------


 Integral file          = ./H2O.aoints.0
 Record size in doubles =  65536        No. of integs per rec  =  43688
 Max. records in memory =     49        Max. records in file   = 252501
 No. of bits per label  =      8        No. of bits per value  =     64


 #quartets = 3.213D+04 #integrals = 6.608D+05 #direct =  0.0% #cached =100.0%



       Final RHF  results 
       ------------------ 

         Total SCF energy =    -76.025049122595
      One-electron energy =   -121.597167938034
      Two-electron energy =     37.203034742876
 Nuclear repulsion energy =      8.369084072563

        Time for solution =      0.3s


             Final eigenvalues
             -----------------

              1      
    1  -20.5562
    2   -1.3120
    3   -0.6985
    4   -0.5679
    5   -0.5195
    6   -0.0332
    7   -0.0258
    8   -0.0158
    9    0.3078
   10    0.3356
   11    0.6108
   12    0.6903
   13    0.8182
   14    0.8268
   15    0.9716

                       ROHF Final Molecular Orbital Analysis
                       -------------------------------------

 Vector    2  Occ=2.000000D+00  E=-1.311966D+00
              MO Center= -2.9D-01, -2.1D-01,  4.8D-08, r^2= 4.2D-01
   Bfn.  Coefficient  Atom+Function         Bfn.  Coefficient  Atom+Function  
  ----- ------------  ---------------      ----- ------------  ---------------
     2      0.522752  1 O  s                  4      0.393087  1 O  s          

 Vector    3  Occ=2.000000D+00  E=-6.984896D-01
              MO Center= -6.3D-02, -6.5D-02, -6.2D-07, r^2= 6.5D-01
   Bfn.  Coefficient  Atom+Function         Bfn.  Coefficient  Atom+Function  
  ----- ------------  ---------------      ----- ------------  ---------------
    10      0.431899  1 O  pz                13      0.393334  1 O  pz         
     7      0.360524  1 O  pz         

 Vector    4  Occ=2.000000D+00  E=-5.678511D-01
              MO Center=  3.4D-01, -1.9D-01,  2.7D-07, r^2= 6.0D-01
   Bfn.  Coefficient  Atom+Function         Bfn.  Coefficient  Atom+Function  
  ----- ------------  ---------------      ----- ------------  ---------------
     8      0.343422  1 O  px                 5      0.285877  1 O  px         
    46      0.263735  3 H  s                 11      0.205744  1 O  px         
    45      0.183702  3 H  s          

 Vector    5  Occ=2.000000D+00  E=-5.194730D-01
              MO Center= -4.4D-02,  4.2D-01,  8.5D-08, r^2= 7.1D-01
   Bfn.  Coefficient  Atom+Function         Bfn.  Coefficient  Atom+Function  
  ----- ------------  ---------------      ----- ------------  ---------------
     9      0.339666  1 O  py                 6      0.272978  1 O  py         
    32      0.266968  2 H  s                 12      0.200634  1 O  py         
    31      0.165683  2 H  s          

 Vector    6  Occ=0.000000D+00  E=-3.320847D-02
              MO Center= -4.0D-02,  6.2D-01,  1.3D-07, r^2= 7.1D-01
   Bfn.  Coefficient  Atom+Function         Bfn.  Coefficient  Atom+Function  
  ----- ------------  ---------------      ----- ------------  ---------------
    32      0.589536  2 H  s                  6     -0.469085  1 O  py         
     9     -0.464944  1 O  py                 2     -0.269325  1 O  s          
    31      0.266211  2 H  s          

 Vector    7  Occ=0.000000D+00  E=-2.580549D-02
              MO Center=  5.0D-01, -2.4D-01,  2.9D-07, r^2= 6.6D-01
   Bfn.  Coefficient  Atom+Function         Bfn.  Coefficient  Atom+Function  
  ----- ------------  ---------------      ----- ------------  ---------------
    46      0.655916  3 H  s                  5     -0.518068  1 O  px         
     8     -0.432995  1 O  px                45      0.295210  3 H  s          
     2     -0.280716  1 O  s                  4     -0.196732  1 O  s          

 Vector    8  Occ=0.000000D+00  E=-1.581528D-02
              MO Center= -4.7D-03, -2.2D-02, -5.4D-07, r^2= 1.2D+00
   Bfn.  Coefficient  Atom+Function         Bfn.  Coefficient  Atom+Function  
  ----- ------------  ---------------      ----- ------------  ---------------
    13      0.803535  1 O  pz                 7     -0.630166  1 O  pz         
    10     -0.318446  1 O  pz         

 Vector    9  Occ=0.000000D+00  E= 3.078030D-01
              MO Center=  5.2D-01,  3.3D-02, -2.3D-07, r^2= 4.7D+00
   Bfn.  Coefficient  Atom+Function         Bfn.  Coefficient  Atom+Function  
  ----- ------------  ---------------      ----- ------------  ---------------
     4      1.842056  1 O  s                 47     -1.417356  3 H  s          
    33     -0.889659  2 H  s                 11      0.707777  1 O  px         
    51      0.464365  3 H  px                38      0.281768  2 H  py         
    12      0.213774  1 O  py                32      0.200247  2 H  s          
    52     -0.190116  3 H  py                46     -0.151848  3 H  s          

 Vector   10  Occ=0.000000D+00  E= 3.355719D-01
              MO Center=  3.4D-01,  6.8D-01,  1.5D-08, r^2= 5.5D+00
   Bfn.  Coefficient  Atom+Function         Bfn.  Coefficient  Atom+Function  
  ----- ------------  ---------------      ----- ------------  ---------------
    33      1.971937  2 H  s                 47     -1.754632  3 H  s          
    32     -0.633554  2 H  s                 12     -0.553288  1 O  py         
    11      0.384075  1 O  px                46      0.317402  3 H  s          
    51      0.265458  3 H  px                38     -0.238709  2 H  py         

 Vector   11  Occ=0.000000D+00  E= 6.107630D-01
              MO Center= -7.4D-02,  3.0D-01,  2.9D-07, r^2= 2.0D+00
   Bfn.  Coefficient  Atom+Function         Bfn.  Coefficient  Atom+Function  
  ----- ------------  ---------------      ----- ------------  ---------------
    46     -2.515814  3 H  s                  4      2.357110  1 O  s          
    11      1.803916  1 O  px                32     -0.895965  2 H  s          
    51      0.695834  3 H  px                37      0.271026  2 H  px         
    38      0.243879  2 H  py                33      0.231251  2 H  s          
     9     -0.166049  1 O  py                21     -0.154543  1 O  d  0       

 Vector   12  Occ=0.000000D+00  E= 6.902809D-01
              MO Center= -7.3D-02, -3.9D-01,  4.3D-08, r^2= 2.4D+00
   Bfn.  Coefficient  Atom+Function         Bfn.  Coefficient  Atom+Function  
  ----- ------------  ---------------      ----- ------------  ---------------
    12      2.293832  1 O  py                32     -1.636030  2 H  s          
    46      1.290402  3 H  s                 11     -1.129710  1 O  px         
    47      0.752168  3 H  s                 33     -0.663864  2 H  s          
    38      0.623743  2 H  py                51     -0.382569  3 H  px         
    52      0.316959  3 H  py                23     -0.278625  1 O  d  2       

 Vector   13  Occ=0.000000D+00  E= 8.182313D-01
              MO Center= -2.3D-01, -8.3D-02,  5.8D-08, r^2= 2.3D+00
   Bfn.  Coefficient  Atom+Function         Bfn.  Coefficient  Atom+Function  
  ----- ------------  ---------------      ----- ------------  ---------------
     4      1.790775  1 O  s                 11      1.676660  1 O  px         
    46     -1.657671  3 H  s                 32     -1.194462  2 H  s          
    12      1.069393  1 O  py                52     -1.007356  3 H  py         
    37     -0.837701  2 H  px                38      0.492029  2 H  py         
     2      0.194059  1 O  s                 51      0.194184  3 H  px         

 Vector   14  Occ=0.000000D+00  E= 8.267949D-01
              MO Center=  2.9D-01,  4.2D-01,  6.0D-09, r^2= 1.8D+00
   Bfn.  Coefficient  Atom+Function         Bfn.  Coefficient  Atom+Function  
  ----- ------------  ---------------      ----- ------------  ---------------
    39      0.841984  2 H  pz                53     -0.741752  3 H  pz         

 Vector   15  Occ=0.000000D+00  E= 9.715579D-01
              MO Center=  1.6D-01,  3.3D-02,  2.7D-07, r^2= 2.1D+00
   Bfn.  Coefficient  Atom+Function         Bfn.  Coefficient  Atom+Function  
  ----- ------------  ---------------      ----- ------------  ---------------
    13      1.192216  1 O  pz                53     -1.058332  3 H  pz         
    39     -0.838554  2 H  pz         


 center of mass
 --------------
 x =  -0.07599894 y =  -0.06602063 z =   0.00000000

 moments of inertia (a.u.)
 ------------------
           4.945609652738           1.273845519460           0.000000000000
           1.273845519460           2.833002082974           0.000000000000
           0.000000000000           0.000000000000           7.778611735712

  Mulliken analysis of the total density
  --------------------------------------

    Atom       Charge   Shell Charges
 -----------   ------   -------------------------------------------------------
    1 O    8     8.50   1.95  1.01  0.23  0.62  1.25  2.08  1.34  0.00  0.02  0.00
    2 H    1     0.74   0.20  0.39  0.09  0.01  0.05  0.00
    3 H    1     0.75   0.25  0.38  0.04  0.02  0.06  0.01

       Multipole analysis of the density wrt the origin
       ------------------------------------------------

     L   x y z        total         open         nuclear
     -   - - -        -----         ----         -------
     0   0 0 0     -0.000000      0.000000     10.000000

     1   1 0 0      0.574109      0.000000     -0.000000
     1   0 1 0      0.447749      0.000000     -0.000000
     1   0 0 1      0.000001      0.000000      0.000000

     2   2 0 0     -4.225692      0.000000      2.679864
     2   1 1 0     -0.843823      0.000000     -1.377879
     2   1 0 1      0.000001      0.000000      0.000000
     2   0 2 0     -3.245878      0.000000      4.808245
     2   0 1 1      0.000000      0.000000      0.000000
     2   0 0 2     -5.628508      0.000000      0.000000


 Parallel integral file used      16 records with       0 large values

                   NWChem Extensible Many-Electron Theory Module
                   ---------------------------------------------

              ======================================================
                   This portion of the program was automatically
                  generated by a Tensor Contraction Engine (TCE).
                  The development of this portion of the program
                 and TCE was supported by US Department of Energy,
                Office of Science, Office of Basic Energy Science.
                      TCE is a product of Battelle and PNNL.
              Please cite: S.Hirata, J.Phys.Chem.A 107, 9887 (2003).
              ======================================================

                                        H2O


            General Information
            -------------------
      Number of processors :     1
         Wavefunction type : Restricted Hartree-Fock
          No. of electrons :    10
           Alpha electrons :     5
            Beta electrons :     5
           No. of orbitals :   116
            Alpha orbitals :    58
             Beta orbitals :    58
        Alpha frozen cores :     0
         Beta frozen cores :     0
     Alpha frozen virtuals :     0
      Beta frozen virtuals :     0
         Spin multiplicity : singlet 
    Number of AO functions :    58
       Number of AO shells :    22
        Use of symmetry is : off
      Symmetry adaption is : off
         Schwarz screening : 0.10D-09

          Correlation Information
          -----------------------
          Calculation type : Coupled-cluster singles & doubles                           
   Perturbative correction : none                                                        
            Max iterations :      100
        Residual threshold : 0.10D-06
     T(0) DIIS level shift : 0.00D+00
     L(0) DIIS level shift : 0.00D+00
     T(1) DIIS level shift : 0.00D+00
     L(1) DIIS level shift : 0.00D+00
     T(R) DIIS level shift : 0.00D+00
     T(I) DIIS level shift : 0.00D+00
   CC-T/L Amplitude update :  5-th order DIIS
                I/O scheme : Global Array Library
        L-threshold :  0.10D-06
        EOM-threshold :  0.10D-06
 no EOMCCSD initial starts read in
 TCE RESTART OPTIONS
 READ_INT:   F
 WRITE_INT:  F
 READ_TA:    F
 WRITE_TA:   F
 READ_XA:    F
 WRITE_XA:   F
 READ_IN3:   F
 WRITE_IN3:  F
 SLICE:      F
 D4D5:       F
 quantumc:   F
 qrotation:  F
 pwtce:      F
 qducc:      T
 nacto:                         0
 nrotv:                         0
 nrot:                          0

            Memory Information
            ------------------
          Available GA space size is    1610609372 doubles
          Available MA space size is    1610609780 doubles

 Maximum block size        32 doubles

 tile_dim =     27

 Block   Spin    Irrep     Size     Offset   Alpha
 -------------------------------------------------
   1    alpha     a      5 doubles       0       1
   2    beta      a      5 doubles       5       1
   3    alpha     a     26 doubles      10       3
   4    alpha     a     27 doubles      36       4
   5    beta      a     26 doubles      63       3
   6    beta      a     27 doubles      89       4

 Global array virtual files algorithm will be used

 Parallel file system coherency ......... OK

 Integral file          = ./H2O.aoints.0
 Record size in doubles =  65536        No. of integs per rec  =  43688
 Max. records in memory =     49        Max. records in file   = 252501
 No. of bits per label  =      8        No. of bits per value  =     64


 #quartets = 3.213D+04 #integrals = 6.608D+05 #direct =  0.0% #cached =100.0%


 Fock matrix recomputed
 1-e file size   =             3364
 1-e file name   = ./H2O.f1
 Cpu & wall time / sec            0.3            0.3
 4-electron integrals stored in orbital form

 v2    file size   =          3631290
 4-index algorithm nr.  13 is used
 imaxsize =       30
 imaxsize ichop =        0
 Cpu & wall time / sec            4.0            4.0
 T1-number-of-tasks                    2

 t1 file size   =              265
 t1 file name   = ./H2O.t1
 t1 file handle =       -998
 T2-number-of-boxes                    7

 t2 file size   =           122900
 t2 file name   = ./H2O.t2
 t2 file handle =       -996
CCSD iterations
 ---------------------------------------------------------
 Iter          Residuum       Correlation     Cpu    Wall 
 ---------------------------------------------------------
NEW TASK SCHEDULING
CCSD_T1_NTS --- OK
CCSD_T2_NTS --- OK
    1   1.0924662901708  -0.4524720745717     0.6     0.6
    2   1.9430153207305   0.0364270464137     0.6     0.6
    3   3.6319934910947  -0.8797065058088     0.6     0.6
    4   7.2973285594375   0.7938352423670     0.6     0.6
    5   9.7420484672389  -2.1904220580425     0.6     0.6
 MICROCYCLE DIIS UPDATE:                    5                    5
    6   0.0671134540808  -0.2893933149861     0.6     0.6
    7   0.0858851252252  -0.2768161882796     0.6     0.6
    8   0.1534358938962  -0.3002581013822     0.6     0.6
    9   0.2836501324743  -0.2494585073721     0.6     0.6
   10   0.5617727025943  -0.2783581977491     0.6     0.6
 MICROCYCLE DIIS UPDATE:                   10                    5
   11   0.0059618051742  -0.2876047364529     0.6     0.6
   12   0.0054265494313  -0.2882721290368     0.6     0.6
   13   0.0104439105692  -0.2871721654309     0.6     0.6
   14   0.0218971181364  -0.2892816072556     0.6     0.6
   15   0.0466869043748  -0.2854799813642     0.6     0.6
 MICROCYCLE DIIS UPDATE:                   15                    5
   16   0.0003298471862  -0.2879613967097     0.6     0.6
   17   0.0002756365161  -0.2879235442113     0.6     0.6
   18   0.0004712069283  -0.2879948407225     0.6     0.6
   19   0.0009473034762  -0.2878696286982     0.6     0.6
   20   0.0019856863563  -0.2881007324536     0.6     0.6
 MICROCYCLE DIIS UPDATE:                   20                    5
   21   0.0000297325321  -0.2879502786356     0.6     0.6
   22   0.0000302918110  -0.2879530613674     0.6     0.6
   23   0.0000559860835  -0.2879471010471     0.6     0.6
   24   0.0001161011231  -0.2879586565689     0.6     0.6
   25   0.0002471548787  -0.2879371602020     0.6     0.6
 MICROCYCLE DIIS UPDATE:                   25                    5
   26   0.0000046156844  -0.2879514165338     0.6     0.6
   27   0.0000043513645  -0.2879507230781     0.6     0.6
   28   0.0000076824224  -0.2879519491588     0.6     0.6
   29   0.0000155181433  -0.2879497552009     0.6     0.6
   30   0.0000325466555  -0.2879537782846     0.6     0.6
 MICROCYCLE DIIS UPDATE:                   30                    5
   31   0.0000006852311  -0.2879511485900     0.6     0.6
   32   0.0000006889129  -0.2879512066039     0.5     0.6
   33   0.0000012971775  -0.2879510784255     0.6     0.6
   34   0.0000027065129  -0.2879513228747     0.6     0.6
   35   0.0000058069236  -0.2879508732000     0.6     0.6
 MICROCYCLE DIIS UPDATE:                   35                    5
   36   0.0000001261361  -0.2879511716777     0.6     0.6
   37   0.0000001184526  -0.2879511520285     0.6     0.6
   38   0.0000002063760  -0.2879511866279     0.6     0.6
   39   0.0000004127092  -0.2879511243879     0.6     0.6
   40   0.0000008593804  -0.2879512388937     0.5     0.6
 MICROCYCLE DIIS UPDATE:                   40                    5
   41   0.0000000207921  -0.2879511640138     0.6     0.6
 -----------------------------------------------------------------
 Iterations converged
 CCSD correlation energy / hartree =        -0.287951164013839
 CCSD total energy / hartree       =       -76.313000286608570

 Singles contributions

 Doubles contributions
     6a   (alpha)     7a   (alpha) ---     4a   (alpha)     5a   (alpha)        0.0212169481
     6a   (alpha)     7a   (alpha) ---     5a   (alpha)     4a   (alpha)       -0.0212169481
     6a   (alpha)     8a   (alpha) ---     3a   (alpha)     5a   (alpha)        0.0275449667
     6a   (alpha)     8a   (alpha) ---     5a   (alpha)     3a   (alpha)       -0.0275449667
     7a   (alpha)     6a   (alpha) ---     4a   (alpha)     5a   (alpha)       -0.0212169481
     7a   (alpha)     6a   (alpha) ---     5a   (alpha)     4a   (alpha)        0.0212169481
     7a   (alpha)     8a   (alpha) ---     3a   (alpha)     4a   (alpha)        0.0262108601
     7a   (alpha)     8a   (alpha) ---     4a   (alpha)     3a   (alpha)       -0.0262108601
     8a   (alpha)     6a   (alpha) ---     3a   (alpha)     5a   (alpha)       -0.0275449667
     8a   (alpha)     6a   (alpha) ---     5a   (alpha)     3a   (alpha)        0.0275449667
     8a   (alpha)     7a   (alpha) ---     3a   (alpha)     4a   (alpha)       -0.0262108601
     8a   (alpha)     7a   (alpha) ---     4a   (alpha)     3a   (alpha)        0.0262108601
     6a   (alpha)     6a   (beta ) ---     5a   (alpha)     5a   (beta )       -0.1075822418
     6a   (alpha)     7a   (beta ) ---     5a   (alpha)     4a   (beta )       -0.0323995010
     6a   (alpha)     8a   (beta ) ---     5a   (alpha)     3a   (beta )       -0.0382117788
     7a   (alpha)     6a   (beta ) ---     4a   (alpha)     5a   (beta )       -0.0323995010
     7a   (alpha)     7a   (beta ) ---     4a   (alpha)     4a   (beta )       -0.0796175506
     7a   (alpha)     8a   (beta ) ---     4a   (alpha)     3a   (beta )       -0.0360810967
     8a   (alpha)     6a   (beta ) ---     3a   (alpha)     5a   (beta )       -0.0382117788
     8a   (alpha)     7a   (beta ) ---     3a   (alpha)     4a   (beta )       -0.0360810967
     8a   (alpha)     8a   (beta ) ---     3a   (alpha)     3a   (beta )       -0.0525108108
     8a   (alpha)    17a   (beta ) ---     3a   (alpha)     2a   (beta )       -0.0205304842
    17a   (alpha)     8a   (beta ) ---     2a   (alpha)     3a   (beta )       -0.0205304842
 Ground state specification:
 exp(T)|Ref>~(1+T)|Ref>
 ------- a(p)+/a(q) strings ----------

 singles norm

 doubles norm

 Reference string
  0.99426278449903260      :(1a)+ (2a)+ (3a)+ (4a)+ (5a)+ (1b)+ (2b)+ (3b)+ (4b)+ (5b)+ |0>

 Singles strings

 Doubles strings
 -0.10696501932982654      :(6a)+ (6b)+ (5b)  (5a)  (1a)+ (2a)+ (3a)+ (4a)+ (5a)+ (1b)+ (2b)+ (3b)+ (4b)+ (5b)+ |0>
 -------------------------------------
 enrep_tce =    8.3690840725631404     
  EHF(total)         =       -76.02504912
  Shift (HFtot-HFA)  =         0.00000000
 ALL OCCUPIED ORBITALS ARE ACTIVE IN DUCC --> NO SHIFT
 Number of active orbitals                    8
 Number of active alpha electrons                    5
 Number of active beta electrons                    5
  nos                    10
  nvs                   106
 noas                     5
 nobs                     5
 nvas                    53
 nvbs                    53
 nactv                     3
 DUCC MODEL =                     3
 NONHF =  T
 F-T1 correlation    =   -5.7455708408741334E-005
 V-T1-T1 correlation =    1.4445888466272532E-005
 V-T2 correlation    =  -0.28790815419410809     
 Total correlation   =  -0.28795116401405058     
 F-T1(Ext) correlation         =   -5.0944196696939510E-005
 V-T1(Ext)-T1(Ext) correlation =    2.1517715758867882E-006
 V-T2(Ext) correlation         =  -0.19342500182826325     
 Total Ext correlation         =  -0.19347379425338429     
1-BODY TIME =    2.512 SECONDS.
  HHHH TIME =   13.034 SECONDS.
  PPPP TIME =    0.000 SECONDS.
  HHHP TIME =    3.236 SECONDS.
  PPPH TIME =    0.484 SECONDS.
  HPHP TIME =    0.256 SECONDS.
  HHPP TIME =    1.651 SECONDS.
 ONE-BODY UNITARY CHECK
 TWO-BODY UNITARY CHECK
 TWO-BODY ANTISYMMETRY CHECK
 TRANSFORMED ~FOCK~ MATRIX
    1    1       -20.4521524440
    1    2        -1.5715002182
    1    3        -0.0000000333
    1    4         0.0205836003
    1    5         0.0106968733
    1    6         0.0023548330
    1    7         0.0023746590
    1    8        -0.0000000244
    2    1        -1.5715002182
    2    2        -1.2778403972
    2    3         0.0000005274
    2    4        -0.2512291372
    2    5        -0.2035478677
    2    6         0.0019731928
    2    7         0.0020675724
    2    8        -0.0000000205
    3    1        -0.0000000333
    3    2         0.0000005274
    3    3        -0.5472050835
    3    4         0.0000004324
    3    5         0.0000001778
    3    6         0.0000000746
    3    7         0.0000001151
    3    8         0.0117066874
    4    1         0.0205836003
    4    2        -0.2512291372
    4    3         0.0000004324
    4    4        -0.8000053008
    4    5        -0.0367853205
    4    6         0.0024043621
    4    7         0.0037109848
    4    8         0.0000000121
    5    1         0.0106968733
    5    2        -0.2035478677
    5    3         0.0000001778
    5    4        -0.0367853205
    5    5        -0.7174798562
    5    6         0.0053228548
    5    7         0.0021108045
    5    8         0.0000000038
    6    1         0.0023548330
    6    2         0.0019731928
    6    3         0.0000000746
    6    4         0.0024043621
    6    5         0.0053228548
    6    6         0.5852905801
    6    7        -0.0040811041
    6    8        -0.0000000041
    7    1         0.0023746590
    7    2         0.0020675724
    7    3         0.0000001151
    7    4         0.0037109848
    7    5         0.0021108045
    7    6        -0.0040811041
    7    7         0.8069403436
    7    8         0.0000000526
    8    1        -0.0000000244
    8    2        -0.0000000205
    8    3         0.0117066874
    8    4         0.0000000121
    8    5         0.0000000038
    8    6        -0.0000000041
    8    7         0.0000000526
    8    8         1.1216407081
 begin_one_electron_integrals
    1    1       -32.8580317619
    1    2        -1.4610733646
    1    3        -0.0000003722
    1    4         0.1485462483
    1    5         0.1167661250
    1    6        -0.2065723201
    1    7        -0.2023818080
    1    8         0.0000003429
    2    1        -1.4610733646
    2    2        -7.7939484054
    2    3         0.0000005375
    2    4        -0.2522980556
    2    5        -0.1909313425
    2    6         0.1282806066
    2    7         0.0873866623
    2    8         0.0000000027
    3    1        -0.0000003722
    3    2         0.0000005375
    3    3        -6.9575983177
    3    4         0.0000000762
    3    5         0.0000001280
    3    6        -0.0000004071
    3    7        -0.0000007943
    3    8         2.0975102467
    4    1         0.1485462483
    4    2        -0.2522980556
    4    3         0.0000000762
    4    4        -6.7627894482
    4    5        -0.1206466417
    4    6         0.1138094336
    4    7         1.9669506552
    4    8         0.0000010164
    5    1         0.1167661250
    5    2        -0.1909313425
    5    3         0.0000001280
    5    4        -0.1206466417
    5    5        -6.4103285125
    5    6         2.0044011320
    5    7        -0.0945513507
    5    8         0.0000003605
    6    1        -0.2065723201
    6    2         0.1282806066
    6    3        -0.0000004071
    6    4         0.1138094336
    6    5         2.0044011320
    6    6        -6.0316871954
    6    7         0.0552423779
    6    8         0.0000003405
    7    1        -0.2023818080
    7    2         0.0873866623
    7    3        -0.0000007943
    7    4         1.9669506552
    7    5        -0.0945513507
    7    6         0.0552423779
    7    7        -6.1228429428
    7    8         0.0000007519
    8    1         0.0000003429
    8    2         0.0000000027
    8    3         2.0975102467
    8    4         0.0000010164
    8    5         0.0000003605
    8    6         0.0000003405
    8    7         0.0000007519
    8    8        -5.4548548171
 end_one_electron_integrals
 begin_two_electron_integrals
    1    1    1    1        4.8259555468
    1    1    1    2       -0.1418369797
    1    1    1    3        0.0000002554
    1    1    1    4       -0.0941957679
    1    1    1    5       -0.0772038432
    1    1    1    6        0.1628533721
    1    1    1    7        0.1659208799
    1    1    1    8       -0.0000003184
    1    2    1    1       -0.1418369797
    1    2    1    2        0.0183321474
    1    2    1    3       -0.0000000030
    1    2    1    4        0.0008906119
    1    2    1    5        0.0006166495
    1    2    1    6       -0.0049428140
    1    2    1    7       -0.0044119401
    1    2    1    8        0.0000000075
    1    3    1    1        0.0000002554
    1    3    1    2       -0.0000000030
    1    3    1    3        0.0241858476
    1    3    1    4       -0.0000000002
    1    3    1    5       -0.0000000046
    1    3    1    6        0.0000000143
    1    3    1    7        0.0000000185
    1    3    1    8       -0.0373872854
    1    4    1    1       -0.0941957679
    1    4    1    2        0.0008906119
    1    4    1    3       -0.0000000002
    1    4    1    4        0.0193654068
    1    4    1    5        0.0027129170
    1    4    1    6       -0.0055947610
    1    4    1    7       -0.0329166576
    1    4    1    8       -0.0000000115
    1    5    1    1       -0.0772038432
    1    5    1    2        0.0006166495
    1    5    1    3       -0.0000000046
    1    5    1    4        0.0027129170
    1    5    1    5        0.0171439206
    1    5    1    6       -0.0286263809
    1    5    1    7       -0.0021549507
    1    5    1    8        0.0000000001
    1    6    1    1        0.1628533721
    1    6    1    2       -0.0049428140
    1    6    1    3        0.0000000143
    1    6    1    4       -0.0055947610
    1    6    1    5       -0.0286263809
    1    6    1    6        0.0470570576
    1    6    1    7        0.0056022455
    1    6    1    8       -0.0000000138
    1    7    1    1        0.1659208799
    1    7    1    2       -0.0044119401
    1    7    1    3        0.0000000185
    1    7    1    4       -0.0329166576
    1    7    1    5       -0.0021549507
    1    7    1    6        0.0056022455
    1    7    1    7        0.0543543401
    1    7    1    8       -0.0000000161
    1    8    1    1       -0.0000003184
    1    8    1    2        0.0000000075
    1    8    1    3       -0.0373872854
    1    8    1    4       -0.0000000115
    1    8    1    5        0.0000000001
    1    8    1    6       -0.0000000138
    1    8    1    7       -0.0000000161
    1    8    1    8        0.0530874634
    1    1    2    1       -0.1418369797
    1    1    2    2        1.0616753275
    1    1    2    3        0.0000000125
    1    1    2    4       -0.0077704209
    1    1    2    5       -0.0078285233
    1    1    2    6       -0.0267328603
    1    1    2    7       -0.0171499405
    1    1    2    8        0.0000000013
    1    2    2    1        0.0212166199
    1    2    2    2        0.0172921147
    1    2    2    3        0.0000000075
    1    2    2    4       -0.0029315448
    1    2    2    5       -0.0024706956
    1    2    2    6        0.0027791219
    1    2    2    7        0.0033046549
    1    2    2    8       -0.0000000075
    1    3    2    1       -0.0000000025
    1    3    2    2        0.0000000343
    1    3    2    3        0.0218478186
    1    3    2    4        0.0000000087
    1    3    2    5        0.0000000036
    1    3    2    6       -0.0000000044
    1    3    2    7       -0.0000000006
    1    3    2    8       -0.0197053411
    1    4    2    1        0.0007048066
    1    4    2    2       -0.0129120896
    1    4    2    3        0.0000000102
    1    4    2    4        0.0142873848
    1    4    2    5       -0.0003860840
    1    4    2    6        0.0016649741
    1    4    2    7       -0.0150464207
    1    4    2    8       -0.0000000140
    1    5    2    1        0.0005084452
    1    5    2    2       -0.0107099805
    1    5    2    3        0.0000000043
    1    5    2    4       -0.0003326997
    1    5    2    5        0.0132202822
    1    5    2    6       -0.0143344245
    1    5    2    7        0.0030249151
    1    5    2    8       -0.0000000070
    1    6    2    1       -0.0049438040
    1    6    2    2        0.0192095359
    1    6    2    3       -0.0000000052
    1    6    2    4        0.0013230313
    1    6    2    5       -0.0229756045
    1    6    2    6        0.0220647935
    1    6    2    7       -0.0050800698
    1    6    2    8        0.0000000058
    1    7    2    1       -0.0043773805
    1    7    2    2        0.0206268280
    1    7    2    3       -0.0000000008
    1    7    2    4       -0.0259834091
    1    7    2    5        0.0040312888
    1    7    2    6       -0.0055405970
    1    7    2    7        0.0240882875
    1    7    2    8        0.0000000041
    1    8    2    1        0.0000000075
    1    8    2    2       -0.0000000408
    1    8    2    3       -0.0364339088
    1    8    2    4       -0.0000000242
    1    8    2    5       -0.0000000116
    1    8    2    6        0.0000000080
    1    8    2    7        0.0000000043
    1    8    2    8        0.0264898369
    1    1    3    1        0.0000002554
    1    1    3    2        0.0000000125
    1    1    3    3        1.0259749719
    1    1    3    4        0.0000001086
    1    1    3    5        0.0000000142
    1    1    3    6        0.0000001116
    1    1    3    7        0.0000002123
    1    1    3    8       -0.5072357126
    1    2    3    1       -0.0000000025
    1    2    3    2        0.0000000076
    1    2    3    3        0.0132370160
    1    2    3    4        0.0000000062
    1    2    3    5        0.0000000033
    1    2    3    6       -0.0000000039
    1    2    3    7       -0.0000000022
    1    2    3    8       -0.0093123023
    1    3    3    1        0.0264776238
    1    3    3    2        0.0213111508
    1    3    3    3       -0.0000000176
    1    3    3    4        0.0048548301
    1    3    3    5        0.0041240382
    1    3    3    6       -0.0067631686
    1    3    3    7       -0.0067378052
    1    3    3    8        0.0000000114
    1    4    3    1        0.0000000015
    1    4    3    2        0.0000000098
    1    4    3    3       -0.0029321981
    1    4    3    4       -0.0000000106
    1    4    3    5        0.0000000015
    1    4    3    6       -0.0000000038
    1    4    3    7        0.0000000045
    1    4    3    8        0.0028673188
    1    5    3    1       -0.0000000039
    1    5    3    2        0.0000000041
    1    5    3    3       -0.0023781340
    1    5    3    5       -0.0000000085
    1    5    3    6        0.0000000068
    1    5    3    7       -0.0000000031
    1    5    3    8        0.0021448413
    1    6    3    1        0.0000000151
    1    6    3    2       -0.0000000034
    1    6    3    3        0.0040502921
    1    6    3    4       -0.0000000008
    1    6    3    5        0.0000000151
    1    6    3    6       -0.0000000105
    1    6    3    7        0.0000000037
    1    6    3    8       -0.0047540456
    1    7    3    1        0.0000000202
    1    7    3    2        0.0000000011
    1    7    3    3        0.0033985145
    1    7    3    4        0.0000000250
    1    7    3    5       -0.0000000024
    1    7    3    6        0.0000000023
    1    7    3    7       -0.0000000093
    1    7    3    8       -0.0046783560
    1    8    3    1       -0.0375827955
    1    8    3    2       -0.0358940041
    1    8    3    3        0.0000000365
    1    8    3    4       -0.0075494381
    1    8    3    5       -0.0065119103
    1    8    3    6        0.0088879040
    1    8    3    7        0.0087925280
    1    8    3    8       -0.0000000169
    1    1    4    1       -0.0941957679
    1    1    4    2       -0.0077704209
    1    1    4    3        0.0000001086
    1    1    4    4        0.9000792084
    1    1    4    5        0.0209598272
    1    1    4    6       -0.0293394267
    1    1    4    7       -0.4639500091
    1    1    4    8       -0.0000002315
    1    2    4    1        0.0007048066
    1    2    4    2       -0.0029412570
    1    2    4    3        0.0000000062
    1    2    4    4        0.0091313223
    1    2    4    5       -0.0006772015
    1    2    4    6        0.0016201951
    1    2    4    7       -0.0062577064
    1    2    4    8       -0.0000000086
    1    3    4    1        0.0000000015
    1    3    4    2        0.0000000084
    1    3    4    3        0.0048729428
    1    3    4    4        0.0000000055
    1    3    4    5        0.0000000022
    1    3    4    6       -0.0000000041
    1    3    4    7       -0.0000000102
    1    3    4    8       -0.0032443510
    1    4    4    1        0.0206819871
    1    4    4    2        0.0138899887
    1    4    4    3       -0.0000000105
    1    4    4    4        0.0066068544
    1    4    4    5        0.0026612315
    1    4    4    6       -0.0041492366
    1    4    4    7       -0.0052275553
    1    4    4    8        0.0000000081
    1    5    4    1        0.0027856412
    1    5    4    2       -0.0002454247
    1    5    4    4       -0.0017451362
    1    5    4    5        0.0030862914
    1    5    4    6       -0.0029297475
    1    5    4    7        0.0021058625
    1    5    4    8        0.0000000002
    1    6    4    1       -0.0055126228
    1    6    4    2        0.0012863379
    1    6    4    3       -0.0000000001
    1    6    4    4        0.0040335646
    1    6    4    5       -0.0045534040
    1    6    4    6        0.0042600835
    1    6    4    7       -0.0041635471
    1    6    4    8       -0.0000000019
    1    7    4    1       -0.0325831220
    1    7    4    2       -0.0255379981
    1    7    4    3        0.0000000238
    1    7    4    4       -0.0152635897
    1    7    4    5       -0.0033809833
    1    7    4    6        0.0052906698
    1    7    4    7        0.0050208087
    1    7    4    8       -0.0000000132
    1    8    4    1       -0.0000000119
    1    8    4    2       -0.0000000237
    1    8    4    3       -0.0076278497
    1    8    4    4       -0.0000000057
    1    8    4    5       -0.0000000069
    1    8    4    6        0.0000000071
    1    8    4    7        0.0000000129
    1    8    4    8        0.0036590906
    1    1    5    1       -0.0772038432
    1    1    5    2       -0.0078285233
    1    1    5    3        0.0000000142
    1    1    5    4        0.0209598272
    1    1    5    5        0.8455483088
    1    1    5    6       -0.4527397334
    1    1    5    7        0.0188841270
    1    1    5    8       -0.0000000734
    1    2    5    1        0.0005084452
    1    2    5    2       -0.0024928448
    1    2    5    3        0.0000000034
    1    2    5    4       -0.0006820082
    1    2    5    5        0.0086828184
    1    2    5    6       -0.0062980357
    1    2    5    7        0.0022612361
    1    2    5    8       -0.0000000050
    1    3    5    1       -0.0000000039
    1    3    5    2        0.0000000033
    1    3    5    3        0.0041419639
    1    3    5    4        0.0000000022
    1    3    5    5        0.0000000050
    1    3    5    6       -0.0000000081
    1    3    5    7       -0.0000000007
    1    3    5    8       -0.0028125567
    1    4    5    1        0.0027856412
    1    4    5    2       -0.0002998277
    1    4    5    3        0.0000000015
    1    4    5    4        0.0026793617
    1    4    5    5       -0.0018491031
    1    4    5    6        0.0020425217
    1    4    5    7       -0.0027264529
    1    4    5    8       -0.0000000012
    1    5    5    1        0.0182556314
    1    5    5    2        0.0127831624
    1    5    5    3       -0.0000000084
    1    5    5    4        0.0030636676
    1    5    5    5        0.0051156669
    1    5    5    6       -0.0050520738
    1    5    5    7       -0.0037997867
    1    5    5    8        0.0000000069
    1    6    5    1       -0.0281165541
    1    6    5    2       -0.0224680222
    1    6    5    3        0.0000000150
    1    6    5    4       -0.0045863966
    1    6    5    5       -0.0108491806
    1    6    5    6        0.0040215455
    1    6    5    7        0.0054042258
    1    6    5    8       -0.0000000102
    1    7    5    1       -0.0021275906
    1    7    5    2        0.0039752070
    1    7    5    3       -0.0000000017
    1    7    5    4       -0.0033461378
    1    7    5    5        0.0044257946
    1    7    5    6       -0.0039094841
    1    7    5    7        0.0036432604
    1    7    5    8        0.0000000001
    1    8    5    2       -0.0000000113
    1    8    5    3       -0.0065640990
    1    8    5    4       -0.0000000070
    1    8    5    5       -0.0000000050
    1    8    5    6        0.0000000075
    1    8    5    7        0.0000000020
    1    8    5    8        0.0031341689
    1    1    6    1        0.1628533721
    1    1    6    2       -0.0267328603
    1    1    6    3        0.0000001116
    1    1    6    4       -0.0293394267
    1    1    6    5       -0.4527397334
    1    1    6    6        1.0088552803
    1    1    6    7       -0.0104403993
    1    1    6    8       -0.0000000620
    1    2    6    1       -0.0049438040
    1    2    6    2        0.0019498765
    1    2    6    3       -0.0000000033
    1    2    6    4        0.0012213954
    1    2    6    5       -0.0057971891
    1    2    6    6        0.0094500265
    1    2    6    7       -0.0032509147
    1    2    6    8        0.0000000046
    1    3    6    1        0.0000000151
    1    3    6    2       -0.0000000028
    1    3    6    3       -0.0063756740
    1    3    6    4       -0.0000000028
    1    3    6    5       -0.0000000072
    1    3    6    6        0.0000000094
    1    3    6    7       -0.0000000014
    1    3    6    8        0.0068910002
    1    4    6    1       -0.0055126228
    1    4    6    2        0.0012795553
    1    4    6    3       -0.0000000034
    1    4    6    4       -0.0040644522
    1    4    6    5        0.0024148876
    1    4    6    6       -0.0035760347
    1    4    6    7        0.0056447172
    1    4    6    8        0.0000000045
    1    5    6    1       -0.0281165541
    1    5    6    2       -0.0119776827
    1    5    6    3        0.0000000061
    1    5    6    4       -0.0025114622
    1    5    6    5       -0.0046281425
    1    5    6    6        0.0071766373
    1    5    6    7        0.0047578339
    1    5    6    8       -0.0000000081
    1    6    6    1        0.0463653573
    1    6    6    2        0.0216113929
    1    6    6    3       -0.0000000108
    1    6    6    4        0.0044299973
    1    6    6    5        0.0035603436
    1    6    6    6       -0.0126956031
    1    6    6    7       -0.0070002385
    1    6    6    8        0.0000000136
    1    7    6    1        0.0054216421
    1    7    6    2       -0.0054073897
    1    7    6    3        0.0000000023
    1    7    6    4        0.0054318502
    1    7    6    5       -0.0041250590
    1    7    6    6        0.0083322531
    1    7    6    7       -0.0081670562
    1    7    6    8       -0.0000000037
    1    8    6    1       -0.0000000134
    1    8    6    2        0.0000000076
    1    8    6    3        0.0091962735
    1    8    6    4        0.0000000074
    1    8    6    5        0.0000000088
    1    8    6    6       -0.0000000113
    1    8    6    7       -0.0000000029
    1    8    6    8       -0.0104317811
    1    1    7    1        0.1659208799
    1    1    7    2       -0.0171499405
    1    1    7    3        0.0000002123
    1    1    7    4       -0.4639500091
    1    1    7    5        0.0188841270
    1    1    7    6       -0.0104403993
    1    1    7    7        1.0768608424
    1    1    7    8       -0.0000001183
[...]
    8    1    3    8       -0.0000000160
    8    2    3    1       -0.0197053411
    8    2    3    2       -0.0512854681
    8    2    3    3        0.0000000336
    8    2    3    4       -0.0052498982
    8    2    3    5       -0.0044912681
    8    2    3    6        0.0120309466
    8    2    3    7        0.0114225240
    8    2    3    8       -0.0000000351
    8    3    3    1        0.0000000114
    8    3    3    2        0.0000000191
    8    3    3    3       -0.2005996887
    8    3    3    4       -0.0000000447
    8    3    3    5       -0.0000000114
    8    3    3    6       -0.0000000429
    8    3    3    7       -0.0000000775
    8    3    3    8        0.1596644646
    8    4    3    1       -0.0032443510
    8    4    3    2       -0.0003515457
    8    4    3    3       -0.0000000978
    8    4    3    4       -0.0054114459
    8    4    3    5       -0.0004025227
    8    4    3    6        0.0024401312
    8    4    3    7        0.0168604451
    8    4    3    8        0.0000000560
    8    5    3    1       -0.0028125567
    8    5    3    2        0.0003592882
    8    5    3    3       -0.0000000357
    8    5    3    4       -0.0002765884
    8    5    3    5       -0.0043940555
    8    5    3    6        0.0152144311
    8    5    3    7        0.0007522488
    8    5    3    8        0.0000000115
    8    6    3    1        0.0068910002
    8    6    3    2        0.0249754141
    8    6    3    3       -0.0000000670
    8    6    3    4        0.0064955666
    8    6    3    5        0.0253065879
    8    6    3    6       -0.0183284823
    8    6    3    7       -0.0024194906
    8    6    3    8        0.0000000150
    8    7    3    1        0.0069971722
    8    7    3    2        0.0246005824
    8    7    3    3       -0.0000001064
    8    7    3    4        0.0284112825
    8    7    3    5        0.0036432086
    8    7    3    6       -0.0026304611
    8    7    3    7       -0.0178616103
    8    7    3    8        0.0000000308
    8    8    3    1       -0.0000000136
    8    8    3    2       -0.0000001137
    8    8    3    3        0.6496177986
    8    8    3    4        0.0000000222
    8    8    3    5       -0.0000000165
    8    8    3    6        0.0000000520
    8    8    3    7        0.0000000881
    8    8    3    8       -0.1830418595
    8    1    4    1       -0.0000000115
    8    1    4    2       -0.0000000242
    8    1    4    3       -0.0075494381
    8    1    4    4       -0.0000000057
    8    1    4    5       -0.0000000070
    8    1    4    6        0.0000000074
    8    1    4    7        0.0000000148
    8    1    4    8        0.0038862320
    8    2    4    1       -0.0000000140
    8    2    4    2       -0.0000000326
    8    2    4    3       -0.0048361390
    8    2    4    4        0.0000000006
    8    2    4    5       -0.0000000035
    8    2    4    6        0.0000000113
    8    2    4    7        0.0000000023
    8    2    4    8        0.0040535011
    8    3    4    1        0.0028673188
    8    3    4    2        0.0043667924
    8    3    4    3       -0.0000000411
    8    3    4    4       -0.1424276406
    8    3    4    5       -0.0039716973
    8    3    4    6        0.0070343722
    8    3    4    7        0.1198979219
    8    3    4    8        0.0000000560
    8    4    4    1        0.0000000081
    8    4    4    2        0.0000000075
    8    4    4    3       -0.0047690656
    8    4    4    4       -0.0000000905
    8    4    4    5        0.0000000024
    8    4    4    6       -0.0000000022
    8    4    4    7        0.0000000179
    8    4    4    8        0.0167795030
    8    5    4    1       -0.0000000012
    8    5    4    2        0.0000000042
    8    5    4    3       -0.0002923108
    8    5    4    4       -0.0000000204
    8    5    4    5        0.0000000025
    8    5    4    6        0.0000000057
    8    5    4    7        0.0000000203
    8    5    4    8        0.0016539226
    8    6    4    1        0.0000000045
    8    6    4    2        0.0000000208
    8    6    4    3        0.0066685380
    8    6    4    4       -0.0000000268
    8    6    4    5        0.0000000081
    8    6    4    6       -0.0000000040
    8    6    4    7        0.0000000048
    8    6    4    8       -0.0005930137
    8    7    4    1       -0.0000000061
    8    7    4    2       -0.0000000274
    8    7    4    3        0.0277742182
    8    7    4    4       -0.0000001081
    8    7    4    5        0.0000000057
    8    7    4    6        0.0000000020
    8    7    4    7       -0.0000000236
    8    7    4    8       -0.0065376277
    8    8    4    1       -0.0046492673
    8    8    4    2        0.0067798963
    8    8    4    3        0.0000000222
    8    8    4    4        0.5638902136
    8    8    4    5        0.0094565582
    8    8    4    6       -0.0094345405
    8    8    4    7       -0.1534641228
    8    8    4    8       -0.0000000957
    8    1    5    1        0.0000000001
    8    1    5    2       -0.0000000116
    8    1    5    3       -0.0065119103
    8    1    5    4       -0.0000000069
    8    1    5    5       -0.0000000050
    8    1    5    6        0.0000000088
    8    1    5    7        0.0000000020
    8    1    5    8        0.0033194451
    8    2    5    1       -0.0000000070
    8    2    5    2       -0.0000000197
    8    2    5    3       -0.0041546767
    8    2    5    4       -0.0000000035
    8    2    5    5       -0.0000000013
    8    2    5    6        0.0000000013
    8    2    5    7        0.0000000069
    8    2    5    8        0.0038702887
    8    3    5    1        0.0021448413
    8    3    5    2        0.0036518813
    8    3    5    3       -0.0000000084
    8    3    5    4       -0.0040163326
    8    3    5    5       -0.1305615870
    8    3    5    6        0.1169694165
    8    3    5    7       -0.0053860735
    8    3    5    8        0.0000000115
    8    4    5    1        0.0000000002
    8    4    5    2        0.0000000050
    8    4    5    3       -0.0004207427
    8    4    5    4        0.0000000028
    8    4    5    5       -0.0000000580
    8    4    5    6        0.0000000553
    8    4    5    7        0.0000000010
    8    4    5    8        0.0016539226
    8    5    5    1        0.0000000069
    8    5    5    2        0.0000000090
    8    5    5    3       -0.0036967593
    8    5    5    4        0.0000000024
    8    5    5    5       -0.0000000308
    8    5    5    7       -0.0000000040
    8    5    5    8        0.0165448147
    8    6    5    1       -0.0000000081
    8    6    5    2       -0.0000000187
    8    6    5    3        0.0245682233
    8    6    5    4        0.0000000078
    8    6    5    5       -0.0000000518
    8    6    5    6        0.0000000013
    8    6    5    7        0.0000000087
    8    6    5    8       -0.0059067687
    8    7    5    1        0.0000000032
    8    7    5    2        0.0000000205
    8    7    5    3        0.0038739409
    8    7    5    4        0.0000000060
    8    7    5    5       -0.0000000383
    8    7    5    6        0.0000000279
    8    7    5    7        0.0000000029
    8    7    5    8        0.0003154088
    8    8    5    1       -0.0035815720
    8    8    5    2        0.0055089214
    8    8    5    3       -0.0000000165
    8    8    5    4        0.0094565582
    8    8    5    5        0.5406790545
    8    8    5    6       -0.1575432432
    8    8    5    7        0.0070386979
    8    8    5    8       -0.0000000381
    8    1    6    1       -0.0000000138
    8    1    6    2        0.0000000080
    8    1    6    3        0.0088879040
    8    1    6    4        0.0000000071
    8    1    6    5        0.0000000075
    8    1    6    6       -0.0000000113
    8    1    6    7       -0.0000000030
    8    1    6    8       -0.0105753638
    8    2    6    1        0.0000000058
    8    2    6    2        0.0000000168
    8    2    6    3        0.0123674807
    8    2    6    4        0.0000000112
    8    2    6    5        0.0000000103
    8    2    6    6       -0.0000000013
    8    2    6    7       -0.0000000049
    8    2    6    8       -0.0085088365
    8    3    6    1       -0.0047540456
    8    3    6    2        0.0118257725
    8    3    6    3       -0.0000000492
    8    3    6    4        0.0061025867
    8    3    6    5        0.1128965757
    8    3    6    6       -0.1625973767
    8    3    6    7        0.0039500877
    8    3    6    8        0.0000000150
    8    4    6    1       -0.0000000019
    8    4    6    2        0.0000000094
    8    4    6    3        0.0021232535
    8    4    6    4       -0.0000000045
    8    4    6    5        0.0000000517
    8    4    6    6       -0.0000000714
    8    4    6    7        0.0000000051
    8    4    6    8       -0.0005930137
    8    5    6    1       -0.0000000102
    8    5    6    2       -0.0000000033
    8    5    6    3        0.0155009720
    8    5    6    4        0.0000000065
    8    5    6    5       -0.0000000031
    8    5    6    6       -0.0000000336
    8    5    6    7        0.0000000095
    8    5    6    8       -0.0059067687
    8    6    6    1        0.0000000136
    8    6    6    2        0.0000000161
    8    6    6    3       -0.0184693496
    8    6    6    4       -0.0000000043
    8    6    6    5        0.0000000026
    8    6    6    6       -0.0000000598
    8    6    6    7       -0.0000000050
    8    6    6    8        0.0274131298
    8    7    6    1       -0.0000000047
    8    7    6    2       -0.0000000101
    8    7    6    3       -0.0028469482
    8    7    6    4        0.0000000021
    8    7    6    5        0.0000000288
    8    7    6    6       -0.0000000394
    8    7    6    7       -0.0000000083
    8    7    6    8        0.0058735432
    8    8    6    1        0.0068245650
    8    8    6    2       -0.0143230047
    8    8    6    3        0.0000000520
    8    8    6    4       -0.0094345405
    8    8    6    5       -0.1575432432
    8    8    6    6        0.5641888227
    8    8    6    7       -0.0018491738
    8    8    6    8       -0.0000000593
    8    1    7    1       -0.0000000161
    8    1    7    2        0.0000000043
    8    1    7    3        0.0087925280
    8    1    7    4        0.0000000129
    8    1    7    5        0.0000000020
    8    1    7    6       -0.0000000029
    8    1    7    7       -0.0000000096
    8    1    7    8       -0.0106447652
    8    2    7    1        0.0000000041
    8    2    7    2        0.0000000053
    8    2    7    3        0.0118167554
    8    2    7    4        0.0000000124
    8    2    7    5        0.0000000056
    8    2    7    6       -0.0000000052
    8    2    7    7       -0.0000000019
    8    2    7    8       -0.0080661993
    8    3    7    1       -0.0046783560
    8    3    7    2        0.0094554468
    8    3    7    3       -0.0000000870
    8    3    7    4        0.1146711078
    8    3    7    5       -0.0058967497
    8    3    7    6        0.0040378829
    8    3    7    7       -0.1732981886
    8    3    7    8        0.0000000308
    8    4    7    1       -0.0000000132
    8    4    7    2       -0.0000000036
    8    4    7    3        0.0170689144
    8    4    7    4        0.0000000144
    8    4    7    5        0.0000000009
    8    4    7    6        0.0000000051
    8    4    7    7       -0.0000001119
    8    4    7    8       -0.0065376277
    8    5    7    1        0.0000000001
    8    5    7    2        0.0000000067
    8    5    7    3        0.0004585541
    8    5    7    4        0.0000000176
    8    5    7    5       -0.0000000058
    8    5    7    6        0.0000000100
    8    5    7    7       -0.0000000244
    8    5    7    8        0.0003154088
    8    6    7    1       -0.0000000037
    8    6    7    2       -0.0000000066
    8    6    7    3       -0.0025899937
    8    6    7    4        0.0000000051
    8    6    7    5        0.0000000092
    8    6    7    6       -0.0000000050
    8    6    7    7       -0.0000000301
    8    6    7    8        0.0058735432
    8    7    7    1        0.0000000170
    8    7    7    2        0.0000000157
    8    7    7    3       -0.0180125085
    8    7    7    4       -0.0000000224
    8    7    7    5        0.0000000026
    8    7    7    6       -0.0000000083
    8    7    7    7       -0.0000001392
    8    7    7    8        0.0301866376
    8    8    7    1        0.0065714230
    8    8    7    2       -0.0101966418
    8    8    7    3        0.0000000881
    8    8    7    4       -0.1534641228
    8    8    7    5        0.0070386979
    8    8    7    6       -0.0018491738
    8    8    7    7        0.5866498580
    8    8    7    8       -0.0000000843
    8    1    8    1        0.0530874634
    8    1    8    2        0.0264898369
    8    1    8    3       -0.0000000169
    8    1    8    4        0.0036590906
    8    1    8    5        0.0031341689
    8    1    8    6       -0.0104317811
    8    1    8    7       -0.0104991976
    8    1    8    8        0.0000000295
    8    2    8    1        0.0264898369
    8    2    8    2        0.0505466115
    8    2    8    3       -0.0000000206
    8    2    8    4        0.0038141324
    8    2    8    5        0.0036166174
    8    2    8    6       -0.0092365283
    8    2    8    7       -0.0087768830
    8    2    8    8        0.0000000258
    8    3    8    1       -0.0000000169
    8    3    8    2       -0.0000000206
    8    3    8    3        0.1536163259
    8    3    8    4        0.0000000529
    8    3    8    5        0.0000000103
    8    3    8    6        0.0000000155
    8    3    8    7        0.0000000323
    8    3    8    8       -0.1830418595
    8    4    8    1        0.0036590906
    8    4    8    2        0.0038141324
    8    4    8    3        0.0000000529
    8    4    8    4        0.0162921533
    8    4    8    5        0.0015643726
    8    4    8    6       -0.0005483011
    8    4    8    7       -0.0067632496
    8    4    8    8       -0.0000000957
    8    5    8    1        0.0031341689
    8    5    8    2        0.0036166174
    8    5    8    3        0.0000000103
    8    5    8    4        0.0015643726
    8    5    8    5        0.0170338642
    8    5    8    6       -0.0061113718
    8    5    8    7        0.0003669025
    8    5    8    8       -0.0000000381
    8    6    8    1       -0.0104317811
    8    6    8    2       -0.0092365283
    8    6    8    3        0.0000000155
    8    6    8    4       -0.0005483011
    8    6    8    5       -0.0061113718
    8    6    8    6        0.0274131298
    8    6    8    7        0.0058735432
    8    6    8    8       -0.0000000593
    8    7    8    1       -0.0104991976
    8    7    8    2       -0.0087768830
    8    7    8    3        0.0000000323
    8    7    8    4       -0.0067632496
    8    7    8    5        0.0003669025
    8    7    8    6        0.0058735432
    8    7    8    7        0.0301866376
    8    7    8    8       -0.0000000843
    8    8    8    1        0.0000000295
    8    8    8    2        0.0000000258
    8    8    8    3       -0.1830418595
    8    8    8    4       -0.0000000957
    8    8    8    5       -0.0000000381
    8    8    8    6       -0.0000000593
    8    8    8    7       -0.0000000843
    8    8    8    8        0.6098097706
 end_two_electron_integrals

 Parallel integral file used      16 records with       0 large values


 Task  times  cpu:       84.5s     wall:       89.4s


                                NWChem Input Module
                                -------------------


 Summary of allocated global arrays
-----------------------------------
  No active global arrays


MA_summarize_allocated_blocks: starting scan ...
MA_summarize_allocated_blocks: scan completed: 0 heap blocks, 0 stack blocks
MA usage statistics:

	allocation statistics:
					      heap	     stack
					      ----	     -----
	current number of blocks	         0	         0
	maximum number of blocks	        18	        42
	current total bytes		         0	         0
	maximum total bytes		  25775928	4725685688
	maximum total K-bytes		     25776	   4725686
	maximum total M-bytes		        26	      4726


                                     CITATION
                                     --------
                Please cite the following reference when publishing
                           results obtained with NWChem:

          E. Apra, E. J. Bylaska, W. A. de Jong, N. Govind, K. Kowalski,
       T. P. Straatsma, M. Valiev, H. J. J. van Dam, Y. Alexeev, J. Anchell,
       V. Anisimov, F. W. Aquino, R. Atta-Fynn, J. Autschbach, N. P. Bauman,
     J. C. Becca, D. E. Bernholdt, K. Bhaskaran-Nair, S. Bogatko, P. Borowski,
         J. Boschen, J. Brabec, A. Bruner, E. Cauet, Y. Chen, G. N. Chuev,
      C. J. Cramer, J. Daily, M. J. O. Deegan, T. H. Dunning Jr., M. Dupuis,
   K. G. Dyall, G. I. Fann, S. A. Fischer, A. Fonari, H. Fruchtl, L. Gagliardi,
      J. Garza, N. Gawande, S. Ghosh, K. Glaesemann, A. W. Gotz, J. Hammond,
       V. Helms, E. D. Hermes, K. Hirao, S. Hirata, M. Jacquelin, L. Jensen,
   B. G. Johnson, H. Jonsson, R. A. Kendall, M. Klemm, R. Kobayashi, V. Konkov,
      S. Krishnamoorthy, M. Krishnan, Z. Lin, R. D. Lins, R. J. Littlefield,
      A. J. Logsdail, K. Lopata, W. Ma, A. V. Marenich, J. Martin del Campo,
   D. Mejia-Rodriguez, J. E. Moore, J. M. Mullin, T. Nakajima, D. R. Nascimento,
    J. A. Nichols, P. J. Nichols, J. Nieplocha, A. Otero-de-la-Roza, B. Palmer,
    A. Panyala, T. Pirojsirikul, B. Peng, R. Peverati, J. Pittner, L. Pollack,
   R. M. Richard, P. Sadayappan, G. C. Schatz, W. A. Shelton, D. W. Silverstein,
   D. M. A. Smith, T. A. Soares, D. Song, M. Swart, H. L. Taylor, G. S. Thomas,
            V. Tipparaju, D. G. Truhlar, K. Tsemekhman, T. Van Voorhis,
      A. Vazquez-Mayagoitia, P. Verma, O. Villa, A. Vishnu, K. D. Vogiatzis,
        D. Wang, J. H. Weare, M. J. Williamson, T. L. Windus, K. Wolinski,
        A. T. Wong, Q. Wu, C. Yang, Q. Yu, M. Zacharias, Z. Zhang, Y. Zhao,
                                and R. J. Harrison
                        "NWChem: Past, present, and future
                         J. Chem. Phys. 152, 184102 (2020)
                               doi:10.1063/5.0004997

                                      AUTHORS
                                      -------
  E. Apra, E. J. Bylaska, N. Govind, K. Kowalski, M. Valiev, D. Mejia-Rodriguez,
       A. Kunitsa, N. P. Bauman, A. Panyala, W. A. de Jong, T. P. Straatsma,
        H. J. J. van Dam, D. Wang, T. L. Windus, J. Hammond, J. Autschbach,
    K. Bhaskaran-Nair, J. Brabec, K. Lopata, S. A. Fischer, S. Krishnamoorthy,
     M. Jacquelin, W. Ma, M. Klemm, O. Villa, Y. Chen, V. Anisimov, F. Aquino,
    S. Hirata, M. T. Hackler, Eric Hermes, L. Jensen, J. E. Moore, J. C. Becca,
      V. Konjkov, T. Risthaus, M. Malagoli, A. Marenich, A. Otero-de-la-Roza,
        J. Mullin, P. Nichols, R. Peverati, J. Pittner, Y. Zhao, P.-D. Fan,
        A. Fonari, M. J. Williamson, R. J. Harrison, J. R. Rehr, M. Dupuis,
     D. Silverstein, D. M. A. Smith, J. Nieplocha, V. Tipparaju, M. Krishnan,
     B. E. Van Kuiken, A. Vazquez-Mayagoitia, M. Swart, Q. Wu, T. Van Voorhis,
     A. A. Auer, M. Nooijen, L. D. Crosby, E. Brown, G. Cisneros, G. I. Fann,
   H. Fruchtl, J. Garza, K. Hirao, R. A. Kendall, J. A. Nichols, K. Tsemekhman,
    K. Wolinski, J. Anchell, D. E. Bernholdt, P. Borowski, T. Clark, D. Clerc,
   H. Dachsel, M. J. O. Deegan, K. Dyall, D. Elwood, E. Glendening, M. Gutowski,
   A. C. Hess, J. Jaffe, B. G. Johnson, J. Ju, R. Kobayashi, R. Kutteh, Z. Lin,
   R. Littlefield, X. Long, B. Meng, T. Nakajima, S. Niu, L. Pollack, M. Rosing,
   K. Glaesemann, G. Sandrone, M. Stave, H. Taylor, G. Thomas, J. H. van Lenthe,
                               A. T. Wong, Z. Zhang.

 Total times  cpu:       95.4s     wall:      107.5s
