 argument  1 = input.nw
  NWChem w/ OpenMP: maximum threads =    1



============================== echo of input deck ==============================
 echo
 start H2O
 title "H2O"

 memory total 24 gb

 geometry units bohr
 symmetry c1
        O  0.00000000  0.00000000  0.00000000
        H  0.00000000  2.1937055  0.00000000
        H  1.72558000 -0.64860000  0.00000000
 end

 basis spherical
   * library cc-pVTZ
 end

 mcscf
   active  8
   actelec 10
   multiplicity 1
   maxiter 40
   vectors input h2o.mos
   vectors output h2o.mos
 end

 task mcscf

 scf
   vectors input h2o.mos
   vectors output h2o-trash.mos
   noscf
 end

 tce
   2eorb
   2emet 13
   ccsd
 end

# set tce:print_integrals T
# set tce:qorb 8
# set tce:qela 5
# set tce:qelb 5

 set tce:qducc T
 set tce:nactv 3
 set tce:nonhf T
 set tce:ducc_model 3

 set tce:printtol 0.02

 task tce
================================================================================


                                         
                                         


             Northwest Computational Chemistry Package (NWChem) 7.0.1
             --------------------------------------------------------


                    Environmental Molecular Sciences Laboratory
                       Pacific Northwest National Laboratory
                                Richland, WA 99352

                              Copyright (c) 1994-2020
                       Pacific Northwest National Laboratory
                            Battelle Memorial Institute

             NWChem is an open-source computational chemistry package
                        distributed under the terms of the
                      Educational Community License (ECL) 2.0
             A copy of the license is included with this distribution
                              in the LICENSE.TXT file

                                  ACKNOWLEDGMENT
                                  --------------

            This software and its documentation were developed at the
            EMSL at Pacific Northwest National Laboratory, a multiprogram
            national laboratory, operated for the U.S. Department of Energy
            by Battelle under Contract Number DE-AC05-76RL01830. Support
            for this work was provided by the Department of Energy Office
            of Biological and Environmental Research, Office of Basic
            Energy Sciences, and the Office of Advanced Scientific Computing.


           Job information
           ---------------

    hostname        = WE46210
    program         = /home/baum612/code/nwchem/bin/LINUX64/nwchem
    date            = Tue Feb 20 12:07:41 2024

    compiled        = Fri_Feb_16_11:09:52_2024
    source          = /home/baum612/code/nwchem
    nwchem branch   = 7.0.0
    nwchem revision = nwchem_on_git-4191-g39d87d64de
    ga revision     = 5.8.1
    use scalapack   = F
    input           = input.nw
    prefix          = H2O.
    data base       = ./H2O.db
    status          = startup
    nproc           =        1
    time left       =     -1s



           Memory information
           ------------------

    heap     =  805306366 doubles =   6144.0 Mbytes
    stack    =  805306363 doubles =   6144.0 Mbytes
    global   = 1610612736 doubles =  12288.0 Mbytes (distinct from heap & stack)
    total    = 3221225465 doubles =  24576.0 Mbytes
    verify   = yes
    hardfail = no 


           Directory information
           ---------------------

  0 permanent = .
  0 scratch   = .




                                NWChem Input Module
                                -------------------


                                        H2O
                                        ---
 Turning off AUTOSYM since
 SYMMETRY directive was detected!


          ------
          auto-z
          ------
  no constraints, skipping    0.0000000000000000     
  no constraints, skipping    0.0000000000000000     


                             Geometry "geometry" -> ""
                             -------------------------

 Output coordinates in a.u. (scale by  1.000000000 to convert to a.u.)

  No.       Tag          Charge          X              Y              Z
 ---- ---------------- ---------- -------------- -------------- --------------
    1 O                    8.0000    -0.17255800    -0.15451055     0.00000000
    2 H                    1.0000    -0.17255800     2.03919495     0.00000000
    3 H                    1.0000     1.55302200    -0.80311055     0.00000000

      Atomic Mass 
      ----------- 

      O                 15.994910
      H                  1.007825


 Effective nuclear repulsion energy (a.u.)       8.2872288731

            Nuclear Dipole moment (a.u.) 
            ----------------------------
        X                 Y               Z
 ---------------- ---------------- ----------------
    -0.0000000000    -0.0000000000     0.0000000000



                                Z-matrix (autoz)
                                -------- 

 Units are Angstrom for bonds and degrees for angles

      Type          Name      I     J     K     L     M      Value
      ----------- --------  ----- ----- ----- ----- ----- ----------
    1 Stretch                  1     2                       1.16086
    2 Stretch                  1     3                       0.97551
    3 Bend                     2     1     3               110.59992


            XYZ format geometry
            -------------------
     3
 geometry
 O                    -0.09131377    -0.08176347     0.00000000
 H                    -0.09131377     1.07909557     0.00000000
 H                     0.82182391    -0.42498783     0.00000000

 ==============================================================================
                                internuclear distances
 ------------------------------------------------------------------------------
       center one      |      center two      | atomic units |       a.u.
 ------------------------------------------------------------------------------
    3 H                |   1 O                |     1.84345  |     1.84345
 ------------------------------------------------------------------------------
                         number of included internuclear distances:          1
 ==============================================================================





 Summary of "ao basis" -> "" (spherical)
 ------------------------------------------------------------------------------
       Tag                 Description            Shells   Functions and Types
 ---------------- ------------------------------  ------  ---------------------
 *                          cc-pVTZ                   on all atoms 


                      Basis "ao basis" -> "ao basis" (spherical)
                      -----
  O (Oxygen)
  ----------
            Exponent  Coefficients 
       -------------- ---------------------------------------------------------
  1 S  1.53300000E+04  0.000508
  1 S  2.29900000E+03  0.003929
  1 S  5.22400000E+02  0.020243
  1 S  1.47300000E+02  0.079181
  1 S  4.75500000E+01  0.230687
  1 S  1.67600000E+01  0.433118
  1 S  6.20700000E+00  0.350260
  1 S  6.88200000E-01 -0.008154

  2 S  1.53300000E+04 -0.000115
  2 S  2.29900000E+03 -0.000895
  2 S  5.22400000E+02 -0.004636
  2 S  1.47300000E+02 -0.018724
  2 S  4.75500000E+01 -0.058463
  2 S  1.67600000E+01 -0.136463
  2 S  6.20700000E+00 -0.175740
  2 S  6.88200000E-01  0.603418

  3 S  1.75200000E+00  1.000000

  4 S  2.38400000E-01  1.000000

  5 P  3.44600000E+01  0.015928
  5 P  7.74900000E+00  0.099740
  5 P  2.28000000E+00  0.310492

  6 P  7.15600000E-01  1.000000

  7 P  2.14000000E-01  1.000000

  8 D  2.31400000E+00  1.000000

  9 D  6.45000000E-01  1.000000

 10 F  1.42800000E+00  1.000000

  H (Hydrogen)
  ------------
            Exponent  Coefficients 
       -------------- ---------------------------------------------------------
  1 S  3.38700000E+01  0.006068
  1 S  5.09500000E+00  0.045308
  1 S  1.15900000E+00  0.202822

  2 S  3.25800000E-01  1.000000

  3 S  1.02700000E-01  1.000000

  4 P  1.40700000E+00  1.000000

  5 P  3.88000000E-01  1.000000

  6 D  1.05700000E+00  1.000000



 Summary of "ao basis" -> "ao basis" (spherical)
 ------------------------------------------------------------------------------
       Tag                 Description            Shells   Functions and Types
 ---------------- ------------------------------  ------  ---------------------
 O                          cc-pVTZ                 10       30   4s3p2d1f
 H                          cc-pVTZ                  6       14   3s2p1d



                            NWChem Direct MCSCF Module
                            --------------------------


                                        H2O


     -----------------------------------
       Basis functions:             58
       Inactive shells:              0
       Active shells:                8
       Active electrons:            10
       Symmetry:                    a       
       Multiplicity:                 1
       Orbital rotations:          400
     -----------------------------------

     -----------------------------------
       E2 extrapolation:             F
       Conjugacy:                    T
       Micro CI relax:               T
       Canonical orbitals:           T
       Maximum iterations:          40
       Converge threshold:    1.00E-04
       Conjugacy resets:            20
       Initial levelshift:        0.10
     -----------------------------------

 Loading old vectors from job with title :

H2O


   input molecular orbitals = ./h2o.mos
  output molecular orbtials = ./h2o.mos

       No. of determinants:          3136


  Starting Orbital Energies
   -20.557481    -1.309437    -0.694686    -0.565929    -0.519184    -0.034249
    -0.025836    -0.015773     0.308959     0.335708     0.610369     0.695058
     0.819589     0.824789     0.971172     1.113403     1.187251     1.250473
     1.407669     1.930533     2.050517     2.084118     2.159034     2.303696
     2.611501     2.820446     3.343105     3.454935     3.465029     3.502689
     3.561919     3.706408     3.848163     3.878876     3.895303     4.002756
     4.077312     4.154407     4.241648     4.286435     4.517841     4.614801
     4.947967     5.136774     5.521436     5.839943     6.095032     6.356291
     6.769067     6.885364     6.979231     7.010435     7.095990     7.141200
     7.363287     7.554392     7.785648    11.473800

  Orbital Symmetry Irreps
a    a    a    a    a    a    a    a    a    a    a    a    a    a    a   
a    a    a    a    a    a    a    a    a    a    a    a    a    a    a   
a    a    a    a    a    a    a    a    a    a    a    a    a    a    a   
a    a    a    a    a    a    a    a    a    a    a    a    a   

 Integral file          = ./H2O.aoints.0
 Record size in doubles =  65536        No. of integs per rec  =  43688
 Max. records in memory =     49        Max. records in file   = 252461
 No. of bits per label  =      8        No. of bits per value  =     64


 #quartets = 3.213D+04 #integrals = 6.608D+05 #direct =  0.0% #cached =100.0%




          %%%%% MacroIteration   1 %%%%%


          Number of sigma calls:       15
                       o<<<<< (aa):             0.01
                       o<<<<< (bb):             0.01
                       o<<<<< (ab):             0.20
                       o<<<<< (total)           0.21
                       o<<<<< (aa) ff           0.00
                       o<<<<< (aa) gop          0.00
                       o<<<<< (aa) dot          0.00
                       o<<<<< (ab) str          0.00
                       o<<<<< (ab) gath         0.00
                       o<<<<< (ab) dotab        0.00
                       o<<<<< (ab) scat         0.00
                       o<<<<< (ab) sync         0.00
                       o<<<<< Density           0.02
                       o<<<<< Density one       0.01
                       o<<<<< Density two       0.00
                       o<<<<< Density ab        0.01
                       o<<<<< Spin adapt        1.10
                       o<<<<< Symm adapt        0.00

                       o<<<<< (ab) max sync:      0.00

           >>>| Valence CI:            -84.410265340948
           >>>| MCSCF energy:          -76.123036467851
           >>>| Gradient norm:          0.750495213D-02

                              ----- Line search ------

        step       energy         lsg     num-lsg   num-lsh   lsrat    time
      ------- ---------------- --------- --------- --------- ------- --------
       0.0000     -76.12303647 -6.49D-06  0.00D+00  0.00D+00 0.0D+00      3.5

          Number of sigma calls:       14
                       o<<<<< (aa):             0.02
                       o<<<<< (bb):             0.02
                       o<<<<< (ab):             0.18
                       o<<<<< (total)           0.21
                       o<<<<< (aa) ff           0.00
                       o<<<<< (aa) gop          0.00
                       o<<<<< (aa) dot          0.00
                       o<<<<< (ab) str          0.00
                       o<<<<< (ab) gath         0.00
                       o<<<<< (ab) dotab        0.00
                       o<<<<< (ab) scat         0.00
                       o<<<<< (ab) sync         0.00
                       o<<<<< Density           0.02
                       o<<<<< Density one       0.01
                       o<<<<< Density two       0.00
                       o<<<<< Density ab        0.01
                       o<<<<< Spin adapt        0.94
                       o<<<<< Symm adapt        0.00

                       o<<<<< (ab) max sync:      0.00
       1.0000     -76.12303987 -3.19D-07 -3.19D-07  6.17D-06 4.9D-02      5.0
     --- Orbitals canonicalized ---



          %%%%% MacroIteration   2 %%%%%


          Number of sigma calls:       12
                       o<<<<< (aa):             0.00
                       o<<<<< (bb):             0.01
                       o<<<<< (ab):             0.17
                       o<<<<< (total)           0.18
                       o<<<<< (aa) ff           0.00
                       o<<<<< (aa) gop          0.00
                       o<<<<< (aa) dot          0.00
                       o<<<<< (ab) str          0.00
                       o<<<<< (ab) gath         0.00
                       o<<<<< (ab) dotab        0.00
                       o<<<<< (ab) scat         0.00
                       o<<<<< (ab) sync         0.00
                       o<<<<< Density           0.03
                       o<<<<< Density one       0.00
                       o<<<<< Density two       0.01
                       o<<<<< Density ab        0.02
                       o<<<<< Spin adapt        0.80
                       o<<<<< Symm adapt        0.00

                       o<<<<< (ab) max sync:      0.00

           >>>| Valence CI:            -84.410268746099
           >>>| MCSCF energy:          -76.123039873002
           >>>| Gradient norm:          0.709252186D-03
     --- Warning:    2 Hessian diagonals < 0.05 ---
     --- Conjugacy reset ---

                              ----- Line search ------

        step       energy         lsg     num-lsg   num-lsh   lsrat    time
      ------- ---------------- --------- --------- --------- ------- --------
       0.0000     -76.12303987 -1.02D-07  0.00D+00  0.00D+00 0.0D+00      6.5

          Number of sigma calls:       10
                       o<<<<< (aa):             0.00
                       o<<<<< (bb):             0.01
                       o<<<<< (ab):             0.12
                       o<<<<< (total)           0.14
                       o<<<<< (aa) ff           0.00
                       o<<<<< (aa) gop          0.00
                       o<<<<< (aa) dot          0.00
                       o<<<<< (ab) str          0.00
                       o<<<<< (ab) gath         0.00
                       o<<<<< (ab) dotab        0.00
                       o<<<<< (ab) scat         0.00
                       o<<<<< (ab) sync         0.00
                       o<<<<< Density           0.01
                       o<<<<< Density one       0.00
                       o<<<<< Density two       0.01
                       o<<<<< Density ab        0.00
                       o<<<<< Spin adapt        0.76
                       o<<<<< Symm adapt        0.00

                       o<<<<< (ab) max sync:      0.00
       1.0000     -76.12303994 -3.59D-08 -3.59D-08  6.57D-08 3.5D-01      7.7

          Number of sigma calls:       10
                       o<<<<< (aa):             0.00
                       o<<<<< (bb):             0.01
                       o<<<<< (ab):             0.14
                       o<<<<< (total)           0.15
                       o<<<<< (aa) ff           0.00
                       o<<<<< (aa) gop          0.00
                       o<<<<< (aa) dot          0.00
                       o<<<<< (ab) str          0.00
                       o<<<<< (ab) gath         0.00
                       o<<<<< (ab) dotab        0.00
                       o<<<<< (ab) scat         0.00
                       o<<<<< (ab) sync         0.00
                       o<<<<< Density           0.01
                       o<<<<< Density one       0.00
                       o<<<<< Density two       0.00
                       o<<<<< Density ab        0.01
                       o<<<<< Spin adapt        0.68
                       o<<<<< Symm adapt        0.00

                       o<<<<< (ab) max sync:      0.00
       1.5462     -76.12303995  4.75D-11  4.53D-11  6.58D-08 4.7D-04      8.9



          %%%%% MacroIteration   3 %%%%%


          Number of sigma calls:        1
                       o<<<<< (aa):             0.00
                       o<<<<< (bb):             0.00
                       o<<<<< (ab):             0.01
                       o<<<<< (total)           0.01
                       o<<<<< (aa) ff           0.00
                       o<<<<< (aa) gop          0.00
                       o<<<<< (aa) dot          0.00
                       o<<<<< (ab) str          0.00
                       o<<<<< (ab) gath         0.00
                       o<<<<< (ab) dotab        0.00
                       o<<<<< (ab) scat         0.00
                       o<<<<< (ab) sync         0.00
                       o<<<<< Density           0.02
                       o<<<<< Density one       0.01
                       o<<<<< Density two       0.00
                       o<<<<< Density ab        0.01
                       o<<<<< Spin adapt        0.00
                       o<<<<< Symm adapt        0.00

                       o<<<<< (ab) max sync:      0.00

           >>>| Valence CI:            -84.410268824632
           >>>| MCSCF energy:          -76.123039951535
           >>>| Gradient norm:          0.984482100D-04




     ==============================
            MCSCF Converged
     ==============================



          Canonical Eigenvalues

              1      
    1  -20.5578
    2   -1.3088
    3   -0.6938
    4   -0.5654
    5   -0.5191
    6   -0.0345
    7   -0.0258
    8   -0.0158
    9    0.3092
   10    0.3357
   11    0.6103
   12    0.6963
   13    0.8199
   14    0.8243
   15    0.9711
   16    1.1121
   17    1.1867
   18    1.2494
   19    1.4079
   20    1.9284
   21    2.0505
   22    2.0829
   23    2.1597
   24    2.3057
   25    2.6132
   26    2.8191
   27    3.3427
   28    3.4537
   29    3.4642
   30    3.5010
   31    3.5624
   32    3.7021
   33    3.8416
   34    3.8780
   35    3.8943
   36    4.0026
   37    4.0771
   38    4.1497
   39    4.2380
   40    4.2835
   41    4.5158
   42    4.6117
   43    4.9466
   44    5.1337
   45    5.5200
   46    5.8373
   47    6.0884
   48    6.3444
   49    6.7661
   50    6.8849
   51    6.9787
   52    7.0088
   53    7.0958
   54    7.1403
   55    7.3562
   56    7.5537
   57    7.7778
   58   11.4528


          Converged CI vector

   Index           Coefficient          Config. Occupation
         1          0.96991107          1  2  3  4  5  1  2  3  4  5
        22         -0.07420121          1  2  3  4  5  1  2  3  4  8
         3         -0.04702914          1  2  3  4  5  1  2  3  5  6
         8         -0.02688327          1  2  3  4  5  1  2  3  5  7
        27          0.02058591          1  2  3  4  5  1  2  3  6  8
         4         -0.02888899          1  2  3  4  5  1  2  4  5  6
         9          0.03834830          1  2  3  4  5  1  2  4  5  7
        38         -0.02175488          1  2  3  4  5  1  2  4  7  8
      1177         -0.07420121          1  2  3  4  8  1  2  3  4  5
      1198         -0.05160183          1  2  3  4  8  1  2  3  4  8
      1179         -0.02642719          1  2  3  4  8  1  2  3  5  6
      1180         -0.02216981          1  2  3  4  8  1  2  4  5  6
      1185          0.02909198          1  2  3  4  8  1  2  4  5  7
       113         -0.04702914          1  2  3  5  6  1  2  3  4  5
       134         -0.02642719          1  2  3  5  6  1  2  3  4  8
       115         -0.06324557          1  2  3  5  6  1  2  3  5  6
       116         -0.04583607          1  2  3  5  6  1  2  4  5  6
       117         -0.02048778          1  2  3  5  6  1  3  4  5  6
       393         -0.02688327          1  2  3  5  7  1  2  3  4  5
       400         -0.02266746          1  2  3  5  7  1  2  3  5  7
       401          0.02669597          1  2  3  5  7  1  2  4  5  7
      1457          0.02058591          1  2  3  6  8  1  2  3  4  5
       169         -0.02888899          1  2  4  5  6  1  2  3  4  5
       190         -0.02216981          1  2  4  5  6  1  2  3  4  8
       171         -0.04583607          1  2  4  5  6  1  2  3  5  6
       172         -0.04840761          1  2  4  5  6  1  2  4  5  6
       173         -0.02179195          1  2  4  5  6  1  3  4  5  6
       449          0.03834830          1  2  4  5  7  1  2  3  4  5
       470          0.02909198          1  2  4  5  7  1  2  3  4  8
       456          0.02669597          1  2  4  5  7  1  2  3  5  7
       457         -0.05254414          1  2  4  5  7  1  2  4  5  7
       458          0.02432522          1  2  4  5  7  1  3  4  5  7
      2073         -0.02175488          1  2  4  7  8  1  2  3  4  5
       227         -0.02048778          1  3  4  5  6  1  2  3  5  6
       228         -0.02179195          1  3  4  5  6  1  2  4  5  6
       229         -0.02325186          1  3  4  5  6  1  3  4  5  6
       513          0.02432522          1  3  4  5  7  1  2  4  5  7
       514         -0.02363783          1  3  4  5  7  1  3  4  5  7

          Number of sigma calls:        1
                       o<<<<< (aa):             0.00
                       o<<<<< (bb):             0.00
                       o<<<<< (ab):             0.01
                       o<<<<< (total)           0.01
                       o<<<<< (aa) ff           0.00
                       o<<<<< (aa) gop          0.00
                       o<<<<< (aa) dot          0.00
                       o<<<<< (ab) str          0.00
                       o<<<<< (ab) gath         0.00
                       o<<<<< (ab) dotab        0.00
                       o<<<<< (ab) scat         0.00
                       o<<<<< (ab) sync         0.00
                       o<<<<< Density           0.03
                       o<<<<< Density one       0.01
                       o<<<<< Density two       0.01
                       o<<<<< Density ab        0.01
                       o<<<<< Spin adapt        0.00
                       o<<<<< Symm adapt        0.00

                       o<<<<< (ab) max sync:      0.00



          Natural orbital occupation numbers

              1      
    1    2.0000
    2    1.9986
    3    1.9808
    4    1.9754
    5    1.9617
    6    0.0395
    7    0.0253
    8    0.0187


          Number of sigma calls:       15
                       o<<<<< (aa):             0.01
                       o<<<<< (bb):             0.02
                       o<<<<< (ab):             0.19
                       o<<<<< (total)           0.22
                       o<<<<< (aa) ff           0.00
                       o<<<<< (aa) gop          0.00
                       o<<<<< (aa) dot          0.00
                       o<<<<< (ab) str          0.00
                       o<<<<< (ab) gath         0.00
                       o<<<<< (ab) dotab        0.00
                       o<<<<< (ab) scat         0.00
                       o<<<<< (ab) sync         0.00
                       o<<<<< Density           0.01
                       o<<<<< Density one       0.01
                       o<<<<< Density two       0.00
                       o<<<<< Density ab        0.00
                       o<<<<< Spin adapt        0.83
                       o<<<<< Symm adapt        0.00

                       o<<<<< (ab) max sync:      0.00


       Final MCSCF results 
       ------------------- 

       Total MCSCF energy =    -76.123039951535
            Gradient norm =      9.8D-05

    CPU time for solution =     10.5s
   Wall time for solution =     17.9s



                        Analysis of MCSCF natural orbitals
                        ----------------------------------

 Vector    1  Occ=1.999989D+00  E=-2.055781D+01  Symmetry=a
              MO Center= -9.1D-02, -8.2D-02, -9.7D-11, r^2= 1.6D-02
   Bfn.  Coefficient  Atom+Function         Bfn.  Coefficient  Atom+Function  
  ----- ------------  ---------------      ----- ------------  ---------------
     1      0.973064  1 O  s          

 Vector    2  Occ=1.998564D+00  E=-1.308837D+00  Symmetry=a
              MO Center= -2.9D-01, -2.1D-01,  9.1D-08, r^2= 4.2D-01
   Bfn.  Coefficient  Atom+Function         Bfn.  Coefficient  Atom+Function  
  ----- ------------  ---------------      ----- ------------  ---------------
     2      0.524507  1 O  s                  4      0.393458  1 O  s          

 Vector    3  Occ=1.980814D+00  E=-6.937653D-01  Symmetry=a
              MO Center= -6.3D-02, -6.8D-02, -3.3D-07, r^2= 6.5D-01
   Bfn.  Coefficient  Atom+Function         Bfn.  Coefficient  Atom+Function  
  ----- ------------  ---------------      ----- ------------  ---------------
    10      0.432154  1 O  pz                13      0.393730  1 O  pz         
     7      0.360824  1 O  pz         

 Vector    4  Occ=1.975444D+00  E=-5.654381D-01  Symmetry=a
              MO Center=  3.4D-01, -1.9D-01,  1.5D-07, r^2= 6.0D-01
   Bfn.  Coefficient  Atom+Function         Bfn.  Coefficient  Atom+Function  
  ----- ------------  ---------------      ----- ------------  ---------------
     8      0.343574  1 O  px                 5      0.286089  1 O  px         
    46      0.264116  3 H  s                 11      0.205836  1 O  px         
    45      0.183820  3 H  s          

 Vector    5  Occ=1.961706D+00  E=-5.191208D-01  Symmetry=a
              MO Center= -4.4D-02,  4.3D-01,  4.4D-08, r^2= 7.3D-01
   Bfn.  Coefficient  Atom+Function         Bfn.  Coefficient  Atom+Function  
  ----- ------------  ---------------      ----- ------------  ---------------
     9      0.339190  1 O  py                 6      0.271828  1 O  py         
    32      0.268009  2 H  s                 12      0.202888  1 O  py         
    31      0.163507  2 H  s          

 Vector    6  Occ=3.951206D-02  E=-3.451556D-02  Symmetry=a
              MO Center= -4.2D-02,  6.3D-01,  6.5D-08, r^2= 7.3D-01
   Bfn.  Coefficient  Atom+Function         Bfn.  Coefficient  Atom+Function  
  ----- ------------  ---------------      ----- ------------  ---------------
    32      0.578526  2 H  s                  9     -0.464851  1 O  py         
     6     -0.461120  1 O  py                31      0.261980  2 H  s          
     2     -0.260311  1 O  s                 33      0.150741  2 H  s          

 Vector    7  Occ=2.528747D-02  E=-2.584296D-02  Symmetry=a
              MO Center=  5.0D-01, -2.5D-01,  1.7D-07, r^2= 6.6D-01
   Bfn.  Coefficient  Atom+Function         Bfn.  Coefficient  Atom+Function  
  ----- ------------  ---------------      ----- ------------  ---------------
    46      0.655582  3 H  s                  5     -0.517218  1 O  px         
     8     -0.433675  1 O  px                45      0.295425  3 H  s          
     2     -0.281300  1 O  s                  4     -0.199577  1 O  s          

 Vector    8  Occ=1.868230D-02  E=-1.576142D-02  Symmetry=a
              MO Center= -4.4D-03, -2.6D-02, -3.5D-07, r^2= 1.2D+00
   Bfn.  Coefficient  Atom+Function         Bfn.  Coefficient  Atom+Function  
  ----- ------------  ---------------      ----- ------------  ---------------
    13      0.807377  1 O  pz                 7     -0.627906  1 O  pz         
    10     -0.320468  1 O  pz         

 Vector    9  Occ=0.000000D+00  E= 3.092364D-01  Symmetry=a
              MO Center=  5.5D-01, -9.1D-03, -1.8D-07, r^2= 4.7D+00
   Bfn.  Coefficient  Atom+Function         Bfn.  Coefficient  Atom+Function  
  ----- ------------  ---------------      ----- ------------  ---------------
     4      1.797363  1 O  s                 47     -1.461129  3 H  s          
    33     -0.840438  2 H  s                 11      0.710709  1 O  px         
    51      0.468487  3 H  px                38      0.257467  2 H  py         
    32      0.236716  2 H  s                 52     -0.191490  3 H  py         
    12      0.180069  1 O  py         

 Vector   10  Occ=0.000000D+00  E= 3.357483D-01  Symmetry=a
              MO Center=  3.1D-01,  7.4D-01,  6.3D-09, r^2= 5.4D+00
   Bfn.  Coefficient  Atom+Function         Bfn.  Coefficient  Atom+Function  
  ----- ------------  ---------------      ----- ------------  ---------------
    33      1.971645  2 H  s                 47     -1.706932  3 H  s          
    32     -0.671230  2 H  s                 12     -0.541900  1 O  py         
    11      0.367924  1 O  px                46      0.315082  3 H  s          
    51      0.256289  3 H  px                38     -0.229744  2 H  py         

 Vector   11  Occ=0.000000D+00  E= 6.102670D-01  Symmetry=a
              MO Center= -9.7D-02,  3.2D-01,  1.2D-07, r^2= 2.0D+00
   Bfn.  Coefficient  Atom+Function         Bfn.  Coefficient  Atom+Function  
  ----- ------------  ---------------      ----- ------------  ---------------
    46      2.513387  3 H  s                  4     -2.280709  1 O  s          
    11     -1.811761  1 O  px                32      0.786616  2 H  s          
    51     -0.697257  3 H  px                37     -0.283668  2 H  px         
    33     -0.238407  2 H  s                 38     -0.213761  2 H  py         
     9      0.172878  1 O  py         

 Vector   12  Occ=0.000000D+00  E= 6.962633D-01  Symmetry=a
              MO Center= -4.9D-02, -4.1D-01,  2.7D-08, r^2= 2.4D+00
   Bfn.  Coefficient  Atom+Function         Bfn.  Coefficient  Atom+Function  
  ----- ------------  ---------------      ----- ------------  ---------------
    12      2.236079  1 O  py                32     -1.526437  2 H  s          
    46      1.253142  3 H  s                 11     -1.095545  1 O  px         
    47      0.741071  3 H  s                 33     -0.644009  2 H  s          
    38      0.591428  2 H  py                51     -0.368005  3 H  px         
    52      0.332133  3 H  py                23     -0.264364  1 O  d  2       

 Vector   13  Occ=0.000000D+00  E= 8.199428D-01  Symmetry=a
              MO Center= -2.4D-01, -7.7D-02,  2.2D-08, r^2= 2.3D+00
   Bfn.  Coefficient  Atom+Function         Bfn.  Coefficient  Atom+Function  
  ----- ------------  ---------------      ----- ------------  ---------------
     4      1.745978  1 O  s                 11      1.666856  1 O  px         
    46     -1.662825  3 H  s                 32     -1.151475  2 H  s          
    12      1.063207  1 O  py                52     -1.000125  3 H  py         
    37     -0.829078  2 H  px                38      0.491067  2 H  py         
    51      0.199740  3 H  px                 2      0.197371  1 O  s          

 Vector   14  Occ=0.000000D+00  E= 8.242882D-01  Symmetry=a
              MO Center=  2.8D-01,  4.4D-01, -8.6D-09, r^2= 1.8D+00
   Bfn.  Coefficient  Atom+Function         Bfn.  Coefficient  Atom+Function  
  ----- ------------  ---------------      ----- ------------  ---------------
    39      0.844282  2 H  pz                53     -0.730409  3 H  pz         

 Vector   15  Occ=0.000000D+00  E= 9.710695D-01  Symmetry=a
              MO Center=  1.7D-01,  3.1D-02,  1.4D-07, r^2= 2.1D+00
   Bfn.  Coefficient  Atom+Function         Bfn.  Coefficient  Atom+Function  
  ----- ------------  ---------------      ----- ------------  ---------------
    13      1.178316  1 O  pz                53     -1.065587  3 H  pz         
    39     -0.820175  2 H  pz         

 Vector   16  Occ=0.000000D+00  E= 1.112062D+00  Symmetry=a
              MO Center=  2.6D-01,  1.6D-01,  1.2D-08, r^2= 2.3D+00
   Bfn.  Coefficient  Atom+Function         Bfn.  Coefficient  Atom+Function  
  ----- ------------  ---------------      ----- ------------  ---------------
    46     -2.013544  3 H  s                  4      1.968728  1 O  s          
    11      1.386566  1 O  px                12     -1.313713  1 O  py         
    51      1.056267  3 H  px                37     -0.983088  2 H  px         
    52      0.688392  3 H  py                32      0.396228  2 H  s          
    47     -0.383177  3 H  s                  8      0.272308  1 O  px         

 Vector   17  Occ=0.000000D+00  E= 1.186696D+00  Symmetry=a
              MO Center= -3.9D-02,  3.5D-01,  1.5D-07, r^2= 1.9D+00
   Bfn.  Coefficient  Atom+Function         Bfn.  Coefficient  Atom+Function  
  ----- ------------  ---------------      ----- ------------  ---------------
     4      4.136482  1 O  s                 46     -2.254661  3 H  s          
    11      1.059111  1 O  px                 2     -1.050730  1 O  s          
    32     -1.021557  2 H  s                 51      1.002537  3 H  px         
    52     -0.890159  3 H  py                 8      0.723513  1 O  px         
    47     -0.723949  3 H  s                 12      0.371750  1 O  py         

 Vector   18  Occ=0.000000D+00  E= 1.249365D+00  Symmetry=a
              MO Center= -2.5D-02,  8.6D-01, -6.6D-08, r^2= 2.2D+00
   Bfn.  Coefficient  Atom+Function         Bfn.  Coefficient  Atom+Function  
  ----- ------------  ---------------      ----- ------------  ---------------
     4      4.839035  1 O  s                 38      2.193596  2 H  py         
    46     -1.986522  3 H  s                 32     -1.634233  2 H  s          
    51      1.252027  3 H  px                12      1.082603  1 O  py         
    33     -0.895631  2 H  s                 11      0.763946  1 O  px         
    52     -0.677996  3 H  py                 8      0.601836  1 O  px         


 Wrote Lagrangian and 1- and 2-particle density matrices to ./H2O.mcpdm


     Multipole analysis of the density
     ---------------------------------

     L   x y z        total        nuclear
     -   - - -        -----        -------
     0   0 0 0     -0.000000     10.000000

     1   1 0 0      0.560798     -0.000000
     1   0 1 0      0.436264     -0.000000
     1   0 0 1      0.000000      0.000000

     2   2 0 0     -4.265222      2.679864
     2   1 1 0     -0.837352     -1.385832
     2   1 0 1      0.000000      0.000000
     2   0 2 0     -3.256479      4.994291
     2   0 1 1      0.000000      0.000000
     2   0 0 2     -5.663704      0.000000


  Mulliken analysis of the total density
  --------------------------------------

    Atom       Charge   Shell Charges
 -----------   ------   -------------------------------------------------------
    1 O    8     8.49   1.95  1.01  0.24  0.62  1.26  2.06  1.34  0.00  0.02  0.00
    2 H    1     0.75   0.19  0.40  0.10  0.01  0.05  0.00
    3 H    1     0.76   0.25  0.38  0.04  0.02  0.06  0.01

    Mulliken analysis of the active space density
    ---------------------------------------------

    Atom       Charge   Shell Charges
 -----------   ------   -------------------------------------------------------
    1 O    8     8.49   1.95  1.01  0.24  0.62  1.26  2.06  1.34  0.00  0.02  0.00
    2 H    1     0.75   0.19  0.40  0.10  0.01  0.05  0.00
    3 H    1     0.76   0.25  0.38  0.04  0.02  0.06  0.01

 Parallel integral file used      16 records with       0 large values


 Task  times  cpu:       10.6s     wall:       18.0s


                                NWChem Input Module
                                -------------------


                                 NWChem SCF Module
                                 -----------------


                                        H2O



  ao basis        = "ao basis"
  functions       =    58
  atoms           =     3
  closed shells   =     5
  open shells     =     0
  charge          =   0.00
  wavefunction    = RHF 
  input vectors   = ./h2o.mos
  output vectors  = ./h2o-trash.mos
  use symmetry    = F
  symmetry adapt  = F


 Summary of "ao basis" -> "ao basis" (spherical)
 ------------------------------------------------------------------------------
       Tag                 Description            Shells   Functions and Types
 ---------------- ------------------------------  ------  ---------------------
 O                          cc-pVTZ                 10       30   4s3p2d1f
 H                          cc-pVTZ                  6       14   3s2p1d



 Forming initial guess at      18.0s


 Loading old vectors from job with title :

H2O


 Starting SCF solution at      18.1s



 ----------------------------------------------
         Quadratically convergent ROHF

 Convergence threshold     :          1.000E-04
 Maximum no. of iterations :           30
 Final Fock-matrix accuracy:          1.000E-07
 ----------------------------------------------


 Integral file          = ./H2O.aoints.0
 Record size in doubles =  65536        No. of integs per rec  =  43688
 Max. records in memory =     49        Max. records in file   = 252499
 No. of bits per label  =      8        No. of bits per value  =     64


 #quartets = 3.213D+04 #integrals = 6.608D+05 #direct =  0.0% #cached =100.0%



       Final RHF  results 
       ------------------ 

         Total SCF energy =    -76.018999398051
      One-electron energy =   -121.439974784995
      Two-electron energy =     37.133746513847
 Nuclear repulsion energy =      8.287228873097

        Time for solution =      0.3s


             Final eigenvalues
             -----------------

              1      
    1  -20.5578
    2   -1.3088
    3   -0.6938
    4   -0.5654
    5   -0.5191
    6   -0.0345
    7   -0.0258
    8   -0.0158
    9    0.3092
   10    0.3357
   11    0.6103
   12    0.6963
   13    0.8199
   14    0.8243
   15    0.9711

                       ROHF Final Molecular Orbital Analysis
                       -------------------------------------

 Vector    2  Occ=2.000000D+00  E=-1.308837D+00
              MO Center= -2.9D-01, -2.1D-01,  9.1D-08, r^2= 4.2D-01
   Bfn.  Coefficient  Atom+Function         Bfn.  Coefficient  Atom+Function  
  ----- ------------  ---------------      ----- ------------  ---------------
     2      0.524507  1 O  s                  4      0.393458  1 O  s          

 Vector    3  Occ=2.000000D+00  E=-6.937653D-01
              MO Center= -6.3D-02, -6.8D-02, -3.3D-07, r^2= 6.5D-01
   Bfn.  Coefficient  Atom+Function         Bfn.  Coefficient  Atom+Function  
  ----- ------------  ---------------      ----- ------------  ---------------
    10      0.432154  1 O  pz                13      0.393730  1 O  pz         
     7      0.360824  1 O  pz         

 Vector    4  Occ=2.000000D+00  E=-5.654381D-01
              MO Center=  3.4D-01, -1.9D-01,  1.5D-07, r^2= 6.0D-01
   Bfn.  Coefficient  Atom+Function         Bfn.  Coefficient  Atom+Function  
  ----- ------------  ---------------      ----- ------------  ---------------
     8      0.343574  1 O  px                 5      0.286089  1 O  px         
    46      0.264116  3 H  s                 11      0.205836  1 O  px         
    45      0.183820  3 H  s          

 Vector    5  Occ=2.000000D+00  E=-5.191208D-01
              MO Center= -4.4D-02,  4.3D-01,  4.4D-08, r^2= 7.3D-01
   Bfn.  Coefficient  Atom+Function         Bfn.  Coefficient  Atom+Function  
  ----- ------------  ---------------      ----- ------------  ---------------
     9      0.339190  1 O  py                 6      0.271828  1 O  py         
    32      0.268009  2 H  s                 12      0.202888  1 O  py         
    31      0.163507  2 H  s          

 Vector    6  Occ=0.000000D+00  E=-3.451556D-02
              MO Center= -4.2D-02,  6.3D-01,  6.5D-08, r^2= 7.3D-01
   Bfn.  Coefficient  Atom+Function         Bfn.  Coefficient  Atom+Function  
  ----- ------------  ---------------      ----- ------------  ---------------
    32      0.578526  2 H  s                  9     -0.464851  1 O  py         
     6     -0.461120  1 O  py                31      0.261980  2 H  s          
     2     -0.260311  1 O  s                 33      0.150741  2 H  s          

 Vector    7  Occ=0.000000D+00  E=-2.584296D-02
              MO Center=  5.0D-01, -2.5D-01,  1.7D-07, r^2= 6.6D-01
   Bfn.  Coefficient  Atom+Function         Bfn.  Coefficient  Atom+Function  
  ----- ------------  ---------------      ----- ------------  ---------------
    46      0.655582  3 H  s                  5     -0.517218  1 O  px         
     8     -0.433675  1 O  px                45      0.295425  3 H  s          
     2     -0.281300  1 O  s                  4     -0.199577  1 O  s          

 Vector    8  Occ=0.000000D+00  E=-1.576142D-02
              MO Center= -4.4D-03, -2.6D-02, -3.5D-07, r^2= 1.2D+00
   Bfn.  Coefficient  Atom+Function         Bfn.  Coefficient  Atom+Function  
  ----- ------------  ---------------      ----- ------------  ---------------
    13      0.807377  1 O  pz                 7     -0.627906  1 O  pz         
    10     -0.320468  1 O  pz         

 Vector    9  Occ=0.000000D+00  E= 3.092364D-01
              MO Center=  5.5D-01, -9.1D-03, -1.8D-07, r^2= 4.7D+00
   Bfn.  Coefficient  Atom+Function         Bfn.  Coefficient  Atom+Function  
  ----- ------------  ---------------      ----- ------------  ---------------
     4      1.797363  1 O  s                 47     -1.461129  3 H  s          
    33     -0.840438  2 H  s                 11      0.710709  1 O  px         
    51      0.468487  3 H  px                38      0.257467  2 H  py         
    32      0.236716  2 H  s                 52     -0.191490  3 H  py         
    12      0.180069  1 O  py         

 Vector   10  Occ=0.000000D+00  E= 3.357483D-01
              MO Center=  3.1D-01,  7.4D-01,  6.3D-09, r^2= 5.4D+00
   Bfn.  Coefficient  Atom+Function         Bfn.  Coefficient  Atom+Function  
  ----- ------------  ---------------      ----- ------------  ---------------
    33      1.971645  2 H  s                 47     -1.706932  3 H  s          
    32     -0.671230  2 H  s                 12     -0.541900  1 O  py         
    11      0.367924  1 O  px                46      0.315082  3 H  s          
    51      0.256289  3 H  px                38     -0.229744  2 H  py         

 Vector   11  Occ=0.000000D+00  E= 6.102670D-01
              MO Center= -9.7D-02,  3.2D-01,  1.2D-07, r^2= 2.0D+00
   Bfn.  Coefficient  Atom+Function         Bfn.  Coefficient  Atom+Function  
  ----- ------------  ---------------      ----- ------------  ---------------
    46      2.513387  3 H  s                  4     -2.280709  1 O  s          
    11     -1.811761  1 O  px                32      0.786616  2 H  s          
    51     -0.697257  3 H  px                37     -0.283668  2 H  px         
    33     -0.238407  2 H  s                 38     -0.213761  2 H  py         
     9      0.172878  1 O  py         

 Vector   12  Occ=0.000000D+00  E= 6.962633D-01
              MO Center= -4.9D-02, -4.1D-01,  2.7D-08, r^2= 2.4D+00
   Bfn.  Coefficient  Atom+Function         Bfn.  Coefficient  Atom+Function  
  ----- ------------  ---------------      ----- ------------  ---------------
    12      2.236079  1 O  py                32     -1.526437  2 H  s          
    46      1.253142  3 H  s                 11     -1.095545  1 O  px         
    47      0.741071  3 H  s                 33     -0.644009  2 H  s          
    38      0.591428  2 H  py                51     -0.368005  3 H  px         
    52      0.332133  3 H  py                23     -0.264364  1 O  d  2       

 Vector   13  Occ=0.000000D+00  E= 8.199428D-01
              MO Center= -2.4D-01, -7.7D-02,  2.2D-08, r^2= 2.3D+00
   Bfn.  Coefficient  Atom+Function         Bfn.  Coefficient  Atom+Function  
  ----- ------------  ---------------      ----- ------------  ---------------
     4      1.745978  1 O  s                 11      1.666856  1 O  px         
    46     -1.662825  3 H  s                 32     -1.151475  2 H  s          
    12      1.063207  1 O  py                52     -1.000125  3 H  py         
    37     -0.829078  2 H  px                38      0.491067  2 H  py         
    51      0.199740  3 H  px                 2      0.197371  1 O  s          

 Vector   14  Occ=0.000000D+00  E= 8.242882D-01
              MO Center=  2.8D-01,  4.4D-01, -8.6D-09, r^2= 1.8D+00
   Bfn.  Coefficient  Atom+Function         Bfn.  Coefficient  Atom+Function  
  ----- ------------  ---------------      ----- ------------  ---------------
    39      0.844282  2 H  pz                53     -0.730409  3 H  pz         

 Vector   15  Occ=0.000000D+00  E= 9.710695D-01
              MO Center=  1.7D-01,  3.1D-02,  1.4D-07, r^2= 2.1D+00
   Bfn.  Coefficient  Atom+Function         Bfn.  Coefficient  Atom+Function  
  ----- ------------  ---------------      ----- ------------  ---------------
    13      1.178316  1 O  pz                53     -1.065587  3 H  pz         
    39     -0.820175  2 H  pz         


 center of mass
 --------------
 x =  -0.07599894 y =  -0.06805039 z =   0.00000000

 moments of inertia (a.u.)
 ------------------
           5.139338791999           1.278330385834           0.000000000000
           1.278330385834           2.833002082974           0.000000000000
           0.000000000000           0.000000000000           7.972340874973

  Mulliken analysis of the total density
  --------------------------------------

    Atom       Charge   Shell Charges
 -----------   ------   -------------------------------------------------------
    1 O    8     8.50   1.95  1.01  0.24  0.62  1.24  2.07  1.35  0.00  0.02  0.00
    2 H    1     0.75   0.19  0.40  0.09  0.01  0.05  0.00
    3 H    1     0.75   0.25  0.38  0.04  0.02  0.06  0.01

       Multipole analysis of the density wrt the origin
       ------------------------------------------------

     L   x y z        total         open         nuclear
     -   - - -        -----         ----         -------
     0   0 0 0     -0.000000      0.000000     10.000000

     1   1 0 0      0.572227      0.000000     -0.000000
     1   0 1 0      0.451417      0.000000     -0.000000
     1   0 0 1      0.000000      0.000000      0.000000

     2   2 0 0     -4.242194      0.000000      2.679864
     2   1 1 0     -0.847237      0.000000     -1.385832
     2   1 0 1      0.000000      0.000000      0.000000
     2   0 2 0     -3.208578      0.000000      4.994291
     2   0 1 1      0.000000      0.000000      0.000000
     2   0 0 2     -5.645817      0.000000      0.000000


 Parallel integral file used      16 records with       0 large values

                   NWChem Extensible Many-Electron Theory Module
                   ---------------------------------------------

              ======================================================
                   This portion of the program was automatically
                  generated by a Tensor Contraction Engine (TCE).
                  The development of this portion of the program
                 and TCE was supported by US Department of Energy,
                Office of Science, Office of Basic Energy Science.
                      TCE is a product of Battelle and PNNL.
              Please cite: S.Hirata, J.Phys.Chem.A 107, 9887 (2003).
              ======================================================

                                        H2O


            General Information
            -------------------
      Number of processors :     1
         Wavefunction type : Restricted Hartree-Fock
          No. of electrons :    10
           Alpha electrons :     5
            Beta electrons :     5
           No. of orbitals :   116
            Alpha orbitals :    58
             Beta orbitals :    58
        Alpha frozen cores :     0
         Beta frozen cores :     0
     Alpha frozen virtuals :     0
      Beta frozen virtuals :     0
         Spin multiplicity : singlet 
    Number of AO functions :    58
       Number of AO shells :    22
        Use of symmetry is : off
      Symmetry adaption is : off
         Schwarz screening : 0.10D-09

          Correlation Information
          -----------------------
          Calculation type : Coupled-cluster singles & doubles                           
   Perturbative correction : none                                                        
            Max iterations :      100
        Residual threshold : 0.10D-06
     T(0) DIIS level shift : 0.00D+00
     L(0) DIIS level shift : 0.00D+00
     T(1) DIIS level shift : 0.00D+00
     L(1) DIIS level shift : 0.00D+00
     T(R) DIIS level shift : 0.00D+00
     T(I) DIIS level shift : 0.00D+00
   CC-T/L Amplitude update :  5-th order DIIS
                I/O scheme : Global Array Library
        L-threshold :  0.10D-06
        EOM-threshold :  0.10D-06
 no EOMCCSD initial starts read in
 TCE RESTART OPTIONS
 READ_INT:   F
 WRITE_INT:  F
 READ_TA:    F
 WRITE_TA:   F
 READ_XA:    F
 WRITE_XA:   F
 READ_IN3:   F
 WRITE_IN3:  F
 SLICE:      F
 D4D5:       F
 quantumc:   F
 qrotation:  F
 pwtce:      F
 qducc:      T
 nacto:                         0
 nrotv:                         0
 nrot:                          0

            Memory Information
            ------------------
          Available GA space size is    1610609372 doubles
          Available MA space size is    1610609780 doubles

 Maximum block size        32 doubles

 tile_dim =     27

 Block   Spin    Irrep     Size     Offset   Alpha
 -------------------------------------------------
   1    alpha     a      5 doubles       0       1
   2    beta      a      5 doubles       5       1
   3    alpha     a     26 doubles      10       3
   4    alpha     a     27 doubles      36       4
   5    beta      a     26 doubles      63       3
   6    beta      a     27 doubles      89       4

 Global array virtual files algorithm will be used

 Parallel file system coherency ......... OK

 Integral file          = ./H2O.aoints.0
 Record size in doubles =  65536        No. of integs per rec  =  43688
 Max. records in memory =     49        Max. records in file   = 252499
 No. of bits per label  =      8        No. of bits per value  =     64


 #quartets = 3.213D+04 #integrals = 6.608D+05 #direct =  0.0% #cached =100.0%


 Fock matrix recomputed
 1-e file size   =             3364
 1-e file name   = ./H2O.f1
 Cpu & wall time / sec            0.3            0.3
 4-electron integrals stored in orbital form

 v2    file size   =          3631290
 4-index algorithm nr.  13 is used
 imaxsize =       30
 imaxsize ichop =        0
 Cpu & wall time / sec            4.0            4.0
 T1-number-of-tasks                    2

 t1 file size   =              265
 t1 file name   = ./H2O.t1
 t1 file handle =       -998
 T2-number-of-boxes                    7

 t2 file size   =           122900
 t2 file name   = ./H2O.t2
 t2 file handle =       -996
CCSD iterations
 ---------------------------------------------------------
 Iter          Residuum       Correlation     Cpu    Wall 
 ---------------------------------------------------------
NEW TASK SCHEDULING
CCSD_T1_NTS --- OK
CCSD_T2_NTS --- OK
    1   1.0807209761611  -0.4528781793230     0.6     0.6
    2   1.9087891586200   0.0313764372300     0.6     0.6
    3   3.5409699207800  -0.8693272517354     0.6     0.6
    4   7.0475652201931   0.7620973373364     0.6     0.6
    5   9.6273319068506  -2.1471749936862     0.6     0.6
 MICROCYCLE DIIS UPDATE:                    5                    5
    6   0.0647515473701  -0.2901680499490     0.6     0.6
    7   0.0822661135538  -0.2782470160153     0.6     0.6
    8   0.1459522403998  -0.3004108594078     0.6     0.6
    9   0.2680770096526  -0.2528272254013     0.6     0.6
   10   0.5269870423556  -0.2795095261943     0.6     0.6
 MICROCYCLE DIIS UPDATE:                   10                    5
   11   0.0056178017235  -0.2885280234351     0.6     0.6
   12   0.0050108798033  -0.2891656285628     0.6     0.7
   13   0.0094546500022  -0.2881092323324     0.7     0.7
   14   0.0194927101392  -0.2901133176512     0.5     0.6
   15   0.0409155035772  -0.2865417360754     0.4     0.4
 MICROCYCLE DIIS UPDATE:                   15                    5
   16   0.0003140154550  -0.2888638955513     0.4     0.4
   17   0.0002610813818  -0.2888280037595     0.4     0.4
   18   0.0004424900965  -0.2888948346936     0.4     0.4
   19   0.0008845908528  -0.2887784934320     0.4     0.4
   20   0.0018422167698  -0.2889921643987     0.4     0.4
 MICROCYCLE DIIS UPDATE:                   20                    5
   21   0.0000315249884  -0.2888532322653     0.4     0.4
   22   0.0000315958627  -0.2888562050990     0.4     0.4
   23   0.0000571558596  -0.2888497848893     0.4     0.4
   24   0.0001162830791  -0.2888620796628     0.4     0.4
   25   0.0002439841171  -0.2888393984154     0.3     0.4
 MICROCYCLE DIIS UPDATE:                   25                    5
   26   0.0000052185837  -0.2888543889570     0.4     0.4
   27   0.0000048301842  -0.2888536253694     0.4     0.4
   28   0.0000085339855  -0.2888549665257     0.4     0.4
   29   0.0000171523922  -0.2888525892063     0.4     0.4
   30   0.0000357419645  -0.2888569240815     0.4     0.4
 MICROCYCLE DIIS UPDATE:                   30                    5
   31   0.0000008178011  -0.2888540921783     0.4     0.4
   32   0.0000008191483  -0.2888541684016     0.4     0.4
   33   0.0000015117704  -0.2888540050811     0.4     0.4
   34   0.0000030927677  -0.2888543142732     0.4     0.4
   35   0.0000065289037  -0.2888537496233     0.4     0.4
 MICROCYCLE DIIS UPDATE:                   35                    5
   36   0.0000001565631  -0.2888541231131     0.4     0.4
   37   0.0000001417590  -0.2888540999586     0.4     0.4
   38   0.0000002460083  -0.2888541397818     0.4     0.5
   39   0.0000004913532  -0.2888540688139     0.4     0.4
   40   0.0000010199798  -0.2888541983882     0.4     0.4
 MICROCYCLE DIIS UPDATE:                   40                    5
   41   0.0000000249192  -0.2888541136465     0.4     0.4
 -----------------------------------------------------------------
 Iterations converged
 CCSD correlation energy / hartree =        -0.288854113646528
 CCSD total energy / hartree       =       -76.307853511697090

 Singles contributions

 Doubles contributions
     6a   (alpha)     7a   (alpha) ---     4a   (alpha)     5a   (alpha)        0.0212287415
     6a   (alpha)     7a   (alpha) ---     5a   (alpha)     4a   (alpha)       -0.0212287415
     6a   (alpha)     8a   (alpha) ---     3a   (alpha)     5a   (alpha)        0.0276798349
     6a   (alpha)     8a   (alpha) ---     5a   (alpha)     3a   (alpha)       -0.0276798349
     7a   (alpha)     6a   (alpha) ---     4a   (alpha)     5a   (alpha)       -0.0212287415
     7a   (alpha)     6a   (alpha) ---     5a   (alpha)     4a   (alpha)        0.0212287415
     7a   (alpha)     8a   (alpha) ---     3a   (alpha)     4a   (alpha)        0.0262148801
     7a   (alpha)     8a   (alpha) ---     4a   (alpha)     3a   (alpha)       -0.0262148801
     8a   (alpha)     6a   (alpha) ---     3a   (alpha)     5a   (alpha)       -0.0276798349
     8a   (alpha)     6a   (alpha) ---     5a   (alpha)     3a   (alpha)        0.0276798349
     8a   (alpha)     7a   (alpha) ---     3a   (alpha)     4a   (alpha)       -0.0262148801
     8a   (alpha)     7a   (alpha) ---     4a   (alpha)     3a   (alpha)        0.0262148801
     6a   (alpha)     6a   (beta ) ---     5a   (alpha)     5a   (beta )       -0.1125539605
     6a   (alpha)     7a   (beta ) ---     5a   (alpha)     4a   (beta )       -0.0326123047
     6a   (alpha)     8a   (beta ) ---     5a   (alpha)     3a   (beta )       -0.0384451527
     7a   (alpha)     6a   (beta ) ---     4a   (alpha)     5a   (beta )       -0.0326123047
     7a   (alpha)     7a   (beta ) ---     4a   (alpha)     4a   (beta )       -0.0797861478
     7a   (alpha)     8a   (beta ) ---     4a   (alpha)     3a   (beta )       -0.0360931124
     8a   (alpha)     6a   (beta ) ---     3a   (alpha)     5a   (beta )       -0.0384451527
     8a   (alpha)     7a   (beta ) ---     3a   (alpha)     4a   (beta )       -0.0360931124
     8a   (alpha)     8a   (beta ) ---     3a   (alpha)     3a   (beta )       -0.0525013483
 Ground state specification:
 exp(T)|Ref>~(1+T)|Ref>
 ------- a(p)+/a(q) strings ----------

 singles norm

 doubles norm

 Reference string
  0.99372535768138603      :(1a)+ (2a)+ (3a)+ (4a)+ (5a)+ (1b)+ (2b)+ (3b)+ (4b)+ (5b)+ |0>

 Singles strings

 Doubles strings
 -0.11184772461253426      :(6a)+ (6b)+ (5b)  (5a)  (1a)+ (2a)+ (3a)+ (4a)+ (5a)+ (1b)+ (2b)+ (3b)+ (4b)+ (5b)+ |0>
 -------------------------------------
 enrep_tce =    8.2872288730970372     
  EHF(total)         =       -76.01899940
  Shift (HFtot-HFA)  =         0.00000000
 ALL OCCUPIED ORBITALS ARE ACTIVE IN DUCC --> NO SHIFT
 Number of active orbitals                    8
 Number of active alpha electrons                    5
 Number of active beta electrons                    5
  nos                    10
  nvs                   106
 noas                     5
 nobs                     5
 nvas                    53
 nvbs                    53
 nactv                     3
 DUCC MODEL =                     3
 NONHF =  T
 F-T1 correlation    =   -6.1545517911465052E-005
 V-T1-T1 correlation =    1.5763235529498114E-005
 V-T2 correlation    =  -0.28880833136419926     
 Total correlation   =  -0.28885411364658120     
 F-T1(Ext) correlation         =   -5.1838091254764650E-005
 V-T1(Ext)-T1(Ext) correlation =    2.2415653892714385E-006
 V-T2(Ext) correlation         =  -0.19322507335694566     
 Total Ext correlation         =  -0.19327466988281117     
1-BODY TIME =    1.292 SECONDS.
  HHHH TIME =    7.047 SECONDS.
  PPPP TIME =    0.000 SECONDS.
  HHHP TIME =    1.999 SECONDS.
  PPPH TIME =    0.332 SECONDS.
  HPHP TIME =    0.162 SECONDS.
  HHPP TIME =    1.008 SECONDS.
 ONE-BODY UNITARY CHECK
 TWO-BODY UNITARY CHECK
 TWO-BODY ANTISYMMETRY CHECK
 TRANSFORMED ~FOCK~ MATRIX
    1    1       -20.4627780662
    1    2        -1.5163594022
    1    3        -0.0000000019
    1    4         0.0192851016
    1    5         0.0089176518
    1    6         0.0023222460
    1    7         0.0024033229
    1    8        -0.0000000100
    2    1        -1.5163594022
    2    2        -1.2718331415
    2    3         0.0000003336
    2    4        -0.2510641572
    2    5        -0.1978604470
    2    6         0.0018999988
    2    7         0.0021459922
    2    8        -0.0000000090
    3    1        -0.0000000019
    3    2         0.0000003336
    3    3        -0.5469709584
    3    4         0.0000002545
    3    5         0.0000001048
    3    6         0.0000000389
    3    7         0.0000000639
    3    8         0.0119335264
    4    1         0.0192851016
    4    2        -0.2510641572
    4    3         0.0000002545
    4    4        -0.7991120662
    4    5        -0.0348020851
    4    6         0.0023813503
    4    7         0.0039226201
    4    8         0.0000000086
    5    1         0.0089176518
    5    2        -0.1978604470
    5    3         0.0000001048
    5    4        -0.0348020851
    5    5        -0.7047017092
    5    6         0.0059549703
    5    7         0.0021210524
    5    8         0.0000000035
    6    1         0.0023222460
    6    2         0.0018999988
    6    3         0.0000000389
    6    4         0.0023813503
    6    5         0.0059549703
    6    6         0.5534174251
    6    7        -0.0047130404
    6    8        -0.0000000273
    7    1         0.0024033229
    7    2         0.0021459922
    7    3         0.0000000639
    7    4         0.0039226201
    7    5         0.0021210524
    7    6        -0.0047130404
    7    7         0.8037998106
    7    8        -0.0000000009
    8    1        -0.0000000100
    8    2        -0.0000000090
    8    3         0.0119335264
    8    4         0.0000000086
    8    5         0.0000000035
    8    6        -0.0000000273
    8    7        -0.0000000009
    8    8         1.1166242230
 begin_one_electron_integrals
    1    1       -32.8567266395
    1    2        -1.3872445459
    1    3        -0.0000002311
    1    4         0.1458600127
    1    5         0.1099035865
    1    6        -0.2019327878
    1    7        -0.2023262471
    1    8         0.0000002710
    2    1        -1.3872445459
    2    2        -7.7844154757
    2    3         0.0000003542
    2    4        -0.2526667940
    2    5        -0.1816581754
    2    6         0.1367418684
    2    7         0.0893868980
    2    8         0.0000000105
    3    1        -0.0000002311
    3    2         0.0000003542
    3    3        -6.9519617775
    3    4         0.0000000672
    3    5         0.0000000900
    3    6        -0.0000002029
    3    7        -0.0000003963
    3    8         2.0934734142
    4    1         0.1458600127
    4    2        -0.2526667940
    4    3         0.0000000672
    4    4        -6.7556185242
    4    5        -0.1184653039
    4    6         0.1014182079
    4    7         1.9637148395
    4    8         0.0000005163
    5    1         0.1099035865
    5    2        -0.1816581754
    5    3         0.0000000900
    5    4        -0.1184653039
    5    5        -6.3552174515
    5    6         2.0072362158
    5    7        -0.0830249111
    5    8         0.0000001730
    6    1        -0.2019327878
    6    2         0.1367418684
    6    3        -0.0000002029
    6    4         0.1014182079
    6    5         2.0072362158
    6    6        -6.0017829480
    6    7         0.0546264345
    6    8         0.0000002411
    7    1        -0.2023262471
    7    2         0.0893868980
    7    3        -0.0000003963
    7    4         1.9637148395
    7    5        -0.0830249111
    7    6         0.0546264345
    7    7        -6.1122039420
    7    8         0.0000004945
    8    1         0.0000002710
    8    2         0.0000000105
    8    3         2.0934734142
    8    4         0.0000005163
    8    5         0.0000001730
    8    6         0.0000002411
    8    7         0.0000004945
    8    8        -5.4403663094
 end_one_electron_integrals
 begin_two_electron_integrals
    1    1    1    1        4.8247801690
    1    1    1    2       -0.1537954545
    1    1    1    3        0.0000001733
    1    1    1    4       -0.0932389192
    1    1    1    5       -0.0734605751
    1    1    1    6        0.1585000154
    1    1    1    7        0.1660157326
    1    1    1    8       -0.0000002398
    1    2    1    1       -0.1537954545
    1    2    1    2        0.0193404130
    1    2    1    3       -0.0000000028
    1    2    1    4        0.0011155490
    1    2    1    5        0.0007120129
    1    2    1    6       -0.0053912440
    1    2    1    7       -0.0048914987
    1    2    1    8        0.0000000069
    1    3    1    1        0.0000001733
    1    3    1    2       -0.0000000028
    1    3    1    3        0.0243230300
    1    3    1    4       -0.0000000009
    1    3    1    5       -0.0000000031
    1    3    1    6        0.0000000087
    1    3    1    7        0.0000000109
    1    3    1    8       -0.0374562741
    1    4    1    1       -0.0932389192
    1    4    1    2        0.0011155490
    1    4    1    3       -0.0000000009
    1    4    1    4        0.0193998353
    1    4    1    5        0.0026088585
    1    4    1    6       -0.0052609955
    1    4    1    7       -0.0329557817
    1    4    1    8       -0.0000000034
    1    5    1    1       -0.0734605751
    1    5    1    2        0.0007120129
    1    5    1    3       -0.0000000031
    1    5    1    4        0.0026088585
    1    5    1    5        0.0169141332
    1    5    1    6       -0.0279940617
    1    5    1    7       -0.0021649106
    1    5    1    8        0.0000000022
    1    6    1    1        0.1585000154
    1    6    1    2       -0.0053912440
    1    6    1    3        0.0000000087
    1    6    1    4       -0.0052609955
    1    6    1    5       -0.0279940617
    1    6    1    6        0.0457388174
    1    6    1    7        0.0054230318
    1    6    1    8       -0.0000000110
    1    7    1    1        0.1660157326
    1    7    1    2       -0.0048914987
    1    7    1    3        0.0000000109
    1    7    1    4       -0.0329557817
    1    7    1    5       -0.0021649106
    1    7    1    6        0.0054230318
    1    7    1    7        0.0543164486
    1    7    1    8       -0.0000000127
    1    8    1    1       -0.0000002398
    1    8    1    2        0.0000000069
    1    8    1    3       -0.0374562741
    1    8    1    4       -0.0000000034
    1    8    1    5        0.0000000022
    1    8    1    6       -0.0000000110
    1    8    1    7       -0.0000000127
    1    8    1    8        0.0529301223
    1    1    2    1       -0.1537954545
    1    1    2    2        1.0631628081
    1    1    2    3        0.0000000015
    1    1    2    4       -0.0075894590
    1    1    2    5       -0.0084706598
    1    1    2    6       -0.0289858680
    1    1    2    7       -0.0179400208
    1    1    2    8        0.0000000034
    1    2    2    1        0.0222336071
    1    2    2    2        0.0163487435
    1    2    2    3        0.0000000051
    1    2    2    4       -0.0030456347
    1    2    2    5       -0.0025196405
    1    2    2    6        0.0027753674
    1    2    2    7        0.0034594517
    1    2    2    8       -0.0000000056
    1    3    2    1       -0.0000000025
    1    3    2    2        0.0000000231
    1    3    2    3        0.0221996327
    1    3    2    4        0.0000000053
    1    3    2    5        0.0000000022
    1    3    2    6       -0.0000000034
    1    3    2    7       -0.0000000015
    1    3    2    8       -0.0197679016
    1    4    2    1        0.0009295636
    1    4    2    2       -0.0129644357
    1    4    2    3        0.0000000064
    1    4    2    4        0.0145306818
    1    4    2    5       -0.0003623505
    1    4    2    6        0.0017490016
    1    4    2    7       -0.0151491937
    1    4    2    8       -0.0000000079
    1    5    2    1        0.0006090587
    1    5    2    2       -0.0104188776
    1    5    2    3        0.0000000028
    1    5    2    4       -0.0003192031
    1    5    2    5        0.0133466506
    1    5    2    6       -0.0144060253
    1    5    2    7        0.0028957535
    1    5    2    8       -0.0000000040
    1    6    2    1       -0.0053986826
    1    6    2    2        0.0186173068
    1    6    2    3       -0.0000000038
    1    6    2    4        0.0013936296
    1    6    2    5       -0.0228086446
    1    6    2    6        0.0219719499
    1    6    2    7       -0.0050133300
    1    6    2    8        0.0000000038
    1    7    2    1       -0.0048580473
    1    7    2    2        0.0207752594
    1    7    2    3       -0.0000000022
    1    7    2    4       -0.0260907679
    1    7    2    5        0.0037748678
    1    7    2    6       -0.0055382800
    1    7    2    7        0.0240643379
    1    7    2    8        0.0000000030
    1    8    2    1        0.0000000068
    1    8    2    2       -0.0000000303
    1    8    2    3       -0.0364800988
    1    8    2    4       -0.0000000132
    1    8    2    5       -0.0000000063
    1    8    2    6        0.0000000055
    1    8    2    7        0.0000000034
    1    8    2    8        0.0264293128
    1    1    3    1        0.0000001733
    1    1    3    2        0.0000000015
    1    1    3    3        1.0265313358
    1    1    3    4        0.0000000580
    1    1    3    5        0.0000000046
    1    1    3    6        0.0000000571
    1    1    3    7        0.0000001082
    1    1    3    8       -0.5065792570
    1    2    3    1       -0.0000000025
    1    2    3    2        0.0000000052
    1    2    3    3        0.0122859275
    1    2    3    4        0.0000000039
    1    2    3    5        0.0000000022
    1    2    3    6       -0.0000000030
    1    2    3    7       -0.0000000024
    1    2    3    8       -0.0084127169
    1    3    3    1        0.0266307500
    1    3    3    2        0.0216651663
    1    3    3    3       -0.0000000125
    1    3    3    4        0.0048743774
    1    3    3    5        0.0040072034
    1    3    3    6       -0.0066634858
    1    3    3    7       -0.0068009089
    1    3    3    8        0.0000000095
    1    4    3    1        0.0000000002
    1    4    3    2        0.0000000062
    1    4    3    3       -0.0028635993
    1    4    3    4       -0.0000000072
    1    4    3    5        0.0000000009
    1    4    3    6       -0.0000000022
    1    4    3    7        0.0000000038
    1    4    3    8        0.0028280026
    1    5    3    1       -0.0000000026
    1    5    3    2        0.0000000027
    1    5    3    3       -0.0022087329
    1    5    3    5       -0.0000000058
    1    5    3    6        0.0000000050
    1    5    3    7       -0.0000000018
    1    5    3    8        0.0019820264
    1    6    3    1        0.0000000091
    1    6    3    2       -0.0000000031
    1    6    3    3        0.0040161735
    1    6    3    4       -0.0000000006
    1    6    3    5        0.0000000097
    1    6    3    6       -0.0000000076
    1    6    3    7        0.0000000025
    1    6    3    8       -0.0046258348
    1    7    3    1        0.0000000117
    1    7    3    2       -0.0000000014
    1    7    3    3        0.0033711047
    1    7    3    4        0.0000000155
    1    7    3    5       -0.0000000016
    1    7    3    6        0.0000000019
    1    7    3    7       -0.0000000070
    1    7    3    8       -0.0046533641
    1    8    3    1       -0.0376568999
    1    8    3    2       -0.0359375944
    1    8    3    3        0.0000000240
    1    8    3    4       -0.0074809761
    1    8    3    5       -0.0062562235
    1    8    3    6        0.0087160455
    1    8    3    7        0.0088246005
    1    8    3    8       -0.0000000130
    1    1    4    1       -0.0932389192
    1    1    4    2       -0.0075894590
    1    1    4    3        0.0000000580
    1    1    4    4        0.9001421494
    1    1    4    5        0.0209008581
    1    1    4    6       -0.0263631696
    1    1    4    7       -0.4635894500
    1    1    4    8       -0.0000001112
    1    2    4    1        0.0009295636
    1    2    4    2       -0.0030548758
    1    2    4    3        0.0000000039
    1    2    4    4        0.0083207647
    1    2    4    5       -0.0007063600
    1    2    4    6        0.0016827185
    1    2    4    7       -0.0054787289
    1    2    4    8       -0.0000000050
    1    3    4    1        0.0000000002
    1    3    4    2        0.0000000052
    1    3    4    3        0.0048923201
    1    3    4    4        0.0000000038
    1    3    4    5        0.0000000013
    1    3    4    6       -0.0000000024
    1    3    4    7       -0.0000000063
    1    3    4    8       -0.0032071011
    1    4    4    1        0.0207253219
    1    4    4    2        0.0141356564
    1    4    4    3       -0.0000000072
    1    4    4    4        0.0067936059
    1    4    4    5        0.0025684783
    1    4    4    6       -0.0040811821
    1    4    4    7       -0.0052203227
    1    4    4    8        0.0000000055
    1    5    4    1        0.0026862096
    1    5    4    2       -0.0002321504
    1    5    4    4       -0.0016314908
    1    5    4    5        0.0030631822
    1    5    4    6       -0.0029523828
    1    5    4    7        0.0019116728
    1    6    4    1       -0.0051828054
    1    6    4    2        0.0013519143
    1    6    4    3       -0.0000000004
    1    6    4    4        0.0040686730
    1    6    4    5       -0.0044370694
    1    6    4    6        0.0042180135
    1    6    4    7       -0.0040726792
    1    6    4    8       -0.0000000007
    1    7    4    1       -0.0326243513
    1    7    4    2       -0.0256404539
    1    7    4    3        0.0000000151
    1    7    4    4       -0.0152101924
    1    7    4    5       -0.0032713290
    1    7    4    6        0.0052104256
    1    7    4    7        0.0050018072
    1    7    4    8       -0.0000000083
    1    8    4    1       -0.0000000037
    1    8    4    2       -0.0000000130
    1    8    4    3       -0.0075587599
    1    8    4    4       -0.0000000037
    1    8    4    5       -0.0000000035
    1    8    4    6        0.0000000039
    1    8    4    7        0.0000000079
    1    8    4    8        0.0036060537
    1    1    5    1       -0.0734605751
    1    1    5    2       -0.0084706598
    1    1    5    3        0.0000000046
    1    1    5    4        0.0209008581
    1    1    5    5        0.8385493136
    1    1    5    6       -0.4507675700
    1    1    5    7        0.0162678002
    1    1    5    8       -0.0000000295
    1    2    5    1        0.0006090587
    1    2    5    2       -0.0025425707
    1    2    5    3        0.0000000022
    1    2    5    4       -0.0007114067
    1    2    5    5        0.0079131015
    1    2    5    6       -0.0056401764
    1    2    5    7        0.0021648745
    1    2    5    8       -0.0000000031
    1    3    5    1       -0.0000000026
    1    3    5    2        0.0000000021
    1    3    5    3        0.0040243419
    1    3    5    4        0.0000000013
    1    3    5    5        0.0000000034
    1    3    5    6       -0.0000000049
    1    3    5    7       -0.0000000006
    1    3    5    8       -0.0026896695
    1    4    5    1        0.0026862096
    1    4    5    2       -0.0002761306
    1    4    5    3        0.0000000008
    1    4    5    4        0.0025874058
    1    4    5    5       -0.0018030848
    1    4    5    6        0.0019450502
    1    4    5    7       -0.0026373250
    1    4    5    8       -0.0000000007
    1    5    5    1        0.0180131302
    1    5    5    2        0.0129069098
    1    5    5    3       -0.0000000058
    1    5    5    4        0.0030386159
    1    5    5    5        0.0050488841
    1    5    5    6       -0.0049443555
    1    5    5    7       -0.0038312046
    1    5    5    8        0.0000000048
    1    6    5    1       -0.0274636184
    1    6    5    2       -0.0222834074
    1    6    5    3        0.0000000097
    1    6    5    4       -0.0044699671
    1    6    5    5       -0.0102814721
    1    6    5    6        0.0037897873
    1    6    5    7        0.0053754701
    1    6    5    8       -0.0000000066
    1    7    5    1       -0.0021397079
    1    7    5    2        0.0037222698
    1    7    5    3       -0.0000000014
    1    7    5    4       -0.0032349953
    1    7    5    5        0.0042242549
    1    7    5    6       -0.0037285749
    1    7    5    7        0.0035043343
    1    7    5    8        0.0000000003
    1    8    5    1        0.0000000021
    1    8    5    2       -0.0000000061
    1    8    5    3       -0.0063036105
    1    8    5    4       -0.0000000036
    1    8    5    5       -0.0000000035
    1    8    5    6        0.0000000048
    1    8    5    7        0.0000000011
    1    8    5    8        0.0029751730
    1    1    6    1        0.1585000154
    1    1    6    2       -0.0289858680
    1    1    6    3        0.0000000571
    1    1    6    4       -0.0263631696
    1    1    6    5       -0.4507675700
    1    1    6    6        0.9968507519
    1    1    6    7       -0.0104956064
    1    1    6    8       -0.0000000528
    1    2    6    1       -0.0053986826
    1    2    6    2        0.0019698217
    1    2    6    3       -0.0000000026
    1    2    6    4        0.0012880155
    1    2    6    5       -0.0051020745
    1    2    6    6        0.0083156177
    1    2    6    7       -0.0032168617
    1    2    6    8        0.0000000034
    1    3    6    1        0.0000000091
    1    3    6    2       -0.0000000025
    1    3    6    3       -0.0062722444
    1    3    6    4       -0.0000000018
    1    3    6    5       -0.0000000046
    1    3    6    6        0.0000000065
    1    3    6    7       -0.0000000002
    1    3    6    8        0.0067648605
    1    4    6    1       -0.0051828054
    1    4    6    2        0.0013560318
    1    4    6    3       -0.0000000020
    1    4    6    4       -0.0039943724
    1    4    6    5        0.0023212968
    1    4    6    6       -0.0034952880
    1    4    6    7        0.0055283521
    1    4    6    8        0.0000000025
    1    5    6    1       -0.0274636184
    1    5    6    2       -0.0120067525
    1    5    6    3        0.0000000045
    1    5    6    4       -0.0025267563
    1    5    6    5       -0.0045541941
    1    5    6    6        0.0071841828
    1    5    6    7        0.0048110962
    1    5    6    8       -0.0000000061
    1    6    6    1        0.0450095536
    1    6    6    2        0.0214616172
    1    6    6    3       -0.0000000078
    1    6    6    4        0.0043826903
    1    6    6    5        0.0033472456
    1    6    6    6       -0.0122241444
    1    6    6    7       -0.0069827739
    1    6    6    8        0.0000000095
    1    7    6    1        0.0052438266
    1    7    6    2       -0.0053944147
    1    7    6    3        0.0000000019
    1    7    6    4        0.0053458515
    1    7    6    5       -0.0039388519
    1    7    6    6        0.0080458742
    1    7    6    7       -0.0079756414
    1    7    6    8       -0.0000000026
    1    8    6    1       -0.0000000109
    1    8    6    2        0.0000000053
    1    8    6    3        0.0090108080
    1    8    6    4        0.0000000040
    1    8    6    5        0.0000000056
    1    8    6    6       -0.0000000080
    1    8    6    7       -0.0000000019
    1    8    6    8       -0.0101537353
    1    1    7    1        0.1660157326
    1    1    7    2       -0.0179400208
    1    1    7    3        0.0000001082
    1    1    7    4       -0.4635894500
    1    1    7    5        0.0162678002
    1    1    7    6       -0.0104956064
    1    1    7    7        1.0750148885
    1    1    7    8       -0.0000000887
    1    2    7    1       -0.0048580473
    1    2    7    2        0.0025879412
    1    2    7    3       -0.0000000021
    1    2    7    4       -0.0052334109
    1    2    7    5        0.0017867246
    1    2    7    6       -0.0032267460
    1    2    7    7        0.0085560218
    1    2    7    8        0.0000000029
    1    3    7    1        0.0000000117
    1    3    7    2       -0.0000000007
[...]
    8    1    3    8       -0.0000000126
    8    2    3    1       -0.0197679016
    8    2    3    2       -0.0512760855
    8    2    3    3        0.0000000247
    8    2    3    4       -0.0051590558
    8    2    3    5       -0.0042105417
    8    2    3    6        0.0118754946
    8    2    3    7        0.0114465349
    8    2    3    8       -0.0000000269
    8    3    3    1        0.0000000095
    8    3    3    2        0.0000000192
    8    3    3    3       -0.2006738858
    8    3    3    4       -0.0000000224
    8    3    3    5       -0.0000000039
    8    3    3    6       -0.0000000243
    8    3    3    7       -0.0000000426
    8    3    3    8        0.1593594830
    8    4    3    1       -0.0032071011
    8    4    3    2       -0.0002578051
    8    4    3    3       -0.0000000502
    8    4    3    4       -0.0053874125
    8    4    3    5       -0.0003862168
    8    4    3    6        0.0022903978
    8    4    3    7        0.0168316381
    8    4    3    8        0.0000000250
    8    5    3    1       -0.0026896695
    8    5    3    2        0.0006356821
    8    5    3    3       -0.0000000176
    8    5    3    4       -0.0002386316
    8    5    3    5       -0.0043116271
    8    5    3    6        0.0148737314
    8    5    3    7        0.0007875693
    8    5    3    8        0.0000000022
    8    6    3    1        0.0067648605
    8    6    3    2        0.0245336960
    8    6    3    3       -0.0000000468
    8    6    3    4        0.0061825982
    8    6    3    5        0.0246211741
    8    6    3    6       -0.0181689616
    8    6    3    7       -0.0023555169
    8    6    3    8        0.0000000138
    8    7    3    1        0.0070589901
    8    7    3    2        0.0246960381
    8    7    3    3       -0.0000000712
    8    7    3    4        0.0283589574
    8    7    3    5        0.0036309243
    8    7    3    6       -0.0025958393
    8    7    3    7       -0.0178111609
    8    7    3    8        0.0000000234
    8    8    3    1       -0.0000000122
    8    8    3    2       -0.0000000834
    8    8    3    3        0.6485927774
    8    8    3    4        0.0000000051
    8    8    3    5       -0.0000000149
    8    8    3    6        0.0000000306
    8    8    3    7        0.0000000491
    8    8    3    8       -0.1821891095
    8    1    4    1       -0.0000000034
    8    1    4    2       -0.0000000132
    8    1    4    3       -0.0074809761
    8    1    4    4       -0.0000000037
    8    1    4    5       -0.0000000036
    8    1    4    6        0.0000000040
    8    1    4    7        0.0000000092
    8    1    4    8        0.0038314032
    8    2    4    1       -0.0000000079
    8    2    4    2       -0.0000000175
    8    2    4    3       -0.0047449407
    8    2    4    4       -0.0000000010
    8    2    4    5       -0.0000000015
    8    2    4    6        0.0000000064
    8    2    4    7        0.0000000011
    8    2    4    8        0.0039958089
    8    3    4    1        0.0028280026
    8    3    4    2        0.0044433828
    8    3    4    3       -0.0000000210
    8    3    4    4       -0.1423790915
    8    3    4    5       -0.0040065480
    8    3    4    6        0.0062881244
    8    3    4    7        0.1197566400
    8    3    4    8        0.0000000250
    8    4    4    1        0.0000000055
    8    4    4    2        0.0000000028
    8    4    4    3       -0.0047500336
    8    4    4    4       -0.0000000514
    8    4    4    5        0.0000000013
    8    4    4    6       -0.0000000022
    8    4    4    7        0.0000000028
    8    4    4    8        0.0167498130
    8    5    4    1       -0.0000000007
    8    5    4    2        0.0000000025
    8    5    4    3       -0.0002571188
    8    5    4    4       -0.0000000101
    8    5    4    5        0.0000000016
    8    5    4    6        0.0000000023
    8    5    4    7        0.0000000091
    8    5    4    8        0.0016223035
    8    6    4    1        0.0000000025
    8    6    4    2        0.0000000114
    8    6    4    3        0.0063592291
    8    6    4    4       -0.0000000212
    8    6    4    5        0.0000000027
    8    6    4    6       -0.0000000010
    8    6    4    7        0.0000000059
    8    6    4    8       -0.0005316491
    8    7    4    1       -0.0000000052
    8    7    4    2       -0.0000000185
    8    7    4    3        0.0277232759
    8    7    4    4       -0.0000000735
    8    7    4    5        0.0000000019
    8    7    4    6        0.0000000018
    8    7    4    7       -0.0000000071
    8    7    4    8       -0.0064471566
    8    8    4    1       -0.0045501627
    8    8    4    2        0.0067976564
    8    8    4    3        0.0000000051
    8    8    4    4        0.5629844334
    8    8    4    5        0.0093590507
    8    8    4    6       -0.0084490290
    8    8    4    7       -0.1527890872
    8    8    4    8       -0.0000000483
    8    1    5    1        0.0000000022
    8    1    5    2       -0.0000000063
    8    1    5    3       -0.0062562235
    8    1    5    4       -0.0000000035
    8    1    5    5       -0.0000000035
    8    1    5    6        0.0000000056
    8    1    5    7        0.0000000011
    8    1    5    8        0.0031550292
    8    2    5    1       -0.0000000040
    8    2    5    2       -0.0000000110
    8    2    5    3       -0.0038841430
    8    2    5    4       -0.0000000015
    8    2    5    5       -0.0000000020
    8    2    5    6        0.0000000006
    8    2    5    7        0.0000000041
    8    2    5    8        0.0037275638
    8    3    5    1        0.0019820264
    8    3    5    2        0.0038689493
    8    3    5    3       -0.0000000027
    8    3    5    4       -0.0040574919
    8    3    5    5       -0.1291073524
    8    3    5    6        0.1162666302
    8    3    5    7       -0.0046861914
    8    3    5    8        0.0000000022
    8    4    5    2        0.0000000030
    8    4    5    3       -0.0004064307
    8    4    5    4        0.0000000015
    8    4    5    5       -0.0000000294
    8    4    5    6        0.0000000273
    8    4    5    7        0.0000000005
    8    4    5    8        0.0016223035
    8    5    5    1        0.0000000048
    8    5    5    2        0.0000000046
    8    5    5    3       -0.0036039238
    8    5    5    4        0.0000000015
    8    5    5    5       -0.0000000177
    8    5    5    6       -0.0000000034
    8    5    5    7       -0.0000000027
    8    5    5    8        0.0164334289
    8    6    5    1       -0.0000000061
    8    6    5    2       -0.0000000125
    8    6    5    3        0.0238706894
    8    6    5    4        0.0000000026
    8    6    5    5       -0.0000000348
    8    6    5    6        0.0000000076
    8    6    5    7        0.0000000054
    8    6    5    8       -0.0057949770
    8    7    5    1        0.0000000019
    8    7    5    2        0.0000000119
    8    7    5    3        0.0038569156
    8    7    5    4        0.0000000020
    8    7    5    5       -0.0000000283
    8    7    5    6        0.0000000199
    8    7    5    7        0.0000000021
    8    7    5    8        0.0003339503
    8    8    5    1       -0.0033144244
    8    8    5    2        0.0050483200
    8    8    5    3       -0.0000000149
    8    8    5    4        0.0093590507
    8    8    5    5        0.5364873615
    8    8    5    6       -0.1576440660
    8    8    5    7        0.0061367282
    8    8    5    8       -0.0000000184
    8    1    6    1       -0.0000000110
    8    1    6    2        0.0000000055
    8    1    6    3        0.0087160455
    8    1    6    4        0.0000000039
    8    1    6    5        0.0000000048
    8    1    6    6       -0.0000000080
    8    1    6    7       -0.0000000019
    8    1    6    8       -0.0102915959
    8    2    6    1        0.0000000038
    8    2    6    2        0.0000000120
    8    2    6    3        0.0121941868
    8    2    6    4        0.0000000062
    8    2    6    5        0.0000000064
    8    2    6    6       -0.0000000006
    8    2    6    7       -0.0000000035
    8    2    6    8       -0.0083296758
    8    3    6    1       -0.0046258348
    8    3    6    2        0.0121875392
    8    3    6    3       -0.0000000281
    8    3    6    4        0.0053911148
    8    3    6    5        0.1122673557
    8    3    6    6       -0.1605680635
    8    3    6    7        0.0039172179
    8    3    6    8        0.0000000138
    8    4    6    1       -0.0000000007
    8    4    6    2        0.0000000052
    8    4    6    3        0.0019781259
    8    4    6    4       -0.0000000036
    8    4    6    5        0.0000000256
    8    4    6    6       -0.0000000354
    8    4    6    7        0.0000000027
    8    4    6    8       -0.0005316491
    8    5    6    1       -0.0000000066
    8    5    6    2       -0.0000000020
    8    5    6    3        0.0151628393
    8    5    6    4        0.0000000029
    8    5    6    5       -0.0000000061
    8    5    6    6       -0.0000000161
    8    5    6    7        0.0000000055
    8    5    6    8       -0.0057949770
    8    6    6    1        0.0000000095
    8    6    6    2        0.0000000116
    8    6    6    3       -0.0182913046
    8    6    6    4       -0.0000000012
    8    6    6    5        0.0000000084
    8    6    6    6       -0.0000000382
    8    6    6    7       -0.0000000039
    8    6    6    8        0.0265982617
    8    7    6    1       -0.0000000032
    8    7    6    2       -0.0000000067
    8    7    6    3       -0.0028145946
    8    7    6    4        0.0000000019
    8    7    6    5        0.0000000203
    8    7    6    6       -0.0000000295
    8    7    6    7       -0.0000000054
    8    7    6    8        0.0057513465
    8    8    6    1        0.0066458512
    8    8    6    2       -0.0149217558
    8    8    6    3        0.0000000306
    8    8    6    4       -0.0084490290
    8    8    6    5       -0.1576440660
    8    8    6    6        0.5588746183
    8    8    6    7       -0.0018640203
    8    8    6    8       -0.0000000439
    8    1    7    1       -0.0000000127
    8    1    7    2        0.0000000034
    8    1    7    3        0.0088246005
    8    1    7    4        0.0000000079
    8    1    7    5        0.0000000011
    8    1    7    6       -0.0000000019
    8    1    7    7       -0.0000000076
    8    1    7    8       -0.0106319195
    8    2    7    1        0.0000000030
    8    2    7    2        0.0000000050
    8    2    7    3        0.0118202289
    8    2    7    4        0.0000000075
    8    2    7    5        0.0000000033
    8    2    7    6       -0.0000000037
    8    2    7    7       -0.0000000010
    8    2    7    8       -0.0080251355
    8    3    7    1       -0.0046533641
    8    3    7    2        0.0095185004
    8    3    7    3       -0.0000000489
    8    3    7    4        0.1144107616
    8    3    7    5       -0.0052294146
    8    3    7    6        0.0040152683
    8    3    7    7       -0.1727749684
    8    3    7    8        0.0000000234
    8    4    7    1       -0.0000000083
    8    4    7    2       -0.0000000021
    8    4    7    3        0.0170184825
    8    4    7    4        0.0000000004
    8    4    7    5        0.0000000006
    8    4    7    6        0.0000000025
    8    4    7    7       -0.0000000598
    8    4    7    8       -0.0064471566
    8    5    7    1        0.0000000003
    8    5    7    2        0.0000000039
    8    5    7    3        0.0005052630
    8    5    7    4        0.0000000078
    8    5    7    5       -0.0000000038
    8    5    7    6        0.0000000059
    8    5    7    7       -0.0000000114
    8    5    7    8        0.0003339503
    8    6    7    1       -0.0000000026
    8    6    7    2       -0.0000000047
    8    6    7    3       -0.0025231496
    8    6    7    4        0.0000000059
    8    6    7    5        0.0000000058
    8    6    7    6       -0.0000000039
    8    6    7    7       -0.0000000232
    8    6    7    8        0.0057513465
    8    7    7    1        0.0000000118
    8    7    7    2        0.0000000114
    8    7    7    3       -0.0179651208
    8    7    7    4       -0.0000000063
    8    7    7    5        0.0000000019
    8    7    7    6       -0.0000000054
    8    7    7    7       -0.0000000890
    8    7    7    8        0.0301204919
    8    8    7    1        0.0065190706
    8    8    7    2       -0.0102941534
    8    8    7    3        0.0000000491
    8    8    7    4       -0.1527890872
    8    8    7    5        0.0061367282
    8    8    7    6       -0.0018640203
    8    8    7    7        0.5850983456
    8    8    7    8       -0.0000000603
    8    1    8    1        0.0529301223
    8    1    8    2        0.0264293128
    8    1    8    3       -0.0000000130
    8    1    8    4        0.0036060537
    8    1    8    5        0.0029751730
    8    1    8    6       -0.0101537353
    8    1    8    7       -0.0104883657
    8    1    8    8        0.0000000225
    8    2    8    1        0.0264293128
    8    2    8    2        0.0503822165
    8    2    8    3       -0.0000000168
    8    2    8    4        0.0037484455
    8    2    8    5        0.0034556791
    8    2    8    6       -0.0090409777
    8    2    8    7       -0.0087360879
    8    2    8    8        0.0000000238
    8    3    8    1       -0.0000000130
    8    3    8    2       -0.0000000168
    8    3    8    3        0.1531378136
    8    3    8    4        0.0000000239
    8    3    8    5        0.0000000021
    8    3    8    6        0.0000000139
    8    3    8    7        0.0000000241
    8    3    8    8       -0.1821891095
    8    4    8    1        0.0036060537
    8    4    8    2        0.0037484455
    8    4    8    3        0.0000000239
    8    4    8    4        0.0162430674
    8    4    8    5        0.0015333512
    8    4    8    6       -0.0004846205
    8    4    8    7       -0.0066683647
    8    4    8    8       -0.0000000483
    8    5    8    1        0.0029751730
    8    5    8    2        0.0034556791
    8    5    8    3        0.0000000021
    8    5    8    4        0.0015333512
    8    5    8    5        0.0170424688
    8    5    8    6       -0.0059944870
    8    5    8    7        0.0003845998
    8    5    8    8       -0.0000000184
    8    6    8    1       -0.0101537353
    8    6    8    2       -0.0090409777
    8    6    8    3        0.0000000139
    8    6    8    4       -0.0004846205
    8    6    8    5       -0.0059944870
    8    6    8    6        0.0265982617
    8    6    8    7        0.0057513465
    8    6    8    8       -0.0000000439
    8    7    8    1       -0.0104883657
    8    7    8    2       -0.0087360879
    8    7    8    3        0.0000000241
    8    7    8    4       -0.0066683647
    8    7    8    5        0.0003845998
    8    7    8    6        0.0057513465
    8    7    8    7        0.0301204919
    8    7    8    8       -0.0000000603
    8    8    8    1        0.0000000225
    8    8    8    2        0.0000000238
    8    8    8    3       -0.1821891095
    8    8    8    4       -0.0000000483
    8    8    8    5       -0.0000000184
    8    8    8    6       -0.0000000439
    8    8    8    7       -0.0000000603
    8    8    8    8        0.6075985257
 end_two_electron_integrals

 Parallel integral file used      16 records with       0 large values


 Task  times  cpu:       62.2s     wall:       66.3s


                                NWChem Input Module
                                -------------------


 Summary of allocated global arrays
-----------------------------------
  No active global arrays


MA_summarize_allocated_blocks: starting scan ...
MA_summarize_allocated_blocks: scan completed: 0 heap blocks, 0 stack blocks
MA usage statistics:

	allocation statistics:
					      heap	     stack
					      ----	     -----
	current number of blocks	         0	         0
	maximum number of blocks	        18	        42
	current total bytes		         0	         0
	maximum total bytes		  25775928	4725685688
	maximum total K-bytes		     25776	   4725686
	maximum total M-bytes		        26	      4726


                                     CITATION
                                     --------
                Please cite the following reference when publishing
                           results obtained with NWChem:

          E. Apra, E. J. Bylaska, W. A. de Jong, N. Govind, K. Kowalski,
       T. P. Straatsma, M. Valiev, H. J. J. van Dam, Y. Alexeev, J. Anchell,
       V. Anisimov, F. W. Aquino, R. Atta-Fynn, J. Autschbach, N. P. Bauman,
     J. C. Becca, D. E. Bernholdt, K. Bhaskaran-Nair, S. Bogatko, P. Borowski,
         J. Boschen, J. Brabec, A. Bruner, E. Cauet, Y. Chen, G. N. Chuev,
      C. J. Cramer, J. Daily, M. J. O. Deegan, T. H. Dunning Jr., M. Dupuis,
   K. G. Dyall, G. I. Fann, S. A. Fischer, A. Fonari, H. Fruchtl, L. Gagliardi,
      J. Garza, N. Gawande, S. Ghosh, K. Glaesemann, A. W. Gotz, J. Hammond,
       V. Helms, E. D. Hermes, K. Hirao, S. Hirata, M. Jacquelin, L. Jensen,
   B. G. Johnson, H. Jonsson, R. A. Kendall, M. Klemm, R. Kobayashi, V. Konkov,
      S. Krishnamoorthy, M. Krishnan, Z. Lin, R. D. Lins, R. J. Littlefield,
      A. J. Logsdail, K. Lopata, W. Ma, A. V. Marenich, J. Martin del Campo,
   D. Mejia-Rodriguez, J. E. Moore, J. M. Mullin, T. Nakajima, D. R. Nascimento,
    J. A. Nichols, P. J. Nichols, J. Nieplocha, A. Otero-de-la-Roza, B. Palmer,
    A. Panyala, T. Pirojsirikul, B. Peng, R. Peverati, J. Pittner, L. Pollack,
   R. M. Richard, P. Sadayappan, G. C. Schatz, W. A. Shelton, D. W. Silverstein,
   D. M. A. Smith, T. A. Soares, D. Song, M. Swart, H. L. Taylor, G. S. Thomas,
            V. Tipparaju, D. G. Truhlar, K. Tsemekhman, T. Van Voorhis,
      A. Vazquez-Mayagoitia, P. Verma, O. Villa, A. Vishnu, K. D. Vogiatzis,
        D. Wang, J. H. Weare, M. J. Williamson, T. L. Windus, K. Wolinski,
        A. T. Wong, Q. Wu, C. Yang, Q. Yu, M. Zacharias, Z. Zhang, Y. Zhao,
                                and R. J. Harrison
                        "NWChem: Past, present, and future
                         J. Chem. Phys. 152, 184102 (2020)
                               doi:10.1063/5.0004997

                                      AUTHORS
                                      -------
  E. Apra, E. J. Bylaska, N. Govind, K. Kowalski, M. Valiev, D. Mejia-Rodriguez,
       A. Kunitsa, N. P. Bauman, A. Panyala, W. A. de Jong, T. P. Straatsma,
        H. J. J. van Dam, D. Wang, T. L. Windus, J. Hammond, J. Autschbach,
    K. Bhaskaran-Nair, J. Brabec, K. Lopata, S. A. Fischer, S. Krishnamoorthy,
     M. Jacquelin, W. Ma, M. Klemm, O. Villa, Y. Chen, V. Anisimov, F. Aquino,
    S. Hirata, M. T. Hackler, Eric Hermes, L. Jensen, J. E. Moore, J. C. Becca,
      V. Konjkov, T. Risthaus, M. Malagoli, A. Marenich, A. Otero-de-la-Roza,
        J. Mullin, P. Nichols, R. Peverati, J. Pittner, Y. Zhao, P.-D. Fan,
        A. Fonari, M. J. Williamson, R. J. Harrison, J. R. Rehr, M. Dupuis,
     D. Silverstein, D. M. A. Smith, J. Nieplocha, V. Tipparaju, M. Krishnan,
     B. E. Van Kuiken, A. Vazquez-Mayagoitia, M. Swart, Q. Wu, T. Van Voorhis,
     A. A. Auer, M. Nooijen, L. D. Crosby, E. Brown, G. Cisneros, G. I. Fann,
   H. Fruchtl, J. Garza, K. Hirao, R. A. Kendall, J. A. Nichols, K. Tsemekhman,
    K. Wolinski, J. Anchell, D. E. Bernholdt, P. Borowski, T. Clark, D. Clerc,
   H. Dachsel, M. J. O. Deegan, K. Dyall, D. Elwood, E. Glendening, M. Gutowski,
   A. C. Hess, J. Jaffe, B. G. Johnson, J. Ju, R. Kobayashi, R. Kutteh, Z. Lin,
   R. Littlefield, X. Long, B. Meng, T. Nakajima, S. Niu, L. Pollack, M. Rosing,
   K. Glaesemann, G. Sandrone, M. Stave, H. Taylor, G. Thomas, J. H. van Lenthe,
                               A. T. Wong, Z. Zhang.

 Total times  cpu:       72.8s     wall:       84.3s
