 argument  1 = input.nw
  NWChem w/ OpenMP: maximum threads =    1



============================== echo of input deck ==============================
 echo
 start H2O
 title "H2O"

 memory total 24 gb

 geometry units bohr
 symmetry c1
        O  0.00000000  0.00000000  0.00000000
        H  0.00000000  2.3043125  0.00000000
        H  1.72558000 -0.64860000  0.00000000
 end

 basis spherical
   * library cc-pVTZ
 end

 mcscf
   active  8
   actelec 10
   multiplicity 1
   maxiter 40
   vectors input h2o.mos
   vectors output h2o.mos
 end

 task mcscf

 scf
   vectors input h2o.mos
   vectors output h2o-trash.mos
   noscf
 end

 tce
   2eorb
   2emet 13
   ccsd
 end

# set tce:print_integrals T
# set tce:qorb
# set tce:qela
# set tce:qelb

 set tce:qducc T
 set tce:nactv 3
 set tce:nonhf T
 set tce:ducc_model 3

 set tce:printtol 0.02

 task tce
================================================================================


                                         
                                         


             Northwest Computational Chemistry Package (NWChem) 7.0.1
             --------------------------------------------------------


                    Environmental Molecular Sciences Laboratory
                       Pacific Northwest National Laboratory
                                Richland, WA 99352

                              Copyright (c) 1994-2020
                       Pacific Northwest National Laboratory
                            Battelle Memorial Institute

             NWChem is an open-source computational chemistry package
                        distributed under the terms of the
                      Educational Community License (ECL) 2.0
             A copy of the license is included with this distribution
                              in the LICENSE.TXT file

                                  ACKNOWLEDGMENT
                                  --------------

            This software and its documentation were developed at the
            EMSL at Pacific Northwest National Laboratory, a multiprogram
            national laboratory, operated for the U.S. Department of Energy
            by Battelle under Contract Number DE-AC05-76RL01830. Support
            for this work was provided by the Department of Energy Office
            of Biological and Environmental Research, Office of Basic
            Energy Sciences, and the Office of Advanced Scientific Computing.


           Job information
           ---------------

    hostname        = WE46210
    program         = /home/baum612/code/nwchem/bin/LINUX64/nwchem
    date            = Mon Nov  6 10:15:21 2023

    compiled        = Mon_Nov_06_10:06:57_2023
    source          = /home/baum612/code/nwchem
    nwchem branch   = 7.0.0
    nwchem revision = nwchem_on_git-4191-g39d87d64de
    ga revision     = 5.8.1
    use scalapack   = F
    input           = input.nw
    prefix          = H2O.
    data base       = ./H2O.db
    status          = startup
    nproc           =        1
    time left       =     -1s



           Memory information
           ------------------

    heap     =  805306366 doubles =   6144.0 Mbytes
    stack    =  805306363 doubles =   6144.0 Mbytes
    global   = 1610612736 doubles =  12288.0 Mbytes (distinct from heap & stack)
    total    = 3221225465 doubles =  24576.0 Mbytes
    verify   = yes
    hardfail = no 


           Directory information
           ---------------------

  0 permanent = .
  0 scratch   = .




                                NWChem Input Module
                                -------------------


                                        H2O
                                        ---
 Turning off AUTOSYM since
 SYMMETRY directive was detected!


          ------
          auto-z
          ------
  no constraints, skipping    0.0000000000000000     
  no constraints, skipping    0.0000000000000000     


                             Geometry "geometry" -> ""
                             -------------------------

 Output coordinates in a.u. (scale by  1.000000000 to convert to a.u.)

  No.       Tag          Charge          X              Y              Z
 ---- ---------------- ---------- -------------- -------------- --------------
    1 O                    8.0000    -0.17255800    -0.16557125     0.00000000
    2 H                    1.0000    -0.17255800     2.13874125     0.00000000
    3 H                    1.0000     1.55302200    -0.81417125     0.00000000

      Atomic Mass 
      ----------- 

      O                 15.994910
      H                  1.007825


 Effective nuclear repulsion energy (a.u.)       8.1038264339

            Nuclear Dipole moment (a.u.) 
            ----------------------------
        X                 Y               Z
 ---------------- ---------------- ----------------
    -0.0000000000     0.0000000000     0.0000000000



                                Z-matrix (autoz)
                                -------- 

 Units are Angstrom for bonds and degrees for angles

      Type          Name      I     J     K     L     M      Value
      ----------- --------  ----- ----- ----- ----- ----- ----------
    1 Stretch                  1     2                       1.21939
    2 Stretch                  1     3                       0.97551
    3 Bend                     2     1     3               110.59992


            XYZ format geometry
            -------------------
     3
 geometry
 O                    -0.09131377    -0.08761654     0.00000000
 H                    -0.09131377     1.13177321     0.00000000
 H                     0.82182391    -0.43084090     0.00000000

 ==============================================================================
                                internuclear distances
 ------------------------------------------------------------------------------
       center one      |      center two      | atomic units |       a.u.
 ------------------------------------------------------------------------------
    3 H                |   1 O                |     1.84345  |     1.84345
 ------------------------------------------------------------------------------
                         number of included internuclear distances:          1
 ==============================================================================





 Summary of "ao basis" -> "" (spherical)
 ------------------------------------------------------------------------------
       Tag                 Description            Shells   Functions and Types
 ---------------- ------------------------------  ------  ---------------------
 *                          cc-pVTZ                   on all atoms 


                      Basis "ao basis" -> "ao basis" (spherical)
                      -----
  O (Oxygen)
  ----------
            Exponent  Coefficients 
       -------------- ---------------------------------------------------------
  1 S  1.53300000E+04  0.000508
  1 S  2.29900000E+03  0.003929
  1 S  5.22400000E+02  0.020243
  1 S  1.47300000E+02  0.079181
  1 S  4.75500000E+01  0.230687
  1 S  1.67600000E+01  0.433118
  1 S  6.20700000E+00  0.350260
  1 S  6.88200000E-01 -0.008154

  2 S  1.53300000E+04 -0.000115
  2 S  2.29900000E+03 -0.000895
  2 S  5.22400000E+02 -0.004636
  2 S  1.47300000E+02 -0.018724
  2 S  4.75500000E+01 -0.058463
  2 S  1.67600000E+01 -0.136463
  2 S  6.20700000E+00 -0.175740
  2 S  6.88200000E-01  0.603418

  3 S  1.75200000E+00  1.000000

  4 S  2.38400000E-01  1.000000

  5 P  3.44600000E+01  0.015928
  5 P  7.74900000E+00  0.099740
  5 P  2.28000000E+00  0.310492

  6 P  7.15600000E-01  1.000000

  7 P  2.14000000E-01  1.000000

  8 D  2.31400000E+00  1.000000

  9 D  6.45000000E-01  1.000000

 10 F  1.42800000E+00  1.000000

  H (Hydrogen)
  ------------
            Exponent  Coefficients 
       -------------- ---------------------------------------------------------
  1 S  3.38700000E+01  0.006068
  1 S  5.09500000E+00  0.045308
  1 S  1.15900000E+00  0.202822

  2 S  3.25800000E-01  1.000000

  3 S  1.02700000E-01  1.000000

  4 P  1.40700000E+00  1.000000

  5 P  3.88000000E-01  1.000000

  6 D  1.05700000E+00  1.000000



 Summary of "ao basis" -> "ao basis" (spherical)
 ------------------------------------------------------------------------------
       Tag                 Description            Shells   Functions and Types
 ---------------- ------------------------------  ------  ---------------------
 O                          cc-pVTZ                 10       30   4s3p2d1f
 H                          cc-pVTZ                  6       14   3s2p1d



                            NWChem Direct MCSCF Module
                            --------------------------


                                        H2O


     -----------------------------------
       Basis functions:             58
       Inactive shells:              0
       Active shells:                8
       Active electrons:            10
       Symmetry:                    a       
       Multiplicity:                 1
       Orbital rotations:          400
     -----------------------------------

     -----------------------------------
       E2 extrapolation:             F
       Conjugacy:                    T
       Micro CI relax:               T
       Canonical orbitals:           T
       Maximum iterations:          40
       Converge threshold:    1.00E-04
       Conjugacy resets:            20
       Initial levelshift:        0.10
     -----------------------------------

 Loading old vectors from job with title :

H2O


   input molecular orbitals = ./h2o.mos
  output molecular orbtials = ./h2o.mos

       No. of determinants:          3136


  Starting Orbital Energies
   -20.558294    -1.307422    -0.691801    -0.564355    -0.518746    -0.034875
    -0.025845    -0.015753     0.309048     0.335419     0.609881     0.697618
     0.820686     0.823353     0.970938     1.109362     1.184088     1.247001
     1.408308     1.924338     2.050630     2.080618     2.161080     2.308858
     2.616885     2.816237     3.341365     3.451075     3.462373     3.497821
     3.562543     3.693714     3.826406     3.876540     3.892321     4.002083
     4.076448     4.140159     4.230741     4.277676     4.511597     4.605746
     4.943836     5.127762     5.516809     5.832399     6.075702     6.321362
     6.760398     6.884271     6.977641     7.005791     7.095686     7.138845
     7.341168     7.553006     7.762950    11.412465

  Orbital Symmetry Irreps
a    a    a    a    a    a    a    a    a    a    a    a    a    a    a   
a    a    a    a    a    a    a    a    a    a    a    a    a    a    a   
a    a    a    a    a    a    a    a    a    a    a    a    a    a    a   
a    a    a    a    a    a    a    a    a    a    a    a    a   

 Integral file          = ./H2O.aoints.0
 Record size in doubles =  65536        No. of integs per rec  =  43688
 Max. records in memory =     49        Max. records in file   = 280405
 No. of bits per label  =      8        No. of bits per value  =     64


 #quartets = 3.213D+04 #integrals = 6.608D+05 #direct =  0.0% #cached =100.0%




          %%%%% MacroIteration   1 %%%%%


          Number of sigma calls:       16
                       o<<<<< (aa):             0.00
                       o<<<<< (bb):             0.00
                       o<<<<< (ab):             0.06
                       o<<<<< (total)           0.07
                       o<<<<< (aa) ff           0.00
                       o<<<<< (aa) gop          0.00
                       o<<<<< (aa) dot          0.00
                       o<<<<< (ab) str          0.00
                       o<<<<< (ab) gath         0.00
                       o<<<<< (ab) dotab        0.00
                       o<<<<< (ab) scat         0.00
                       o<<<<< (ab) sync         0.00
                       o<<<<< Density           0.01
                       o<<<<< Density one       0.00
                       o<<<<< Density two       0.00
                       o<<<<< Density ab        0.00
                       o<<<<< Spin adapt        0.35
                       o<<<<< Symm adapt        0.00

                       o<<<<< (ab) max sync:      0.00

           >>>| Valence CI:            -84.214283746247
           >>>| MCSCF energy:          -76.110457312316
           >>>| Gradient norm:          0.708430089D-01

                              ----- Line search ------

        step       energy         lsg     num-lsg   num-lsh   lsrat    time
      ------- ---------------- --------- --------- --------- ------- --------
       0.0000     -76.11045731 -5.94D-04  0.00D+00  0.00D+00 0.0D+00      1.1

          Number of sigma calls:       17
                       o<<<<< (aa):             0.00
                       o<<<<< (bb):             0.00
                       o<<<<< (ab):             0.06
                       o<<<<< (total)           0.06
                       o<<<<< (aa) ff           0.00
                       o<<<<< (aa) gop          0.00
                       o<<<<< (aa) dot          0.00
                       o<<<<< (ab) str          0.00
                       o<<<<< (ab) gath         0.00
                       o<<<<< (ab) dotab        0.00
                       o<<<<< (ab) scat         0.00
                       o<<<<< (ab) sync         0.00
                       o<<<<< Density           0.01
                       o<<<<< Density one       0.00
                       o<<<<< Density two       0.00
                       o<<<<< Density ab        0.01
                       o<<<<< Spin adapt        0.36
                       o<<<<< Symm adapt        0.00

                       o<<<<< (ab) max sync:      0.00
       1.0000     -76.11077225 -3.59D-05 -3.59D-05  5.58D-04 6.0D-02      1.6
     --- Orbitals canonicalized ---



          %%%%% MacroIteration   2 %%%%%


          Number of sigma calls:       13
                       o<<<<< (aa):             0.00
                       o<<<<< (bb):             0.00
                       o<<<<< (ab):             0.05
                       o<<<<< (total)           0.05
                       o<<<<< (aa) ff           0.00
                       o<<<<< (aa) gop          0.00
                       o<<<<< (aa) dot          0.00
                       o<<<<< (ab) str          0.00
                       o<<<<< (ab) gath         0.00
                       o<<<<< (ab) dotab        0.00
                       o<<<<< (ab) scat         0.00
                       o<<<<< (ab) sync         0.00
                       o<<<<< Density           0.01
                       o<<<<< Density one       0.00
                       o<<<<< Density two       0.00
                       o<<<<< Density ab        0.01
                       o<<<<< Spin adapt        0.31
                       o<<<<< Symm adapt        0.00

                       o<<<<< (ab) max sync:      0.00

           >>>| Valence CI:            -84.214598681964
           >>>| MCSCF energy:          -76.110772248032
           >>>| Gradient norm:          0.675375291D-02
     --- Warning:    3 Hessian diagonals < 0.05 ---
     --- Conjugacy reset ---

                              ----- Line search ------

        step       energy         lsg     num-lsg   num-lsh   lsrat    time
      ------- ---------------- --------- --------- --------- ------- --------
       0.0000     -76.11077225 -1.18D-05  0.00D+00  0.00D+00 0.0D+00      2.2

          Number of sigma calls:       13
                       o<<<<< (aa):             0.00
                       o<<<<< (bb):             0.00
                       o<<<<< (ab):             0.05
                       o<<<<< (total)           0.06
                       o<<<<< (aa) ff           0.00
                       o<<<<< (aa) gop          0.00
                       o<<<<< (aa) dot          0.00
                       o<<<<< (ab) str          0.00
                       o<<<<< (ab) gath         0.00
                       o<<<<< (ab) dotab        0.00
                       o<<<<< (ab) scat         0.00
                       o<<<<< (ab) sync         0.00
                       o<<<<< Density           0.00
                       o<<<<< Density one       0.00
                       o<<<<< Density two       0.00
                       o<<<<< Density ab        0.00
                       o<<<<< Spin adapt        0.29
                       o<<<<< Symm adapt        0.00

                       o<<<<< (ab) max sync:      0.00
       1.0000     -76.11078029 -4.24D-06 -4.24D-06  7.60D-06 3.6D-01      2.6

          Number of sigma calls:       12
                       o<<<<< (aa):             0.00
                       o<<<<< (bb):             0.00
                       o<<<<< (ab):             0.03
                       o<<<<< (total)           0.04
                       o<<<<< (aa) ff           0.00
                       o<<<<< (aa) gop          0.00
                       o<<<<< (aa) dot          0.00
                       o<<<<< (ab) str          0.00
                       o<<<<< (ab) gath         0.00
                       o<<<<< (ab) dotab        0.00
                       o<<<<< (ab) scat         0.00
                       o<<<<< (ab) sync         0.00
                       o<<<<< Density           0.00
                       o<<<<< Density one       0.00
                       o<<<<< Density two       0.00
                       o<<<<< Density ab        0.00
                       o<<<<< Spin adapt        0.17
                       o<<<<< Symm adapt        0.00

                       o<<<<< (ab) max sync:      0.00
       1.5571     -76.11078146  4.49D-08  4.22D-08  7.68D-06 3.8D-03      2.9



          %%%%% MacroIteration   3 %%%%%


          Number of sigma calls:        1
                       o<<<<< (aa):             0.00
                       o<<<<< (bb):             0.00
                       o<<<<< (ab):             0.00
                       o<<<<< (total)           0.00
                       o<<<<< (aa) ff           0.00
                       o<<<<< (aa) gop          0.00
                       o<<<<< (aa) dot          0.00
                       o<<<<< (ab) str          0.00
                       o<<<<< (ab) gath         0.00
                       o<<<<< (ab) dotab        0.00
                       o<<<<< (ab) scat         0.00
                       o<<<<< (ab) sync         0.00
                       o<<<<< Density           0.01
                       o<<<<< Density one       0.00
                       o<<<<< Density two       0.00
                       o<<<<< Density ab        0.01
                       o<<<<< Spin adapt        0.00
                       o<<<<< Symm adapt        0.00

                       o<<<<< (ab) max sync:      0.00

           >>>| Valence CI:            -84.214607896750
           >>>| MCSCF energy:          -76.110781462819
           >>>| Gradient norm:          0.101008126D-02
     --- Warning:    3 Hessian diagonals < 0.05 ---

                              ----- Line search ------

        step       energy         lsg     num-lsg   num-lsh   lsrat    time
      ------- ---------------- --------- --------- --------- ------- --------
       0.0000     -76.11078146 -3.16D-07  0.00D+00  0.00D+00 0.0D+00      3.1

          Number of sigma calls:       11
                       o<<<<< (aa):             0.00
                       o<<<<< (bb):             0.00
                       o<<<<< (ab):             0.04
                       o<<<<< (total)           0.05
                       o<<<<< (aa) ff           0.00
                       o<<<<< (aa) gop          0.00
                       o<<<<< (aa) dot          0.00
                       o<<<<< (ab) str          0.00
                       o<<<<< (ab) gath         0.00
                       o<<<<< (ab) dotab        0.00
                       o<<<<< (ab) scat         0.00
                       o<<<<< (ab) sync         0.00
                       o<<<<< Density           0.00
                       o<<<<< Density one       0.00
                       o<<<<< Density two       0.00
                       o<<<<< Density ab        0.00
                       o<<<<< Spin adapt        0.21
                       o<<<<< Symm adapt        0.00

                       o<<<<< (ab) max sync:      0.00
       1.0000     -76.11078164 -4.29D-08 -4.29D-08  2.73D-07 1.4D-01      3.4

          Number of sigma calls:        9
                       o<<<<< (aa):             0.00
                       o<<<<< (bb):             0.00
                       o<<<<< (ab):             0.03
                       o<<<<< (total)           0.03
                       o<<<<< (aa) ff           0.00
                       o<<<<< (aa) gop          0.00
                       o<<<<< (aa) dot          0.00
                       o<<<<< (ab) str          0.00
                       o<<<<< (ab) gath         0.00
                       o<<<<< (ab) dotab        0.00
                       o<<<<< (ab) scat         0.00
                       o<<<<< (ab) sync         0.00
                       o<<<<< Density           0.00
                       o<<<<< Density one       0.00
                       o<<<<< Density two       0.00
                       o<<<<< Density ab        0.00
                       o<<<<< Spin adapt        0.17
                       o<<<<< Symm adapt        0.00

                       o<<<<< (ab) max sync:      0.00
       1.1575     -76.11078165  1.51D-11  1.92D-11  2.73D-07 4.8D-05      3.7



          %%%%% MacroIteration   4 %%%%%


          Number of sigma calls:        1
                       o<<<<< (aa):             0.00
                       o<<<<< (bb):             0.00
                       o<<<<< (ab):             0.00
                       o<<<<< (total)           0.00
                       o<<<<< (aa) ff           0.00
                       o<<<<< (aa) gop          0.00
                       o<<<<< (aa) dot          0.00
                       o<<<<< (ab) str          0.00
                       o<<<<< (ab) gath         0.00
                       o<<<<< (ab) dotab        0.00
                       o<<<<< (ab) scat         0.00
                       o<<<<< (ab) sync         0.00
                       o<<<<< Density           0.01
                       o<<<<< Density one       0.00
                       o<<<<< Density two       0.00
                       o<<<<< Density ab        0.01
                       o<<<<< Spin adapt        0.00
                       o<<<<< Symm adapt        0.00

                       o<<<<< (ab) max sync:      0.00

           >>>| Valence CI:            -84.214608079353
           >>>| MCSCF energy:          -76.110781645422
           >>>| Gradient norm:          0.173862288D-03
     --- Warning:    3 Hessian diagonals < 0.05 ---

                              ----- Line search ------

        step       energy         lsg     num-lsg   num-lsh   lsrat    time
      ------- ---------------- --------- --------- --------- ------- --------
       0.0000     -76.11078165 -1.20D-08  0.00D+00  0.00D+00 0.0D+00      3.8

          Number of sigma calls:       10
                       o<<<<< (aa):             0.00
                       o<<<<< (bb):             0.00
                       o<<<<< (ab):             0.03
                       o<<<<< (total)           0.03
                       o<<<<< (aa) ff           0.00
                       o<<<<< (aa) gop          0.00
                       o<<<<< (aa) dot          0.00
                       o<<<<< (ab) str          0.00
                       o<<<<< (ab) gath         0.00
                       o<<<<< (ab) dotab        0.00
                       o<<<<< (ab) scat         0.00
                       o<<<<< (ab) sync         0.00
                       o<<<<< Density           0.01
                       o<<<<< Density one       0.00
                       o<<<<< Density two       0.00
                       o<<<<< Density ab        0.01
                       o<<<<< Spin adapt        0.21
                       o<<<<< Symm adapt        0.00

                       o<<<<< (ab) max sync:      0.00
       1.0000     -76.11078165 -4.20D-09 -4.20D-09  7.75D-09 3.5D-01      4.2

          Number of sigma calls:        9
                       o<<<<< (aa):             0.00
                       o<<<<< (bb):             0.00
                       o<<<<< (ab):             0.03
                       o<<<<< (total)           0.03
                       o<<<<< (aa) ff           0.00
                       o<<<<< (aa) gop          0.00
                       o<<<<< (aa) dot          0.00
                       o<<<<< (ab) str          0.00
                       o<<<<< (ab) gath         0.00
                       o<<<<< (ab) dotab        0.00
                       o<<<<< (ab) scat         0.00
                       o<<<<< (ab) sync         0.00
                       o<<<<< Density           0.00
                       o<<<<< Density one       0.00
                       o<<<<< Density two       0.00
                       o<<<<< Density ab        0.00
                       o<<<<< Spin adapt        0.14
                       o<<<<< Symm adapt        0.00

                       o<<<<< (ab) max sync:      0.00
       1.5422     -76.11078165  5.11D-13  9.62D-13  7.75D-09 4.3D-05      4.4



          %%%%% MacroIteration   5 %%%%%


          Number of sigma calls:        1
                       o<<<<< (aa):             0.00
                       o<<<<< (bb):             0.00
                       o<<<<< (ab):             0.00
                       o<<<<< (total)           0.00
                       o<<<<< (aa) ff           0.00
                       o<<<<< (aa) gop          0.00
                       o<<<<< (aa) dot          0.00
                       o<<<<< (ab) str          0.00
                       o<<<<< (ab) gath         0.00
                       o<<<<< (ab) dotab        0.00
                       o<<<<< (ab) scat         0.00
                       o<<<<< (ab) sync         0.00
                       o<<<<< Density           0.01
                       o<<<<< Density one       0.00
                       o<<<<< Density two       0.00
                       o<<<<< Density ab        0.01
                       o<<<<< Spin adapt        0.00
                       o<<<<< Symm adapt        0.00

                       o<<<<< (ab) max sync:      0.00

           >>>| Valence CI:            -84.214608088573
           >>>| MCSCF energy:          -76.110781654641
           >>>| Gradient norm:          0.490434581D-04




     ==============================
            MCSCF Converged
     ==============================



          Canonical Eigenvalues

              1      
    1  -20.5615
    2   -1.3023
    3   -0.6835
    4   -0.5592
    5   -0.5184
    6   -0.0377
    7   -0.0259
    8   -0.0156
    9    0.3116
   10    0.3360
   11    0.6088
   12    0.7095
   13    0.8184
   14    0.8247
   15    0.9697
   16    1.0962
   17    1.1660
   18    1.2492
   19    1.4104
   20    1.9031
   21    2.0508
   22    2.0685
   23    2.1658
   24    2.3167
   25    2.6392
   26    2.8038
   27    3.3385
   28    3.4409
   29    3.4543
   30    3.4830
   31    3.5667
   32    3.6523
   33    3.7594
   34    3.8726
   35    3.8820
   36    3.9994
   37    4.0729
   38    4.0940
   39    4.2016
   40    4.2505
   41    4.4932
   42    4.5787
   43    4.9273
   44    5.0978
   45    5.4962
   46    5.8081
   47    6.0148
   48    6.2143
   49    6.7253
   50    6.8799
   51    6.9691
   52    6.9890
   53    7.0935
   54    7.1299
   55    7.2490
   56    7.5558
   57    7.7050
   58   11.2416


          Converged CI vector

   Index           Coefficient          Config. Occupation
         1          0.96740453          1  2  3  4  5  1  2  3  4  5
        22         -0.07474692          1  2  3  4  5  1  2  3  4  8
         3         -0.05262590          1  2  3  4  5  1  2  3  5  6
         8         -0.02592294          1  2  3  4  5  1  2  3  5  7
        27          0.02107712          1  2  3  4  5  1  2  3  6  8
         4         -0.02905610          1  2  3  4  5  1  2  4  5  6
         9          0.03953028          1  2  3  4  5  1  2  4  5  7
        38         -0.02206092          1  2  3  4  5  1  2  4  7  8
      1177         -0.07474692          1  2  3  4  8  1  2  3  4  5
      1198         -0.05161407          1  2  3  4  8  1  2  3  4  8
      1179         -0.02761072          1  2  3  4  8  1  2  3  5  6
      1180         -0.02129784          1  2  3  4  8  1  2  4  5  6
      1185          0.02931543          1  2  3  4  8  1  2  4  5  7
       113         -0.05262590          1  2  3  5  6  1  2  3  4  5
       134         -0.02761072          1  2  3  5  6  1  2  3  4  8
       115         -0.07791051          1  2  3  5  6  1  2  3  5  6
       116         -0.05158016          1  2  3  5  6  1  2  4  5  6
       117         -0.02108492          1  2  3  5  6  1  3  4  5  6
       393         -0.02592294          1  2  3  5  7  1  2  3  4  5
       400         -0.02020752          1  2  3  5  7  1  2  3  5  7
       401          0.02562543          1  2  3  5  7  1  2  4  5  7
      1457          0.02107712          1  2  3  6  8  1  2  3  4  5
       169         -0.02905610          1  2  4  5  6  1  2  3  4  5
       190         -0.02129784          1  2  4  5  6  1  2  3  4  8
       171         -0.05158016          1  2  4  5  6  1  2  3  5  6
       172         -0.04877864          1  2  4  5  6  1  2  4  5  6
       173         -0.02084497          1  2  4  5  6  1  3  4  5  6
       449          0.03953028          1  2  4  5  7  1  2  3  4  5
       470          0.02931543          1  2  4  5  7  1  2  3  4  8
       456          0.02562543          1  2  4  5  7  1  2  3  5  7
       457         -0.05433953          1  2  4  5  7  1  2  4  5  7
       458          0.02514217          1  2  4  5  7  1  3  4  5  7
      2073         -0.02206092          1  2  4  7  8  1  2  3  4  5
       227         -0.02108492          1  3  4  5  6  1  2  3  5  6
       228         -0.02084497          1  3  4  5  6  1  2  4  5  6
       229         -0.02296906          1  3  4  5  6  1  3  4  5  6
       513          0.02514217          1  3  4  5  7  1  2  4  5  7
       514         -0.02440408          1  3  4  5  7  1  3  4  5  7

          Number of sigma calls:        1
                       o<<<<< (aa):             0.00
                       o<<<<< (bb):             0.00
                       o<<<<< (ab):             0.00
                       o<<<<< (total)           0.00
                       o<<<<< (aa) ff           0.00
                       o<<<<< (aa) gop          0.00
                       o<<<<< (aa) dot          0.00
                       o<<<<< (ab) str          0.00
                       o<<<<< (ab) gath         0.00
                       o<<<<< (ab) dotab        0.00
                       o<<<<< (ab) scat         0.00
                       o<<<<< (ab) sync         0.00
                       o<<<<< Density           0.01
                       o<<<<< Density one       0.00
                       o<<<<< Density two       0.00
                       o<<<<< Density ab        0.01
                       o<<<<< Spin adapt        0.00
                       o<<<<< Symm adapt        0.00

                       o<<<<< (ab) max sync:      0.00



          Natural orbital occupation numbers

              1      
    1    2.0000
    2    1.9984
    3    1.9805
    4    1.9751
    5    1.9546
    6    0.0468
    7    0.0257
    8    0.0189


          Number of sigma calls:       16
                       o<<<<< (aa):             0.00
                       o<<<<< (bb):             0.00
                       o<<<<< (ab):             0.06
                       o<<<<< (total)           0.06
                       o<<<<< (aa) ff           0.00
                       o<<<<< (aa) gop          0.00
                       o<<<<< (aa) dot          0.00
                       o<<<<< (ab) str          0.00
                       o<<<<< (ab) gath         0.00
                       o<<<<< (ab) dotab        0.00
                       o<<<<< (ab) scat         0.00
                       o<<<<< (ab) sync         0.00
                       o<<<<< Density           0.01
                       o<<<<< Density one       0.00
                       o<<<<< Density two       0.00
                       o<<<<< Density ab        0.01
                       o<<<<< Spin adapt        0.33
                       o<<<<< Symm adapt        0.00

                       o<<<<< (ab) max sync:      0.00


       Final MCSCF results 
       ------------------- 

       Total MCSCF energy =    -76.110781654641
            Gradient norm =      4.9D-05

    CPU time for solution =      4.9s
   Wall time for solution =      8.4s



                        Analysis of MCSCF natural orbitals
                        ----------------------------------

 Vector    1  Occ=1.999990D+00  E=-2.056149D+01  Symmetry=a
              MO Center= -9.1D-02, -8.7D-02, -1.3D-09, r^2= 1.6D-02
   Bfn.  Coefficient  Atom+Function         Bfn.  Coefficient  Atom+Function  
  ----- ------------  ---------------      ----- ------------  ---------------
     1      0.973561  1 O  s          

 Vector    2  Occ=1.998441D+00  E=-1.302288D+00  Symmetry=a
              MO Center= -2.9D-01, -2.0D-01,  9.5D-07, r^2= 4.2D-01
   Bfn.  Coefficient  Atom+Function         Bfn.  Coefficient  Atom+Function  
  ----- ------------  ---------------      ----- ------------  ---------------
     2      0.528613  1 O  s                  4      0.394445  1 O  s          

 Vector    3  Occ=1.980531D+00  E=-6.834860D-01  Symmetry=a
              MO Center= -6.3D-02, -7.6D-02, -9.9D-07, r^2= 6.5D-01
   Bfn.  Coefficient  Atom+Function         Bfn.  Coefficient  Atom+Function  
  ----- ------------  ---------------      ----- ------------  ---------------
    10      0.432835  1 O  pz                13      0.394410  1 O  pz         
     7      0.361580  1 O  pz         

 Vector    4  Occ=1.975057D+00  E=-5.591565D-01  Symmetry=a
              MO Center=  3.4D-01, -2.0D-01,  8.4D-09, r^2= 6.0D-01
   Bfn.  Coefficient  Atom+Function         Bfn.  Coefficient  Atom+Function  
  ----- ------------  ---------------      ----- ------------  ---------------
     8      0.343872  1 O  px                 5      0.286539  1 O  px         
    46      0.264990  3 H  s                 11      0.205855  1 O  px         
    45      0.184103  3 H  s          

 Vector    5  Occ=1.954631D+00  E=-5.183540D-01  Symmetry=a
              MO Center= -4.4D-02,  4.4D-01, -6.6D-09, r^2= 7.8D-01
   Bfn.  Coefficient  Atom+Function         Bfn.  Coefficient  Atom+Function  
  ----- ------------  ---------------      ----- ------------  ---------------
     9      0.337733  1 O  py                32      0.270960  2 H  s          
     6      0.269404  1 O  py                12      0.207731  1 O  py         
    31      0.158818  2 H  s          

 Vector    6  Occ=4.675523D-02  E=-3.769863D-02  Symmetry=a
              MO Center= -4.6D-02,  6.5D-01, -3.6D-08, r^2= 7.7D-01
   Bfn.  Coefficient  Atom+Function         Bfn.  Coefficient  Atom+Function  
  ----- ------------  ---------------      ----- ------------  ---------------
    32      0.554391  2 H  s                  9     -0.462493  1 O  py         
     6     -0.442370  1 O  py                31      0.252956  2 H  s          
     2     -0.238980  1 O  s                 33      0.162318  2 H  s          

 Vector    7  Occ=2.568330D-02  E=-2.591100D-02  Symmetry=a
              MO Center=  5.1D-01, -2.5D-01, -7.0D-08, r^2= 6.6D-01
   Bfn.  Coefficient  Atom+Function         Bfn.  Coefficient  Atom+Function  
  ----- ------------  ---------------      ----- ------------  ---------------
    46      0.655185  3 H  s                  5     -0.514770  1 O  px         
     8     -0.434981  1 O  px                45      0.296430  3 H  s          
     2     -0.282260  1 O  s                  4     -0.205298  1 O  s          

 Vector    8  Occ=1.891183D-02  E=-1.562971D-02  Symmetry=a
              MO Center= -3.5D-03, -3.6D-02, -1.1D-06, r^2= 1.2D+00
   Bfn.  Coefficient  Atom+Function         Bfn.  Coefficient  Atom+Function  
  ----- ------------  ---------------      ----- ------------  ---------------
    13      0.816172  1 O  pz                 7     -0.623010  1 O  pz         
    10     -0.324889  1 O  pz         

 Vector    9  Occ=0.000000D+00  E= 3.116115D-01  Symmetry=a
              MO Center=  6.2D-01, -7.8D-02,  4.4D-07, r^2= 4.6D+00
   Bfn.  Coefficient  Atom+Function         Bfn.  Coefficient  Atom+Function  
  ----- ------------  ---------------      ----- ------------  ---------------
     4      1.708791  1 O  s                 47     -1.534152  3 H  s          
    33     -0.756291  2 H  s                 11      0.711039  1 O  px         
    51      0.473134  3 H  px                32      0.308360  2 H  s          
    38      0.208542  2 H  py                52     -0.192438  3 H  py         

 Vector   10  Occ=0.000000D+00  E= 3.360288D-01  Symmetry=a
              MO Center=  2.5D-01,  8.6D-01, -2.7D-09, r^2= 5.3D+00
   Bfn.  Coefficient  Atom+Function         Bfn.  Coefficient  Atom+Function  
  ----- ------------  ---------------      ----- ------------  ---------------
    33      1.958696  2 H  s                 47     -1.615161  3 H  s          
    32     -0.749872  2 H  s                 12     -0.517197  1 O  py         
    11      0.340720  1 O  px                46      0.306080  3 H  s          
    51      0.241709  3 H  px                38     -0.204135  2 H  py         

 Vector   11  Occ=0.000000D+00  E= 6.087531D-01  Symmetry=a
              MO Center= -1.4D-01,  3.6D-01, -1.3D-07, r^2= 2.0D+00
   Bfn.  Coefficient  Atom+Function         Bfn.  Coefficient  Atom+Function  
  ----- ------------  ---------------      ----- ------------  ---------------
    46      2.487264  3 H  s                  4     -2.131024  1 O  s          
    11     -1.812560  1 O  px                51     -0.692580  3 H  px         
    32      0.590155  2 H  s                 37     -0.311684  2 H  px         
    33     -0.246428  2 H  s                  9      0.180970  1 O  py         
    12      0.178838  1 O  py                47      0.173298  3 H  s          

 Vector   12  Occ=0.000000D+00  E= 7.095410D-01  Symmetry=a
              MO Center= -2.4D-03, -4.2D-01,  2.6D-08, r^2= 2.3D+00
   Bfn.  Coefficient  Atom+Function         Bfn.  Coefficient  Atom+Function  
  ----- ------------  ---------------      ----- ------------  ---------------
    12      2.086869  1 O  py                32     -1.269094  2 H  s          
    46      1.227106  3 H  s                 11     -1.057867  1 O  px         
    47      0.712391  3 H  s                 33     -0.592797  2 H  s          
    38      0.502234  2 H  py                52      0.378829  3 H  py         
    51     -0.352090  3 H  px                 9     -0.326354  1 O  py         

 Vector   13  Occ=0.000000D+00  E= 8.183933D-01  Symmetry=a
              MO Center=  2.5D-01,  5.1D-01, -7.6D-08, r^2= 1.8D+00
   Bfn.  Coefficient  Atom+Function         Bfn.  Coefficient  Atom+Function  
  ----- ------------  ---------------      ----- ------------  ---------------
    39      0.850357  2 H  pz                53     -0.704467  3 H  pz         

 Vector   14  Occ=0.000000D+00  E= 8.246635D-01  Symmetry=a
              MO Center= -2.7D-01, -6.4D-02, -1.0D-09, r^2= 2.3D+00
   Bfn.  Coefficient  Atom+Function         Bfn.  Coefficient  Atom+Function  
  ----- ------------  ---------------      ----- ------------  ---------------
    46     -1.653735  3 H  s                 11      1.632999  1 O  px         
     4      1.621548  1 O  s                 12      1.057084  1 O  py         
    32     -1.053071  2 H  s                 52     -0.974917  3 H  py         
    37     -0.810092  2 H  px                38      0.485263  2 H  py         
     2      0.208224  1 O  s                 51      0.205942  3 H  px         

 Vector   15  Occ=0.000000D+00  E= 9.697418D-01  Symmetry=a
              MO Center=  1.9D-01,  2.5D-02,  9.5D-09, r^2= 2.2D+00
   Bfn.  Coefficient  Atom+Function         Bfn.  Coefficient  Atom+Function  
  ----- ------------  ---------------      ----- ------------  ---------------
    13      1.146818  1 O  pz                53     -1.081431  3 H  pz         
    39     -0.779811  2 H  pz         

 Vector   16  Occ=0.000000D+00  E= 1.096175D+00  Symmetry=a
              MO Center=  2.7D-01,  1.6D-01,  1.1D-07, r^2= 2.3D+00
   Bfn.  Coefficient  Atom+Function         Bfn.  Coefficient  Atom+Function  
  ----- ------------  ---------------      ----- ------------  ---------------
    46     -1.968461  3 H  s                  4      1.886301  1 O  s          
    11      1.336029  1 O  px                12     -1.326439  1 O  py         
    51      1.035690  3 H  px                37     -0.940232  2 H  px         
    52      0.696120  3 H  py                32      0.415516  2 H  s          
    47     -0.381828  3 H  s                  2     -0.261941  1 O  s          

 Vector   17  Occ=0.000000D+00  E= 1.166038D+00  Symmetry=a
              MO Center= -6.6D-03,  8.6D-01,  5.7D-07, r^2= 1.8D+00
   Bfn.  Coefficient  Atom+Function         Bfn.  Coefficient  Atom+Function  
  ----- ------------  ---------------      ----- ------------  ---------------
     4      2.033570  1 O  s                 46     -1.339272  3 H  s          
    38     -1.026112  2 H  py                 2     -0.867093  1 O  s          
    11      0.717686  1 O  px                47     -0.598522  3 H  s          
    52     -0.586337  3 H  py                51      0.485647  3 H  px         
     8      0.436289  1 O  px                33      0.401152  2 H  s          

 Vector   18  Occ=0.000000D+00  E= 1.249169D+00  Symmetry=a
              MO Center= -3.9D-02,  3.8D-01,  4.5D-07, r^2= 2.4D+00
   Bfn.  Coefficient  Atom+Function         Bfn.  Coefficient  Atom+Function  
  ----- ------------  ---------------      ----- ------------  ---------------
     4      5.797607  1 O  s                 46     -2.785609  3 H  s          
    38      1.765661  2 H  py                51      1.625757  3 H  px         
    32     -1.520530  2 H  s                 11      1.162791  1 O  px         
    12      0.999428  1 O  py                52     -0.974273  3 H  py         
     8      0.864410  1 O  px                33     -0.759565  2 H  s          


 Wrote Lagrangian and 1- and 2-particle density matrices to ./H2O.mcpdm


     Multipole analysis of the density
     ---------------------------------

     L   x y z        total        nuclear
     -   - - -        -----        -------
     0   0 0 0     -0.000000     10.000000

     1   1 0 0      0.556661     -0.000000
     1   0 1 0      0.438046      0.000000
     1   0 0 1      0.000000      0.000000

     2   2 0 0     -4.302655      2.679864
     2   1 1 0     -0.842877     -1.404918
     2   1 0 1      0.000000      0.000000
     2   0 2 0     -3.180513      5.456400
     2   0 1 1     -0.000000      0.000000
     2   0 0 2     -5.703244      0.000000


  Mulliken analysis of the total density
  --------------------------------------

    Atom       Charge   Shell Charges
 -----------   ------   -------------------------------------------------------
    1 O    8     8.48   1.95  1.02  0.24  0.62  1.25  2.05  1.35  0.00  0.01  0.00
    2 H    1     0.76   0.18  0.41  0.11  0.01  0.05  0.00
    3 H    1     0.76   0.25  0.38  0.04  0.02  0.06  0.01

    Mulliken analysis of the active space density
    ---------------------------------------------

    Atom       Charge   Shell Charges
 -----------   ------   -------------------------------------------------------
    1 O    8     8.48   1.95  1.02  0.24  0.62  1.25  2.05  1.35  0.00  0.01  0.00
    2 H    1     0.76   0.18  0.41  0.11  0.01  0.05  0.00
    3 H    1     0.76   0.25  0.38  0.04  0.02  0.06  0.01

 Parallel integral file used      16 records with       0 large values


 Task  times  cpu:        5.0s     wall:        8.5s


                                NWChem Input Module
                                -------------------


                                 NWChem SCF Module
                                 -----------------


                                        H2O



  ao basis        = "ao basis"
  functions       =    58
  atoms           =     3
  closed shells   =     5
  open shells     =     0
  charge          =   0.00
  wavefunction    = RHF 
  input vectors   = ./h2o.mos
  output vectors  = ./h2o-trash.mos
  use symmetry    = F
  symmetry adapt  = F


 Summary of "ao basis" -> "ao basis" (spherical)
 ------------------------------------------------------------------------------
       Tag                 Description            Shells   Functions and Types
 ---------------- ------------------------------  ------  ---------------------
 O                          cc-pVTZ                 10       30   4s3p2d1f
 H                          cc-pVTZ                  6       14   3s2p1d



 Forming initial guess at       8.5s


 Loading old vectors from job with title :

H2O


 Starting SCF solution at       8.5s



 ----------------------------------------------
         Quadratically convergent ROHF

 Convergence threshold     :          1.000E-04
 Maximum no. of iterations :           30
 Final Fock-matrix accuracy:          1.000E-07
 ----------------------------------------------


 Integral file          = ./H2O.aoints.0
 Record size in doubles =  65536        No. of integs per rec  =  43688
 Max. records in memory =     49        Max. records in file   = 280443
 No. of bits per label  =      8        No. of bits per value  =     64


 #quartets = 3.213D+04 #integrals = 6.608D+05 #direct =  0.0% #cached =100.0%



       Final RHF  results 
       ------------------ 

         Total SCF energy =    -76.003571125711
      One-electron energy =   -121.082168140315
      Two-electron energy =     36.974770580672
 Nuclear repulsion energy =      8.103826433932

        Time for solution =      0.1s


             Final eigenvalues
             -----------------

              1      
    1  -20.5615
    2   -1.3023
    3   -0.6835
    4   -0.5592
    5   -0.5184
    6   -0.0377
    7   -0.0259
    8   -0.0156
    9    0.3116
   10    0.3360
   11    0.6088
   12    0.7095
   13    0.8184
   14    0.8247
   15    0.9697

                       ROHF Final Molecular Orbital Analysis
                       -------------------------------------

 Vector    2  Occ=2.000000D+00  E=-1.302288D+00
              MO Center= -2.9D-01, -2.0D-01,  9.5D-07, r^2= 4.2D-01
   Bfn.  Coefficient  Atom+Function         Bfn.  Coefficient  Atom+Function  
  ----- ------------  ---------------      ----- ------------  ---------------
     2      0.528613  1 O  s                  4      0.394445  1 O  s          

 Vector    3  Occ=2.000000D+00  E=-6.834860D-01
              MO Center= -6.3D-02, -7.6D-02, -9.9D-07, r^2= 6.5D-01
   Bfn.  Coefficient  Atom+Function         Bfn.  Coefficient  Atom+Function  
  ----- ------------  ---------------      ----- ------------  ---------------
    10      0.432835  1 O  pz                13      0.394410  1 O  pz         
     7      0.361580  1 O  pz         

 Vector    4  Occ=2.000000D+00  E=-5.591565D-01
              MO Center=  3.4D-01, -2.0D-01,  8.4D-09, r^2= 6.0D-01
   Bfn.  Coefficient  Atom+Function         Bfn.  Coefficient  Atom+Function  
  ----- ------------  ---------------      ----- ------------  ---------------
     8      0.343872  1 O  px                 5      0.286539  1 O  px         
    46      0.264990  3 H  s                 11      0.205855  1 O  px         
    45      0.184103  3 H  s          

 Vector    5  Occ=2.000000D+00  E=-5.183540D-01
              MO Center= -4.4D-02,  4.4D-01, -6.6D-09, r^2= 7.8D-01
   Bfn.  Coefficient  Atom+Function         Bfn.  Coefficient  Atom+Function  
  ----- ------------  ---------------      ----- ------------  ---------------
     9      0.337733  1 O  py                32      0.270960  2 H  s          
     6      0.269404  1 O  py                12      0.207731  1 O  py         
    31      0.158818  2 H  s          

 Vector    6  Occ=0.000000D+00  E=-3.769863D-02
              MO Center= -4.6D-02,  6.5D-01, -3.6D-08, r^2= 7.7D-01
   Bfn.  Coefficient  Atom+Function         Bfn.  Coefficient  Atom+Function  
  ----- ------------  ---------------      ----- ------------  ---------------
    32      0.554391  2 H  s                  9     -0.462493  1 O  py         
     6     -0.442370  1 O  py                31      0.252956  2 H  s          
     2     -0.238980  1 O  s                 33      0.162318  2 H  s          

 Vector    7  Occ=0.000000D+00  E=-2.591100D-02
              MO Center=  5.1D-01, -2.5D-01, -7.0D-08, r^2= 6.6D-01
   Bfn.  Coefficient  Atom+Function         Bfn.  Coefficient  Atom+Function  
  ----- ------------  ---------------      ----- ------------  ---------------
    46      0.655185  3 H  s                  5     -0.514770  1 O  px         
     8     -0.434981  1 O  px                45      0.296430  3 H  s          
     2     -0.282260  1 O  s                  4     -0.205298  1 O  s          

 Vector    8  Occ=0.000000D+00  E=-1.562971D-02
              MO Center= -3.5D-03, -3.6D-02, -1.1D-06, r^2= 1.2D+00
   Bfn.  Coefficient  Atom+Function         Bfn.  Coefficient  Atom+Function  
  ----- ------------  ---------------      ----- ------------  ---------------
    13      0.816172  1 O  pz                 7     -0.623010  1 O  pz         
    10     -0.324889  1 O  pz         

 Vector    9  Occ=0.000000D+00  E= 3.116115D-01
              MO Center=  6.2D-01, -7.8D-02,  4.4D-07, r^2= 4.6D+00
   Bfn.  Coefficient  Atom+Function         Bfn.  Coefficient  Atom+Function  
  ----- ------------  ---------------      ----- ------------  ---------------
     4      1.708791  1 O  s                 47     -1.534152  3 H  s          
    33     -0.756291  2 H  s                 11      0.711039  1 O  px         
    51      0.473134  3 H  px                32      0.308360  2 H  s          
    38      0.208542  2 H  py                52     -0.192438  3 H  py         

 Vector   10  Occ=0.000000D+00  E= 3.360288D-01
              MO Center=  2.5D-01,  8.6D-01, -2.7D-09, r^2= 5.3D+00
   Bfn.  Coefficient  Atom+Function         Bfn.  Coefficient  Atom+Function  
  ----- ------------  ---------------      ----- ------------  ---------------
    33      1.958696  2 H  s                 47     -1.615161  3 H  s          
    32     -0.749872  2 H  s                 12     -0.517197  1 O  py         
    11      0.340720  1 O  px                46      0.306080  3 H  s          
    51      0.241709  3 H  px                38     -0.204135  2 H  py         

 Vector   11  Occ=0.000000D+00  E= 6.087531D-01
              MO Center= -1.4D-01,  3.6D-01, -1.3D-07, r^2= 2.0D+00
   Bfn.  Coefficient  Atom+Function         Bfn.  Coefficient  Atom+Function  
  ----- ------------  ---------------      ----- ------------  ---------------
    46      2.487264  3 H  s                  4     -2.131024  1 O  s          
    11     -1.812560  1 O  px                51     -0.692580  3 H  px         
    32      0.590155  2 H  s                 37     -0.311684  2 H  px         
    33     -0.246428  2 H  s                  9      0.180970  1 O  py         
    12      0.178838  1 O  py                47      0.173298  3 H  s          

 Vector   12  Occ=0.000000D+00  E= 7.095410D-01
              MO Center= -2.4D-03, -4.2D-01,  2.6D-08, r^2= 2.3D+00
   Bfn.  Coefficient  Atom+Function         Bfn.  Coefficient  Atom+Function  
  ----- ------------  ---------------      ----- ------------  ---------------
    12      2.086869  1 O  py                32     -1.269094  2 H  s          
    46      1.227106  3 H  s                 11     -1.057867  1 O  px         
    47      0.712391  3 H  s                 33     -0.592797  2 H  s          
    38      0.502234  2 H  py                52      0.378829  3 H  py         
    51     -0.352090  3 H  px                 9     -0.326354  1 O  py         

 Vector   13  Occ=0.000000D+00  E= 8.183933D-01
              MO Center=  2.5D-01,  5.1D-01, -7.6D-08, r^2= 1.8D+00
   Bfn.  Coefficient  Atom+Function         Bfn.  Coefficient  Atom+Function  
  ----- ------------  ---------------      ----- ------------  ---------------
    39      0.850357  2 H  pz                53     -0.704467  3 H  pz         

 Vector   14  Occ=0.000000D+00  E= 8.246635D-01
              MO Center= -2.7D-01, -6.4D-02, -1.0D-09, r^2= 2.3D+00
   Bfn.  Coefficient  Atom+Function         Bfn.  Coefficient  Atom+Function  
  ----- ------------  ---------------      ----- ------------  ---------------
    46     -1.653735  3 H  s                 11      1.632999  1 O  px         
     4      1.621548  1 O  s                 12      1.057084  1 O  py         
    32     -1.053071  2 H  s                 52     -0.974917  3 H  py         
    37     -0.810092  2 H  px                38      0.485263  2 H  py         
     2      0.208224  1 O  s                 51      0.205942  3 H  px         

 Vector   15  Occ=0.000000D+00  E= 9.697418D-01
              MO Center=  1.9D-01,  2.5D-02,  9.5D-09, r^2= 2.2D+00
   Bfn.  Coefficient  Atom+Function         Bfn.  Coefficient  Atom+Function  
  ----- ------------  ---------------      ----- ------------  ---------------
    13      1.146818  1 O  pz                53     -1.081431  3 H  pz         
    39     -0.779811  2 H  pz         


 center of mass
 --------------
 x =  -0.07599894 y =  -0.07292180 z =   0.00000000

 moments of inertia (a.u.)
 ------------------
           5.620778306387           1.289094065132           0.000000000000
           1.289094065132           2.833002082974           0.000000000000
           0.000000000000           0.000000000000           8.453780389361

  Mulliken analysis of the total density
  --------------------------------------

    Atom       Charge   Shell Charges
 -----------   ------   -------------------------------------------------------
    1 O    8     8.49   1.95  1.02  0.24  0.62  1.24  2.06  1.35  0.00  0.02  0.00
    2 H    1     0.75   0.18  0.40  0.11  0.01  0.05  0.00
    3 H    1     0.75   0.25  0.38  0.04  0.02  0.06  0.01

       Multipole analysis of the density wrt the origin
       ------------------------------------------------

     L   x y z        total         open         nuclear
     -   - - -        -----         ----         -------
     0   0 0 0     -0.000000      0.000000     10.000000

     1   1 0 0      0.568158      0.000000     -0.000000
     1   0 1 0      0.456988      0.000000      0.000000
     1   0 0 1      0.000000      0.000000      0.000000

     2   2 0 0     -4.279934      0.000000      2.679864
     2   1 1 0     -0.854311      0.000000     -1.404918
     2   1 0 1      0.000000      0.000000      0.000000
     2   0 2 0     -3.121948      0.000000      5.456400
     2   0 1 1     -0.000000      0.000000      0.000000
     2   0 0 2     -5.685538      0.000000      0.000000


 Parallel integral file used      16 records with       0 large values

                   NWChem Extensible Many-Electron Theory Module
                   ---------------------------------------------

              ======================================================
                   This portion of the program was automatically
                  generated by a Tensor Contraction Engine (TCE).
                  The development of this portion of the program
                 and TCE was supported by US Department of Energy,
                Office of Science, Office of Basic Energy Science.
                      TCE is a product of Battelle and PNNL.
              Please cite: S.Hirata, J.Phys.Chem.A 107, 9887 (2003).
              ======================================================

                                        H2O


            General Information
            -------------------
      Number of processors :     1
         Wavefunction type : Restricted Hartree-Fock
          No. of electrons :    10
           Alpha electrons :     5
            Beta electrons :     5
           No. of orbitals :   116
            Alpha orbitals :    58
             Beta orbitals :    58
        Alpha frozen cores :     0
         Beta frozen cores :     0
     Alpha frozen virtuals :     0
      Beta frozen virtuals :     0
         Spin multiplicity : singlet 
    Number of AO functions :    58
       Number of AO shells :    22
        Use of symmetry is : off
      Symmetry adaption is : off
         Schwarz screening : 0.10D-09

          Correlation Information
          -----------------------
          Calculation type : Coupled-cluster singles & doubles                           
   Perturbative correction : none                                                        
            Max iterations :      100
        Residual threshold : 0.10D-06
     T(0) DIIS level shift : 0.00D+00
     L(0) DIIS level shift : 0.00D+00
     T(1) DIIS level shift : 0.00D+00
     L(1) DIIS level shift : 0.00D+00
     T(R) DIIS level shift : 0.00D+00
     T(I) DIIS level shift : 0.00D+00
   CC-T/L Amplitude update :  5-th order DIIS
                I/O scheme : Global Array Library
        L-threshold :  0.10D-06
        EOM-threshold :  0.10D-06
 no EOMCCSD initial starts read in
 TCE RESTART OPTIONS
 READ_INT:   F
 WRITE_INT:  F
 READ_TA:    F
 WRITE_TA:   F
 READ_XA:    F
 WRITE_XA:   F
 READ_IN3:   F
 WRITE_IN3:  F
 SLICE:      F
 D4D5:       F
 quantumc:   F
 qrotation:  F
 pwtce:      F
 qducc:      T
 nacto:                         0
 nrotv:                         0
 nrot:                          0

            Memory Information
            ------------------
          Available GA space size is    1610609372 doubles
          Available MA space size is    1610609780 doubles

 Maximum block size        32 doubles

 tile_dim =     27

 Block   Spin    Irrep     Size     Offset   Alpha
 -------------------------------------------------
   1    alpha     a      5 doubles       0       1
   2    beta      a      5 doubles       5       1
   3    alpha     a     26 doubles      10       3
   4    alpha     a     27 doubles      36       4
   5    beta      a     26 doubles      63       3
   6    beta      a     27 doubles      89       4

 Global array virtual files algorithm will be used

 Parallel file system coherency ......... OK

 Integral file          = ./H2O.aoints.0
 Record size in doubles =  65536        No. of integs per rec  =  43688
 Max. records in memory =     49        Max. records in file   = 280443
 No. of bits per label  =      8        No. of bits per value  =     64


 #quartets = 3.213D+04 #integrals = 6.608D+05 #direct =  0.0% #cached =100.0%


 Fock matrix recomputed
 1-e file size   =             3364
 1-e file name   = ./H2O.f1
 Cpu & wall time / sec            0.1            0.1
 4-electron integrals stored in orbital form

 v2    file size   =          3631290
 4-index algorithm nr.  13 is used
 imaxsize =       30
 imaxsize ichop =        0
 Cpu & wall time / sec            1.2            1.2
 T1-number-of-tasks                    2

 t1 file size   =              265
 t1 file name   = ./H2O.t1
 t1 file handle =       -998
 T2-number-of-boxes                    7

 t2 file size   =           122900
 t2 file name   = ./H2O.t2
 t2 file handle =       -996
CCSD iterations
 ---------------------------------------------------------
 Iter          Residuum       Correlation     Cpu    Wall 
 ---------------------------------------------------------
NEW TASK SCHEDULING
CCSD_T1_NTS --- OK
CCSD_T2_NTS --- OK
    1   1.0556971384982  -0.4538071186522     0.2     0.2
    2   1.8406557100283   0.0202236936277     0.2     0.2
    3   3.3695987671235  -0.8485524718389     0.2     0.2
    4   6.5740465598225   0.7000996880669     0.2     0.2
    5   9.4536864059608  -2.0672879603163     0.2     0.2
 MICROCYCLE DIIS UPDATE:                    5                    5
    6   0.0592743475801  -0.2916029742914     0.2     0.2
    7   0.0721312302046  -0.2826504425779     0.2     0.2
    8   0.1267257018578  -0.2989312188120     0.2     0.2
    9   0.2332645473026  -0.2633531637947     0.2     0.2
   10   0.4605669121311  -0.2708119607444     0.2     0.2
 MICROCYCLE DIIS UPDATE:                   10                    5
   11   0.0050863006862  -0.2908731021549     0.2     0.2
   12   0.0040412524029  -0.2913634001102     0.2     0.2
   13   0.0071588766312  -0.2905817252868     0.2     0.2
   14   0.0142480618995  -0.2919815754104     0.2     0.2
   15   0.0290518289391  -0.2896744791130     0.2     0.2
 MICROCYCLE DIIS UPDATE:                   15                    5
   16   0.0003046476530  -0.2911446328007     0.2     0.2
   17   0.0002505855580  -0.2911076387862     0.2     0.2
   18   0.0004102633928  -0.2911765602921     0.2     0.2
   19   0.0008033770994  -0.2910544626954     0.1     0.2
   20   0.0016389162537  -0.2912839054767     0.2     0.2
 MICROCYCLE DIIS UPDATE:                   20                    5
   21   0.0000371436127  -0.2911336515783     0.2     0.2
   22   0.0000348704624  -0.2911368462998     0.2     0.2
   23   0.0000606358485  -0.2911298678628     0.2     0.2
   24   0.0001182615460  -0.2911425337867     0.2     0.2
   25   0.0002410201086  -0.2911205351496     0.2     0.2
 MICROCYCLE DIIS UPDATE:                   25                    5
   26   0.0000066338603  -0.2911347501536     0.2     0.2
   27   0.0000056220540  -0.2911338567271     0.2     0.2
   28   0.0000096039416  -0.2911354603066     0.2     0.2
   29   0.0000188857248  -0.2911326023022     0.2     0.2
   30   0.0000386906841  -0.2911379284331     0.2     0.2
 MICROCYCLE DIIS UPDATE:                   30                    5
   31   0.0000010174726  -0.2911344187666     0.2     0.2
   32   0.0000010491876  -0.2911345391869     0.2     0.2
   33   0.0000018928518  -0.2911343018491     0.2     0.2
   34   0.0000037105225  -0.2911347277099     0.2     0.2
   35   0.0000075468344  -0.2911339947266     0.2     0.2
 MICROCYCLE DIIS UPDATE:                   35                    5
   36   0.0000001888021  -0.2911344657957     0.2     0.2
   37   0.0000001408937  -0.2911344445030     0.2     0.2
   38   0.0000002241596  -0.2911344801774     0.2     0.2
   39   0.0000004377856  -0.2911344164769     0.2     0.2
   40   0.0000009003824  -0.2911345348266     0.2     0.2
 MICROCYCLE DIIS UPDATE:                   40                    5
   41   0.0000000280320  -0.2911344559639     0.2     0.2
 -----------------------------------------------------------------
 Iterations converged
 CCSD correlation energy / hartree =        -0.291134455963919
 CCSD total energy / hartree       =       -76.294705581674975

 Singles contributions

 Doubles contributions
     6a   (alpha)     7a   (alpha) ---     4a   (alpha)     5a   (alpha)        0.0211724143
     6a   (alpha)     7a   (alpha) ---     5a   (alpha)     4a   (alpha)       -0.0211724143
     6a   (alpha)     8a   (alpha) ---     3a   (alpha)     5a   (alpha)        0.0278847617
     6a   (alpha)     8a   (alpha) ---     5a   (alpha)     3a   (alpha)       -0.0278847617
     7a   (alpha)     6a   (alpha) ---     4a   (alpha)     5a   (alpha)       -0.0211724143
     7a   (alpha)     6a   (alpha) ---     5a   (alpha)     4a   (alpha)        0.0211724143
     7a   (alpha)     8a   (alpha) ---     3a   (alpha)     4a   (alpha)        0.0262162560
     7a   (alpha)     8a   (alpha) ---     4a   (alpha)     3a   (alpha)       -0.0262162560
     8a   (alpha)     6a   (alpha) ---     3a   (alpha)     5a   (alpha)       -0.0278847617
     8a   (alpha)     6a   (alpha) ---     5a   (alpha)     3a   (alpha)        0.0278847617
     8a   (alpha)     7a   (alpha) ---     3a   (alpha)     4a   (alpha)       -0.0262162560
     8a   (alpha)     7a   (alpha) ---     4a   (alpha)     3a   (alpha)        0.0262162560
     6a   (alpha)     6a   (beta ) ---     5a   (alpha)     5a   (beta )       -0.1253095520
     6a   (alpha)     7a   (beta ) ---     5a   (alpha)     4a   (beta )       -0.0329903334
     6a   (alpha)     8a   (beta ) ---     5a   (alpha)     3a   (beta )       -0.0388512588
     7a   (alpha)     6a   (beta ) ---     4a   (alpha)     5a   (beta )       -0.0329903334
     7a   (alpha)     7a   (beta ) ---     4a   (alpha)     4a   (beta )       -0.0801602795
     7a   (alpha)     8a   (beta ) ---     4a   (alpha)     3a   (beta )       -0.0361062944
     8a   (alpha)     6a   (beta ) ---     3a   (alpha)     5a   (beta )       -0.0388512588
     8a   (alpha)     7a   (beta ) ---     3a   (alpha)     4a   (beta )       -0.0361062944
     8a   (alpha)     8a   (beta ) ---     3a   (alpha)     3a   (beta )       -0.0524574671
 Ground state specification:
 exp(T)|Ref>~(1+T)|Ref>
 ------- a(p)+/a(q) strings ----------

 singles norm

 doubles norm

 Reference string
  0.99224002756101404      :(1a)+ (2a)+ (3a)+ (4a)+ (5a)+ (1b)+ (2b)+ (3b)+ (4b)+ (5b)+ |0>

 Singles strings

 Doubles strings
 -0.12433715336020089      :(6a)+ (6b)+ (5b)  (5a)  (1a)+ (2a)+ (3a)+ (4a)+ (5a)+ (1b)+ (2b)+ (3b)+ (4b)+ (5b)+ |0>
 -------------------------------------
 enrep_tce =    8.1038264339320243     
  EHF(total)         =       -76.00357113
  Shift (HFtot-HFA)  =         0.00000000
 ALL OCCUPIED ORBITALS ARE ACTIVE IN DUCC --> NO SHIFT
 Number of active orbitals                    8
 Number of active alpha electrons                    5
 Number of active beta electrons                    5
  nos                    10
  nvs                   106
 noas                     5
 nobs                     5
 nvas                    53
 nvbs                    53
 nactv                     3
 DUCC MODEL =                     3
 NONHF =  T
 F-T1 correlation    =   -7.7443433975409642E-005
 V-T1-T1 correlation =    1.9634910096545691E-005
 V-T2 correlation    =  -0.29107664744005513     
 Total correlation   =  -0.29113445596393400     
 F-T1(Ext) correlation         =   -5.6223164415323939E-005
 V-T1(Ext)-T1(Ext) correlation =    2.5266031562928990E-006
 V-T2(Ext) correlation         =  -0.19279448715811298     
 Total Ext correlation         =  -0.19284818371937201     
1-BODY TIME =    0.583 SECONDS.
  HHHH TIME =    3.453 SECONDS.
  PPPP TIME =    0.000 SECONDS.
  HHHP TIME =    0.936 SECONDS.
  PPPH TIME =    0.157 SECONDS.
  HPHP TIME =    0.074 SECONDS.
  HHPP TIME =    0.530 SECONDS.
 ONE-BODY UNITARY CHECK
 TWO-BODY UNITARY CHECK
 TWO-BODY ANTISYMMETRY CHECK
 TRANSFORMED ~FOCK~ MATRIX
    1    1       -20.4857665747
    1    2        -1.3922198587
    1    3         0.0000002319
    1    4         0.0162960753
    1    5         0.0052803781
    1    6         0.0022355375
    1    7         0.0024670414
    1    8        -0.0000000131
    2    1        -1.3922198587
    2    2        -1.2602560047
    2    3         0.0000008774
    2    4        -0.2512375294
    2    5        -0.1828473519
    2    6         0.0016154866
    2    7         0.0023318514
    2    8        -0.0000000184
    3    1         0.0000002319
    3    2         0.0000008774
    3    3        -0.5468312402
    3    4         0.0000003799
    3    5         0.0000002655
    3    6        -0.0000000070
    3    7        -0.0000000059
    3    8         0.0124474952
    4    1         0.0162960753
    4    2        -0.2512375294
    4    3         0.0000003799
    4    4        -0.7979313693
    4    5        -0.0297512432
    4    6         0.0023248248
    4    7         0.0044547936
    4    8         0.0000000047
    5    1         0.0052803781
    5    2        -0.1828473519
    5    3         0.0000002655
    5    4        -0.0297512432
    5    5        -0.6748926334
    5    6         0.0077233529
    5    7         0.0021017675
    5    8         0.0000000029
    6    1         0.0022355375
    6    2         0.0016154866
    6    3        -0.0000000070
    6    4         0.0023248248
    6    5         0.0077233529
    6    6         0.4815124391
    6    7        -0.0061167647
    6    8         0.0000000354
    7    1         0.0024670414
    7    2         0.0023318514
    7    3        -0.0000000059
    7    4         0.0044547936
    7    5         0.0021017675
    7    6        -0.0061167647
    7    7         0.7964253115
    7    8         0.0000000224
    8    1        -0.0000000131
    8    2        -0.0000000184
    8    3         0.0124474952
    8    4         0.0000000047
    8    5         0.0000000029
    8    6         0.0000000354
    8    7         0.0000000224
    8    8         1.1059458958
 begin_one_electron_integrals
    1    1       -32.8523341915
    1    2        -1.2210905727
    1    3        -0.0000005480
    1    4         0.1402668417
    1    5         0.0929435083
    1    6        -0.1906138146
    1    7        -0.2019543822
    1    8         0.0000008004
    2    1        -1.2210905727
    2    2        -7.7647823254
    2    3         0.0000010501
    2    4        -0.2543494583
    2    5        -0.1559400658
    2    6         0.1579977085
    2    7         0.0934365385
    2    8         0.0000002423
    3    1        -0.0000005480
    3    2         0.0000010501
    3    3        -6.9401865589
    3    4         0.0000003717
    3    5         0.0000002510
    3    6        -0.0000004136
    3    7        -0.0000006854
    3    8         2.0839462500
    4    1         0.1402668417
    4    2        -0.2543494583
    4    3         0.0000003717
    4    4        -6.7404739158
    4    5        -0.1123666723
    4    6         0.0809545181
    4    7         1.9552587141
    4    8         0.0000009629
    5    1         0.0929435083
    5    2        -0.1559400658
    5    3         0.0000002510
    5    4        -0.1123666723
    5    5        -6.2267729684
    5    6         2.0132824137
    5    7        -0.0648260239
    5    8         0.0000006530
    6    1        -0.1906138146
    6    2         0.1579977085
    6    3        -0.0000004136
    6    4         0.0809545181
    6    5         2.0132824137
    6    6        -5.9243047289
    6    7         0.0527499799
    6    8        -0.0000000264
    7    1        -0.2019543822
    7    2         0.0934365385
    7    3        -0.0000006854
    7    4         1.9552587141
    7    5        -0.0648260239
    7    6         0.0527499799
    7    7        -6.0881360799
    7    8        -0.0000000435
    8    1         0.0000008004
    8    2         0.0000002423
    8    3         2.0839462500
    8    4         0.0000009629
    8    5         0.0000006530
    8    6        -0.0000000264
    8    7        -0.0000000435
    8    8        -5.4072535927
 end_one_electron_integrals
 begin_two_electron_integrals
    1    1    1    1        4.8215949773
    1    1    1    2       -0.1807285666
    1    1    1    3        0.0000005916
    1    1    1    4       -0.0914490953
    1    1    1    5       -0.0636811398
    1    1    1    6        0.1480947062
    1    1    1    7        0.1660107301
    1    1    1    8       -0.0000006631
    1    2    1    1       -0.1807285666
    1    2    1    2        0.0218636969
    1    2    1    3       -0.0000000165
    1    2    1    4        0.0016138750
    1    2    1    5        0.0007954735
    1    2    1    6       -0.0063093778
    1    2    1    7       -0.0059650824
    1    2    1    8        0.0000000178
    1    3    1    1        0.0000005916
    1    3    1    2       -0.0000000165
    1    3    1    3        0.0246507837
    1    3    1    4       -0.0000000105
    1    3    1    5       -0.0000000073
    1    3    1    6        0.0000000248
    1    3    1    7        0.0000000323
    1    3    1    8       -0.0376272514
    1    4    1    1       -0.0914490953
    1    4    1    2        0.0016138750
    1    4    1    3       -0.0000000105
    1    4    1    4        0.0195052326
    1    4    1    5        0.0023560098
    1    4    1    6       -0.0046218142
    1    4    1    7       -0.0330433987
    1    4    1    8       -0.0000000014
    1    5    1    1       -0.0636811398
    1    5    1    2        0.0007954735
    1    5    1    3       -0.0000000073
    1    5    1    4        0.0023560098
    1    5    1    5        0.0163840661
    1    5    1    6       -0.0265088697
    1    5    1    7       -0.0020217075
    1    5    1    8        0.0000000002
    1    6    1    1        0.1480947062
    1    6    1    2       -0.0063093778
    1    6    1    3        0.0000000248
    1    6    1    4       -0.0046218142
    1    6    1    5       -0.0265088697
    1    6    1    6        0.0426865437
    1    6    1    7        0.0049927688
    1    6    1    8       -0.0000000166
    1    7    1    1        0.1660107301
    1    7    1    2       -0.0059650824
    1    7    1    3        0.0000000323
    1    7    1    4       -0.0330433987
    1    7    1    5       -0.0020217075
    1    7    1    6        0.0049927688
    1    7    1    7        0.0541980290
    1    7    1    8       -0.0000000190
    1    8    1    1       -0.0000006631
    1    8    1    2        0.0000000178
    1    8    1    3       -0.0376272514
    1    8    1    4       -0.0000000014
    1    8    1    5        0.0000000002
    1    8    1    6       -0.0000000166
    1    8    1    7       -0.0000000190
    1    8    1    8        0.0525933940
    1    1    2    1       -0.1807285666
    1    1    2    2        1.0667527483
    1    1    2    3       -0.0000000666
    1    1    2    4       -0.0070850184
    1    1    2    5       -0.0106560245
    1    1    2    6       -0.0343908977
    1    1    2    7       -0.0196348605
    1    1    2    8       -0.0000000380
    1    2    2    1        0.0247803638
    1    2    2    2        0.0141354540
    1    2    2    3        0.0000000179
    1    2    2    4       -0.0033177156
    1    2    2    5       -0.0025868628
    1    2    2    6        0.0027487837
    1    2    2    7        0.0038348811
    1    2    2    8       -0.0000000207
    1    3    2    1       -0.0000000151
    1    3    2    2        0.0000000762
    1    3    2    3        0.0230146847
    1    3    2    4        0.0000000111
    1    3    2    5        0.0000000079
    1    3    2    6       -0.0000000135
    1    3    2    7       -0.0000000120
    1    3    2    8       -0.0199159206
    1    4    2    1        0.0014283055
    1    4    2    2       -0.0131346772
    1    4    2    3        0.0000000140
    1    4    2    4        0.0150826158
    1    4    2    5       -0.0002752599
    1    4    2    6        0.0018694234
    1    4    2    7       -0.0153787303
    1    4    2    8       -0.0000000170
    1    5    2    1        0.0007011564
    1    5    2    2       -0.0096008602
    1    5    2    3        0.0000000102
    1    5    2    4       -0.0002705000
    1    5    2    5        0.0136620699
    1    5    2    6       -0.0145949314
    1    5    2    7        0.0026235694
    1    5    2    8       -0.0000000118
    1    6    2    1       -0.0063312622
    1    6    2    2        0.0171644115
    1    6    2    3       -0.0000000153
    1    6    2    4        0.0014499948
    1    6    2    5       -0.0224547242
    1    6    2    6        0.0217275895
    1    6    2    7       -0.0048199540
    1    6    2    8        0.0000000147
    1    7    2    1       -0.0059348114
    1    7    2    2        0.0211111000
    1    7    2    3       -0.0000000156
    1    7    2    4       -0.0263075036
    1    7    2    5        0.0032373776
    1    7    2    6       -0.0054916023
    1    7    2    7        0.0240219537
    1    7    2    8        0.0000000168
    1    8    2    1        0.0000000177
    1    8    2    2       -0.0000000980
    1    8    2    3       -0.0366056602
    1    8    2    4       -0.0000000316
    1    8    2    5       -0.0000000210
    1    8    2    6        0.0000000243
    1    8    2    7        0.0000000255
    1    8    2    8        0.0262980383
    1    1    3    1        0.0000005916
    1    1    3    2       -0.0000000666
    1    1    3    3        1.0280158079
    1    1    3    4        0.0000000071
    1    1    3    5        0.0000000039
    1    1    3    6        0.0000001056
    1    1    3    7        0.0000001741
    1    1    3    8       -0.5050290759
    1    2    3    1       -0.0000000151
    1    2    3    2        0.0000000180
    1    2    3    3        0.0101480359
    1    2    3    4        0.0000000101
    1    2    3    5        0.0000000074
    1    2    3    6       -0.0000000119
    1    2    3    7       -0.0000000134
    1    2    3    8       -0.0064039529
    1    3    3    1        0.0269973985
    1    3    3    2        0.0224856142
    1    3    3    3       -0.0000000484
    1    3    3    4        0.0049378544
    1    3    3    5        0.0036574027
    1    3    3    6       -0.0064084919
    1    3    3    7       -0.0069398867
    1    3    3    8        0.0000000382
    1    4    3    1       -0.0000000100
    1    4    3    2        0.0000000134
    1    4    3    3       -0.0027241085
    1    4    3    4       -0.0000000229
    1    4    3    5        0.0000000002
    1    4    3    6       -0.0000000033
    1    4    3    7        0.0000000214
    1    4    3    8        0.0027569156
    1    5    3    1       -0.0000000071
    1    5    3    2        0.0000000096
    1    5    3    3       -0.0017797913
    1    5    3    5       -0.0000000206
    1    5    3    6        0.0000000208
    1    5    3    7       -0.0000000045
    1    5    3    8        0.0015725326
    1    6    3    1        0.0000000242
    1    6    3    2       -0.0000000149
    1    6    3    3        0.0039212771
    1    6    3    4       -0.0000000018
    1    6    3    5        0.0000000317
    1    6    3    6       -0.0000000306
    1    6    3    7        0.0000000080
    1    6    3    8       -0.0043209417
    1    7    3    1        0.0000000317
    1    7    3    2       -0.0000000153
    1    7    3    3        0.0033041753
    1    7    3    4        0.0000000388
    1    7    3    5       -0.0000000036
    1    7    3    6        0.0000000069
    1    7    3    7       -0.0000000350
    1    7    3    8       -0.0045923312
    1    8    3    1       -0.0378409257
    1    8    3    2       -0.0360578894
    1    8    3    3        0.0000000852
    1    8    3    4       -0.0073591315
    1    8    3    5       -0.0055672659
    1    8    3    6        0.0082947747
    1    8    3    7        0.0088894229
    1    8    3    8       -0.0000000557
    1    1    4    1       -0.0914490953
    1    1    4    2       -0.0070850184
    1    1    4    3        0.0000000071
    1    1    4    4        0.9004207915
    1    1    4    5        0.0206346788
    1    1    4    6       -0.0213873038
    1    1    4    7       -0.4625051151
    1    1    4    8       -0.0000002086
    1    2    4    1        0.0014283055
    1    2    4    2       -0.0033264796
    1    2    4    3        0.0000000103
    1    2    4    4        0.0064959759
    1    2    4    5       -0.0007468004
    1    2    4    6        0.0017569743
    1    2    4    7       -0.0037294259
    1    2    4    8       -0.0000000117
    1    3    4    1       -0.0000000100
    1    3    4    2        0.0000000106
    1    3    4    3        0.0049553312
    1    3    4    4        0.0000000163
[...]
    8    1    3    8       -0.0000000556
    8    2    3    1       -0.0199159206
    8    2    3    2       -0.0512268477
    8    2    3    3        0.0000000970
    8    2    3    4       -0.0049730949
    8    2    3    5       -0.0034548451
    8    2    3    6        0.0114919868
    8    2    3    7        0.0114813464
    8    2    3    8       -0.0000000864
    8    3    3    1        0.0000000382
    8    3    3    2        0.0000001318
    8    3    3    3       -0.2008421025
    8    3    3    4        0.0000000039
    8    3    3    5        0.0000000045
    8    3    3    6       -0.0000000582
    8    3    3    7       -0.0000000786
    8    3    3    8        0.1586573629
    8    4    3    1       -0.0031336001
    8    4    3    2       -0.0000377292
    8    4    3    3       -0.0000000811
    8    4    3    4       -0.0053129048
    8    4    3    5       -0.0003469916
    8    4    3    6        0.0020128454
    8    4    3    7        0.0167635593
    8    4    3    8        0.0000000411
    8    5    3    1       -0.0023541611
    8    5    3    2        0.0013355234
    8    5    3    3       -0.0000000584
    8    5    3    4       -0.0001469258
    8    5    3    5       -0.0041809829
    8    5    3    6        0.0140309280
    8    5    3    7        0.0007729772
    8    5    3    8        0.0000000219
    8    6    3    1        0.0064468133
    8    6    3    2        0.0234486740
    8    6    3    3       -0.0000000762
    8    6    3    4        0.0055711383
    8    6    3    5        0.0229285808
    8    6    3    6       -0.0177470507
    8    6    3    7       -0.0022014970
    8    6    3    8        0.0000000166
    8    7    3    1        0.0071917887
    8    7    3    2        0.0248824974
    8    7    3    3       -0.0000000887
    8    7    3    4        0.0282517053
    8    7    3    5        0.0034222250
    8    7    3    6       -0.0025070140
    8    7    3    7       -0.0176861270
    8    7    3    8        0.0000000183
    8    8    3    1       -0.0000000398
    8    8    3    2       -0.0000002616
    8    8    3    3        0.6464105594
    8    8    3    4       -0.0000000399
    8    8    3    5       -0.0000000368
    8    8    3    6        0.0000000668
    8    8    3    7        0.0000000867
    8    8    3    8       -0.1802368036
    8    1    4    1       -0.0000000014
    8    1    4    2       -0.0000000316
    8    1    4    3       -0.0073591315
    8    1    4    4       -0.0000000254
    8    1    4    5       -0.0000000069
    8    1    4    6        0.0000000089
    8    1    4    7        0.0000000179
    8    1    4    8        0.0037206060
    8    2    4    1       -0.0000000170
    8    2    4    2       -0.0000000360
    8    2    4    3       -0.0045577814
    8    2    4    4       -0.0000000251
    8    2    4    5       -0.0000000015
    8    2    4    6        0.0000000126
    8    2    4    7        0.0000000223
    8    2    4    8        0.0038911342
    8    3    4    1        0.0027569156
    8    3    4    2        0.0046060100
    8    3    4    3        0.0000000026
    8    3    4    4       -0.1422091662
    8    3    4    5       -0.0040640878
    8    3    4    6        0.0050681669
    8    3    4    7        0.1193895167
    8    3    4    8        0.0000000411
    8    4    4    1        0.0000000110
    8    4    4    2       -0.0000000010
    8    4    4    3       -0.0046904746
    8    4    4    4       -0.0000000944
    8    4    4    5       -0.0000000008
    8    4    4    6       -0.0000000016
    8    4    4    7        0.0000000328
    8    4    4    8        0.0167126502
    8    5    4    1       -0.0000000005
    8    5    4    2        0.0000000075
    8    5    4    3       -0.0001728006
    8    5    4    4       -0.0000000393
    8    5    4    5       -0.0000000009
    8    5    4    6        0.0000000069
    8    5    4    7        0.0000000395
    8    5    4    8        0.0015400005
    8    6    4    1        0.0000000039
    8    6    4    2        0.0000000249
    8    6    4    3        0.0057516353
    8    6    4    4        0.0000000099
    8    6    4    5        0.0000000069
    8    6    4    6       -0.0000000026
    8    6    4    7       -0.0000000024
    8    6    4    8       -0.0004157386
    8    7    4    1       -0.0000000168
    8    7    4    2       -0.0000000195
    8    7    4    3        0.0276194081
    8    7    4    4       -0.0000000227
    8    7    4    5        0.0000000068
    8    7    4    6        0.0000000004
    8    7    4    7       -0.0000000071
    8    7    4    8       -0.0062146970
    8    8    4    1       -0.0043510110
    8    8    4    2        0.0069316930
    8    8    4    3       -0.0000000399
    8    8    4    4        0.5611119764
    8    8    4    5        0.0090694263
    8    8    4    6       -0.0068069182
    8    8    4    7       -0.1511413788
    8    8    4    8       -0.0000000798
    8    1    5    1        0.0000000002
    8    1    5    2       -0.0000000210
    8    1    5    3       -0.0055672659
    8    1    5    4       -0.0000000069
    8    1    5    5       -0.0000000175
    8    1    5    6        0.0000000142
    8    1    5    7        0.0000000063
    8    1    5    8        0.0027182991
    8    2    5    1       -0.0000000118
    8    2    5    2       -0.0000000260
    8    2    5    3       -0.0031543768
    8    2    5    4       -0.0000000015
    8    2    5    5       -0.0000000199
    8    2    5    6        0.0000000187
    8    2    5    7        0.0000000100
    8    2    5    8        0.0033219688
    8    3    5    1        0.0015725326
    8    3    5    2        0.0045265254
    8    3    5    3        0.0000000035
    8    3    5    4       -0.0041292928
    8    3    5    5       -0.1258067067
    8    3    5    6        0.1144222142
    8    3    5    7       -0.0035914212
    8    3    5    8        0.0000000219
    8    4    5    1       -0.0000000005
    8    4    5    2        0.0000000071
    8    4    5    3       -0.0003718956
    8    4    5    4       -0.0000000005
    8    4    5    5       -0.0000000540
    8    4    5    6        0.0000000555
    8    4    5    7        0.0000000028
    8    4    5    8        0.0015400005
    8    5    5    1        0.0000000106
    8    5    5    2        0.0000000008
    8    5    5    3       -0.0034464493
    8    5    5    4       -0.0000000012
    8    5    5    5       -0.0000000650
    8    5    5    6        0.0000000141
    8    5    5    7       -0.0000000043
    8    5    5    8        0.0161064713
    8    6    5    1       -0.0000000153
    8    6    5    2       -0.0000000178
    8    6    5    3        0.0221523700
    8    6    5    4        0.0000000065
    8    6    5    5       -0.0000000168
    8    6    5    6        0.0000000010
    8    6    5    7        0.0000000034
    8    6    5    8       -0.0055987543
    8    7    5    1        0.0000000043
    8    7    5    2        0.0000000250
    8    7    5    3        0.0036393890
    8    7    5    4        0.0000000072
    8    7    5    5        0.0000000101
    8    7    5    6        0.0000000008
    8    7    5    7       -0.0000000002
    8    7    5    8        0.0004120867
    8    8    5    1       -0.0026555665
    8    8    5    2        0.0036470416
    8    8    5    3       -0.0000000368
    8    8    5    4        0.0090694263
    8    8    5    5        0.5266384123
    8    8    5    6       -0.1580120821
    8    8    5    7        0.0047259901
    8    8    5    8       -0.0000000571
    8    1    6    1       -0.0000000166
    8    1    6    2        0.0000000243
    8    1    6    3        0.0082947747
    8    1    6    4        0.0000000085
    8    1    6    5        0.0000000119
    8    1    6    6       -0.0000000269
    8    1    6    7       -0.0000000103
    8    1    6    8       -0.0096168592
    8    2    6    1        0.0000000147
    8    2    6    2        0.0000000480
    8    2    6    3        0.0117887775
    8    2    6    4        0.0000000119
    8    2    6    5        0.0000000268
    8    2    6    6       -0.0000000151
    8    2    6    7       -0.0000000139
    8    2    6    8       -0.0078990675
    8    3    6    1       -0.0043209417
    8    3    6    2        0.0131227067
    8    3    6    3       -0.0000000513
    8    3    6    4        0.0042380245
    8    3    6    5        0.1106370872
    8    3    6    6       -0.1556315119
    8    3    6    7        0.0038178124
    8    3    6    8        0.0000000166
    8    4    6    1       -0.0000000004
    8    4    6    2        0.0000000089
    8    4    6    3        0.0017165652
    8    4    6    4       -0.0000000037
    8    4    6    5        0.0000000545
    8    4    6    6       -0.0000000633
    8    4    6    7        0.0000000017
    8    4    6    8       -0.0004157386
    8    5    6    1       -0.0000000143
    8    5    6    2        0.0000000044
    8    5    6    3        0.0143427637
    8    5    6    4        0.0000000084
    8    5    6    5        0.0000000096
    8    5    6    6       -0.0000000633
    8    5    6    7        0.0000000046
    8    5    6    8       -0.0055987543
    8    6    6    1        0.0000000228
    8    6    6    2        0.0000000203
    8    6    6    3       -0.0178134834
    8    6    6    4       -0.0000000027
    8    6    6    5       -0.0000000013
    8    6    6    6       -0.0000000183
    8    6    6    7       -0.0000000025
    8    6    6    8        0.0246484330
    8    7    6    1       -0.0000000072
    8    7    6    2       -0.0000000250
    8    7    6    3       -0.0027289646
    8    7    6    4        0.0000000003
    8    7    6    6        0.0000000141
    8    7    6    7       -0.0000000052
    8    7    6    8        0.0054427566
    8    8    6    1        0.0062284470
    8    8    6    2       -0.0164041101
    8    8    6    3        0.0000000668
    8    8    6    4       -0.0068069182
    8    8    6    5       -0.1580120821
    8    8    6    6        0.5460456103
    8    8    6    7       -0.0018686834
    8    8    6    8       -0.0000000550
    8    1    7    1       -0.0000000190
    8    1    7    2        0.0000000255
    8    1    7    3        0.0088894229
    8    1    7    4        0.0000000152
    8    1    7    5        0.0000000061
    8    1    7    6       -0.0000000103
    8    1    7    7       -0.0000000322
    8    1    7    8       -0.0105899062
    8    2    7    1        0.0000000168
    8    2    7    2        0.0000000502
    8    2    7    3        0.0118031244
    8    2    7    4        0.0000000296
    8    2    7    5        0.0000000086
    8    2    7    6       -0.0000000138
    8    2    7    7       -0.0000000101
    8    2    7    8       -0.0079060570
    8    3    7    1       -0.0045923312
    8    3    7    2        0.0096047517
    8    3    7    3       -0.0000000718
    8    3    7    4        0.1137733836
    8    3    7    5       -0.0041888798
    8    3    7    6        0.0039378188
    8    3    7    7       -0.1714959200
    8    3    7    8        0.0000000183
    8    4    7    1       -0.0000000164
    8    4    7    2        0.0000000046
    8    4    7    3        0.0169051298
    8    4    7    4        0.0000000298
    8    4    7    5        0.0000000038
    8    4    7    6        0.0000000012
    8    4    7    7       -0.0000000962
    8    4    7    8       -0.0062146970
    8    5    7    1        0.0000000008
    8    5    7    2        0.0000000061
    8    5    7    3        0.0005170807
    8    5    7    4        0.0000000393
    8    5    7    5       -0.0000000067
    8    5    7    6        0.0000000054
    8    5    7    7       -0.0000000434
    8    5    7    8        0.0004120867
    8    6    7    1       -0.0000000070
    8    6    7    2       -0.0000000221
    8    6    7    3       -0.0023617241
    8    6    7    4       -0.0000000032
    8    6    7    5        0.0000000037
    8    6    7    6       -0.0000000025
    8    6    7    7        0.0000000100
    8    6    7    8        0.0054427566
    8    7    7    1        0.0000000288
    8    7    7    2        0.0000000264
    8    7    7    3       -0.0178482465
    8    7    7    4       -0.0000000091
    8    7    7    5       -0.0000000003
    8    7    7    6       -0.0000000052
    8    7    7    7       -0.0000000358
    8    7    7    8        0.0299638215
    8    8    7    1        0.0063922434
    8    8    7    2       -0.0104802765
    8    8    7    3        0.0000000867
    8    8    7    4       -0.1511413788
    8    8    7    5        0.0047259901
    8    8    7    6       -0.0018686834
    8    8    7    7        0.5817084923
    8    8    7    8       -0.0000000577
    8    1    8    1        0.0525933940
    8    1    8    2        0.0262980383
    8    1    8    3       -0.0000000557
    8    1    8    4        0.0034990363
    8    1    8    5        0.0025506214
    8    1    8    6       -0.0094917800
    8    1    8    7       -0.0104509331
    8    1    8    8        0.0000000724
    8    2    8    1        0.0262980383
    8    2    8    2        0.0500116100
    8    2    8    3       -0.0000000647
    8    2    8    4        0.0036262071
    8    2    8    5        0.0030108132
    8    2    8    6       -0.0085695616
    8    2    8    7       -0.0086178358
    8    2    8    8        0.0000000848
    8    3    8    1       -0.0000000557
    8    3    8    2       -0.0000000647
    8    3    8    3        0.1520362194
    8    3    8    4        0.0000000433
    8    3    8    5        0.0000000248
    8    3    8    6        0.0000000149
    8    3    8    7        0.0000000170
    8    3    8    8       -0.1802368036
    8    4    8    1        0.0034990363
    8    4    8    2        0.0036262071
    8    4    8    3        0.0000000433
    8    4    8    4        0.0161622311
    8    4    8    5        0.0014534369
    8    4    8    6       -0.0003653847
    8    4    8    7       -0.0064243236
    8    4    8    8       -0.0000000798
    8    5    8    1        0.0025506214
    8    5    8    2        0.0030108132
    8    5    8    3        0.0000000248
    8    5    8    4        0.0014534369
    8    5    8    5        0.0169892762
    8    5    8    6       -0.0057907219
    8    5    8    7        0.0004626370
    8    5    8    8       -0.0000000571
    8    6    8    1       -0.0094917800
    8    6    8    2       -0.0085695616
    8    6    8    3        0.0000000149
    8    6    8    4       -0.0003653847
    8    6    8    5       -0.0057907219
    8    6    8    6        0.0246484330
    8    6    8    7        0.0054427566
    8    6    8    8       -0.0000000550
    8    7    8    1       -0.0104509331
    8    7    8    2       -0.0086178358
    8    7    8    3        0.0000000170
    8    7    8    4       -0.0064243236
    8    7    8    5        0.0004626370
    8    7    8    6        0.0054427566
    8    7    8    7        0.0299638215
    8    7    8    8       -0.0000000577
    8    8    8    1        0.0000000724
    8    8    8    2        0.0000000848
    8    8    8    3       -0.1802368036
    8    8    8    4       -0.0000000798
    8    8    8    5       -0.0000000571
    8    8    8    6       -0.0000000550
    8    8    8    7       -0.0000000577
    8    8    8    8        0.6027206212
 end_two_electron_integrals

 Parallel integral file used      16 records with       0 large values


 Task  times  cpu:       26.7s     wall:       28.4s


                                NWChem Input Module
                                -------------------


 Summary of allocated global arrays
-----------------------------------
  No active global arrays


MA_summarize_allocated_blocks: starting scan ...
MA_summarize_allocated_blocks: scan completed: 0 heap blocks, 0 stack blocks
MA usage statistics:

	allocation statistics:
					      heap	     stack
					      ----	     -----
	current number of blocks	         0	         0
	maximum number of blocks	        18	        42
	current total bytes		         0	         0
	maximum total bytes		  25775928	4725685688
	maximum total K-bytes		     25776	   4725686
	maximum total M-bytes		        26	      4726


                                     CITATION
                                     --------
                Please cite the following reference when publishing
                           results obtained with NWChem:

          E. Apra, E. J. Bylaska, W. A. de Jong, N. Govind, K. Kowalski,
       T. P. Straatsma, M. Valiev, H. J. J. van Dam, Y. Alexeev, J. Anchell,
       V. Anisimov, F. W. Aquino, R. Atta-Fynn, J. Autschbach, N. P. Bauman,
     J. C. Becca, D. E. Bernholdt, K. Bhaskaran-Nair, S. Bogatko, P. Borowski,
         J. Boschen, J. Brabec, A. Bruner, E. Cauet, Y. Chen, G. N. Chuev,
      C. J. Cramer, J. Daily, M. J. O. Deegan, T. H. Dunning Jr., M. Dupuis,
   K. G. Dyall, G. I. Fann, S. A. Fischer, A. Fonari, H. Fruchtl, L. Gagliardi,
      J. Garza, N. Gawande, S. Ghosh, K. Glaesemann, A. W. Gotz, J. Hammond,
       V. Helms, E. D. Hermes, K. Hirao, S. Hirata, M. Jacquelin, L. Jensen,
   B. G. Johnson, H. Jonsson, R. A. Kendall, M. Klemm, R. Kobayashi, V. Konkov,
      S. Krishnamoorthy, M. Krishnan, Z. Lin, R. D. Lins, R. J. Littlefield,
      A. J. Logsdail, K. Lopata, W. Ma, A. V. Marenich, J. Martin del Campo,
   D. Mejia-Rodriguez, J. E. Moore, J. M. Mullin, T. Nakajima, D. R. Nascimento,
    J. A. Nichols, P. J. Nichols, J. Nieplocha, A. Otero-de-la-Roza, B. Palmer,
    A. Panyala, T. Pirojsirikul, B. Peng, R. Peverati, J. Pittner, L. Pollack,
   R. M. Richard, P. Sadayappan, G. C. Schatz, W. A. Shelton, D. W. Silverstein,
   D. M. A. Smith, T. A. Soares, D. Song, M. Swart, H. L. Taylor, G. S. Thomas,
            V. Tipparaju, D. G. Truhlar, K. Tsemekhman, T. Van Voorhis,
      A. Vazquez-Mayagoitia, P. Verma, O. Villa, A. Vishnu, K. D. Vogiatzis,
        D. Wang, J. H. Weare, M. J. Williamson, T. L. Windus, K. Wolinski,
        A. T. Wong, Q. Wu, C. Yang, Q. Yu, M. Zacharias, Z. Zhang, Y. Zhao,
                                and R. J. Harrison
                        "NWChem: Past, present, and future
                         J. Chem. Phys. 152, 184102 (2020)
                               doi:10.1063/5.0004997

                                      AUTHORS
                                      -------
  E. Apra, E. J. Bylaska, N. Govind, K. Kowalski, M. Valiev, D. Mejia-Rodriguez,
       A. Kunitsa, N. P. Bauman, A. Panyala, W. A. de Jong, T. P. Straatsma,
        H. J. J. van Dam, D. Wang, T. L. Windus, J. Hammond, J. Autschbach,
    K. Bhaskaran-Nair, J. Brabec, K. Lopata, S. A. Fischer, S. Krishnamoorthy,
     M. Jacquelin, W. Ma, M. Klemm, O. Villa, Y. Chen, V. Anisimov, F. Aquino,
    S. Hirata, M. T. Hackler, Eric Hermes, L. Jensen, J. E. Moore, J. C. Becca,
      V. Konjkov, T. Risthaus, M. Malagoli, A. Marenich, A. Otero-de-la-Roza,
        J. Mullin, P. Nichols, R. Peverati, J. Pittner, Y. Zhao, P.-D. Fan,
        A. Fonari, M. J. Williamson, R. J. Harrison, J. R. Rehr, M. Dupuis,
     D. Silverstein, D. M. A. Smith, J. Nieplocha, V. Tipparaju, M. Krishnan,
     B. E. Van Kuiken, A. Vazquez-Mayagoitia, M. Swart, Q. Wu, T. Van Voorhis,
     A. A. Auer, M. Nooijen, L. D. Crosby, E. Brown, G. Cisneros, G. I. Fann,
   H. Fruchtl, J. Garza, K. Hirao, R. A. Kendall, J. A. Nichols, K. Tsemekhman,
    K. Wolinski, J. Anchell, D. E. Bernholdt, P. Borowski, T. Clark, D. Clerc,
   H. Dachsel, M. J. O. Deegan, K. Dyall, D. Elwood, E. Glendening, M. Gutowski,
   A. C. Hess, J. Jaffe, B. G. Johnson, J. Ju, R. Kobayashi, R. Kutteh, Z. Lin,
   R. Littlefield, X. Long, B. Meng, T. Nakajima, S. Niu, L. Pollack, M. Rosing,
   K. Glaesemann, G. Sandrone, M. Stave, H. Taylor, G. Thomas, J. H. van Lenthe,
                               A. T. Wong, Z. Zhang.

 Total times  cpu:       31.7s     wall:       36.9s
