 argument  1 = input.nw
  NWChem w/ OpenMP: maximum threads =    1



============================== echo of input deck ==============================
 echo
 start H2O
 title "H2O"

 memory total 24 gb

 geometry units bohr
 symmetry c1
        O  0.00000000  0.00000000  0.00000000
        H  0.00000000  2.5623955  0.00000000
        H  1.72558000 -0.64860000  0.00000000
 end

 basis spherical
   * library cc-pVTZ
 end

 mcscf
   active  8
   actelec 10
   multiplicity 1
   maxiter 40
   vectors input h2o.mos
   vectors output h2o.mos
 end

 task mcscf

 scf
   vectors input h2o.mos
   vectors output h2o-trash.mos
   noscf
 end

 tce
   2eorb
   2emet 13
   ccsd
 end

# set tce:print_integrals T
# set tce:qorb 8
# set tce:qela 5
# set tce:qelb 5

 set tce:qducc T
 set tce:nactv 3
 set tce:nonhf T
 set tce:ducc_model 3

 set tce:printtol 0.02

 task tce
================================================================================


                                         
                                         


             Northwest Computational Chemistry Package (NWChem) 7.0.1
             --------------------------------------------------------


                    Environmental Molecular Sciences Laboratory
                       Pacific Northwest National Laboratory
                                Richland, WA 99352

                              Copyright (c) 1994-2020
                       Pacific Northwest National Laboratory
                            Battelle Memorial Institute

             NWChem is an open-source computational chemistry package
                        distributed under the terms of the
                      Educational Community License (ECL) 2.0
             A copy of the license is included with this distribution
                              in the LICENSE.TXT file

                                  ACKNOWLEDGMENT
                                  --------------

            This software and its documentation were developed at the
            EMSL at Pacific Northwest National Laboratory, a multiprogram
            national laboratory, operated for the U.S. Department of Energy
            by Battelle under Contract Number DE-AC05-76RL01830. Support
            for this work was provided by the Department of Energy Office
            of Biological and Environmental Research, Office of Basic
            Energy Sciences, and the Office of Advanced Scientific Computing.


           Job information
           ---------------

    hostname        = WE46210
    program         = /home/baum612/code/nwchem/bin/LINUX64/nwchem
    date            = Tue Feb 20 12:30:59 2024

    compiled        = Fri_Feb_16_11:09:52_2024
    source          = /home/baum612/code/nwchem
    nwchem branch   = 7.0.0
    nwchem revision = nwchem_on_git-4191-g39d87d64de
    ga revision     = 5.8.1
    use scalapack   = F
    input           = input.nw
    prefix          = H2O.
    data base       = ./H2O.db
    status          = startup
    nproc           =        1
    time left       =     -1s



           Memory information
           ------------------

    heap     =  805306366 doubles =   6144.0 Mbytes
    stack    =  805306363 doubles =   6144.0 Mbytes
    global   = 1610612736 doubles =  12288.0 Mbytes (distinct from heap & stack)
    total    = 3221225465 doubles =  24576.0 Mbytes
    verify   = yes
    hardfail = no 


           Directory information
           ---------------------

  0 permanent = .
  0 scratch   = .




                                NWChem Input Module
                                -------------------


                                        H2O
                                        ---
 Turning off AUTOSYM since
 SYMMETRY directive was detected!


          ------
          auto-z
          ------
  autoz: The atoms group into disjoint clusters
 cluster   1:    1    3
 cluster   2:    2
 Connecting clusters   1   2 via atoms    1    2 r = 1.36
  autoz: regenerating connections with new bonds
  no constraints, skipping    0.0000000000000000     
  no constraints, skipping    0.0000000000000000     


                             Geometry "geometry" -> ""
                             -------------------------

 Output coordinates in a.u. (scale by  1.000000000 to convert to a.u.)

  No.       Tag          Charge          X              Y              Z
 ---- ---------------- ---------- -------------- -------------- --------------
    1 O                    8.0000    -0.17255800    -0.19137955     0.00000000
    2 H                    1.0000    -0.17255800     2.37101595     0.00000000
    3 H                    1.0000     1.55302200    -0.83997955     0.00000000

      Atomic Mass 
      ----------- 

      O                 15.994910
      H                  1.007825


 Effective nuclear repulsion energy (a.u.)       7.7360942686

            Nuclear Dipole moment (a.u.) 
            ----------------------------
        X                 Y               Z
 ---------------- ---------------- ----------------
    -0.0000000000     0.0000000000     0.0000000000



                                Z-matrix (autoz)
                                -------- 

 Units are Angstrom for bonds and degrees for angles

      Type          Name      I     J     K     L     M      Value
      ----------- --------  ----- ----- ----- ----- ----- ----------
    1 Stretch                  1     2                       1.35596
    2 Stretch                  1     3                       0.97551
    3 Bend                     2     1     3               110.59992


            XYZ format geometry
            -------------------
     3
 geometry
 O                    -0.09131377    -0.10127370     0.00000000
 H                    -0.09131377     1.25468770     0.00000000
 H                     0.82182391    -0.44449807     0.00000000

 ==============================================================================
                                internuclear distances
 ------------------------------------------------------------------------------
       center one      |      center two      | atomic units |       a.u.
 ------------------------------------------------------------------------------
    3 H                |   1 O                |     1.84345  |     1.84345
 ------------------------------------------------------------------------------
                         number of included internuclear distances:          1
 ==============================================================================





 Summary of "ao basis" -> "" (spherical)
 ------------------------------------------------------------------------------
       Tag                 Description            Shells   Functions and Types
 ---------------- ------------------------------  ------  ---------------------
 *                          cc-pVTZ                   on all atoms 


                      Basis "ao basis" -> "ao basis" (spherical)
                      -----
  O (Oxygen)
  ----------
            Exponent  Coefficients 
       -------------- ---------------------------------------------------------
  1 S  1.53300000E+04  0.000508
  1 S  2.29900000E+03  0.003929
  1 S  5.22400000E+02  0.020243
  1 S  1.47300000E+02  0.079181
  1 S  4.75500000E+01  0.230687
  1 S  1.67600000E+01  0.433118
  1 S  6.20700000E+00  0.350260
  1 S  6.88200000E-01 -0.008154

  2 S  1.53300000E+04 -0.000115
  2 S  2.29900000E+03 -0.000895
  2 S  5.22400000E+02 -0.004636
  2 S  1.47300000E+02 -0.018724
  2 S  4.75500000E+01 -0.058463
  2 S  1.67600000E+01 -0.136463
  2 S  6.20700000E+00 -0.175740
  2 S  6.88200000E-01  0.603418

  3 S  1.75200000E+00  1.000000

  4 S  2.38400000E-01  1.000000

  5 P  3.44600000E+01  0.015928
  5 P  7.74900000E+00  0.099740
  5 P  2.28000000E+00  0.310492

  6 P  7.15600000E-01  1.000000

  7 P  2.14000000E-01  1.000000

  8 D  2.31400000E+00  1.000000

  9 D  6.45000000E-01  1.000000

 10 F  1.42800000E+00  1.000000

  H (Hydrogen)
  ------------
            Exponent  Coefficients 
       -------------- ---------------------------------------------------------
  1 S  3.38700000E+01  0.006068
  1 S  5.09500000E+00  0.045308
  1 S  1.15900000E+00  0.202822

  2 S  3.25800000E-01  1.000000

  3 S  1.02700000E-01  1.000000

  4 P  1.40700000E+00  1.000000

  5 P  3.88000000E-01  1.000000

  6 D  1.05700000E+00  1.000000



 Summary of "ao basis" -> "ao basis" (spherical)
 ------------------------------------------------------------------------------
       Tag                 Description            Shells   Functions and Types
 ---------------- ------------------------------  ------  ---------------------
 O                          cc-pVTZ                 10       30   4s3p2d1f
 H                          cc-pVTZ                  6       14   3s2p1d



                            NWChem Direct MCSCF Module
                            --------------------------


                                        H2O


     -----------------------------------
       Basis functions:             58
       Inactive shells:              0
       Active shells:                8
       Active electrons:            10
       Symmetry:                    a       
       Multiplicity:                 1
       Orbital rotations:          400
     -----------------------------------

     -----------------------------------
       E2 extrapolation:             F
       Conjugacy:                    T
       Micro CI relax:               T
       Canonical orbitals:           T
       Maximum iterations:          40
       Converge threshold:    1.00E-04
       Conjugacy resets:            20
       Initial levelshift:        0.10
     -----------------------------------

 Loading old vectors from job with title :

H2O


   input molecular orbitals = ./h2o.mos
  output molecular orbtials = ./h2o.mos

       No. of determinants:          3136


  Starting Orbital Energies
   -20.570162    -1.294115    -0.668012    -0.543337    -0.519386    -0.046856
    -0.026076    -0.015200     0.315972     0.339853     0.606863     0.740320
     0.805722     0.836755     0.965327     1.063868     1.104890     1.273357
     1.410303     1.851132     2.038487     2.052661     2.170913     2.278612
     2.695142     2.780782     3.340644     3.427042     3.433373     3.441513
     3.561649     3.574140     3.651389     3.845355     3.862781     3.979180
     4.000153     4.058248     4.153894     4.193282     4.457322     4.513531
     4.864571     5.023067     5.423995     5.751220     5.885790     6.006793
     6.524203     6.868157     6.931405     6.940609     7.020941     7.096678
     7.107584     7.524842     7.669018    10.997737

  Orbital Symmetry Irreps
a    a    a    a    a    a    a    a    a    a    a    a    a    a    a   
a    a    a    a    a    a    a    a    a    a    a    a    a    a    a   
a    a    a    a    a    a    a    a    a    a    a    a    a    a    a   
a    a    a    a    a    a    a    a    a    a    a    a    a   

 Integral file          = ./H2O.aoints.0
 Record size in doubles =  65536        No. of integs per rec  =  43688
 Max. records in memory =     49        Max. records in file   = 252456
 No. of bits per label  =      8        No. of bits per value  =     64


 #quartets = 3.213D+04 #integrals = 6.608D+05 #direct =  0.0% #cached =100.0%




          %%%%% MacroIteration   1 %%%%%


          Number of sigma calls:       16
                       o<<<<< (aa):             0.01
                       o<<<<< (bb):             0.04
                       o<<<<< (ab):             0.15
                       o<<<<< (total)           0.19
                       o<<<<< (aa) ff           0.00
                       o<<<<< (aa) gop          0.00
                       o<<<<< (aa) dot          0.00
                       o<<<<< (ab) str          0.00
                       o<<<<< (ab) gath         0.00
                       o<<<<< (ab) dotab        0.00
                       o<<<<< (ab) scat         0.00
                       o<<<<< (ab) sync         0.00
                       o<<<<< Density           0.01
                       o<<<<< Density one       0.00
                       o<<<<< Density two       0.01
                       o<<<<< Density ab        0.00
                       o<<<<< Spin adapt        0.38
                       o<<<<< Symm adapt        0.00

                       o<<<<< (ab) max sync:      0.00

           >>>| Valence CI:            -83.816809606801
           >>>| MCSCF energy:          -76.080715338209
           >>>| Gradient norm:          0.111531122D-01

                              ----- Line search ------

        step       energy         lsg     num-lsg   num-lsh   lsrat    time
      ------- ---------------- --------- --------- --------- ------- --------
       0.0000     -76.08071534 -1.68D-05  0.00D+00  0.00D+00 0.0D+00      2.0

          Number of sigma calls:       15
                       o<<<<< (aa):             0.00
                       o<<<<< (bb):             0.01
                       o<<<<< (ab):             0.12
                       o<<<<< (total)           0.13
                       o<<<<< (aa) ff           0.00
                       o<<<<< (aa) gop          0.00
                       o<<<<< (aa) dot          0.00
                       o<<<<< (ab) str          0.00
                       o<<<<< (ab) gath         0.00
                       o<<<<< (ab) dotab        0.00
                       o<<<<< (ab) scat         0.00
                       o<<<<< (ab) sync         0.00
                       o<<<<< Density           0.01
                       o<<<<< Density one       0.00
                       o<<<<< Density two       0.01
                       o<<<<< Density ab        0.00
                       o<<<<< Spin adapt        0.47
                       o<<<<< Symm adapt        0.00

                       o<<<<< (ab) max sync:      0.00
       1.0000     -76.08072457 -1.67D-06 -1.67D-06  1.51D-05 1.0D-01      2.8
     --- Orbitals canonicalized ---



          %%%%% MacroIteration   2 %%%%%


          Number of sigma calls:       15
                       o<<<<< (aa):             0.01
                       o<<<<< (bb):             0.00
                       o<<<<< (ab):             0.12
                       o<<<<< (total)           0.14
                       o<<<<< (aa) ff           0.00
                       o<<<<< (aa) gop          0.00
                       o<<<<< (aa) dot          0.00
                       o<<<<< (ab) str          0.00
                       o<<<<< (ab) gath         0.00
                       o<<<<< (ab) dotab        0.00
                       o<<<<< (ab) scat         0.00
                       o<<<<< (ab) sync         0.00
                       o<<<<< Density           0.02
                       o<<<<< Density one       0.00
                       o<<<<< Density two       0.01
                       o<<<<< Density ab        0.01
                       o<<<<< Spin adapt        0.37
                       o<<<<< Symm adapt        0.00

                       o<<<<< (ab) max sync:      0.00

           >>>| Valence CI:            -83.816818836700
           >>>| MCSCF energy:          -76.080724568108
           >>>| Gradient norm:          0.132754381D-02
     --- Warning:    3 Hessian diagonals < 0.05 ---
     --- Conjugacy reset ---

                              ----- Line search ------

        step       energy         lsg     num-lsg   num-lsh   lsrat    time
      ------- ---------------- --------- --------- --------- ------- --------
       0.0000     -76.08072457 -6.28D-07  0.00D+00  0.00D+00 0.0D+00      3.8

          Number of sigma calls:       12
                       o<<<<< (aa):             0.00
                       o<<<<< (bb):             0.00
                       o<<<<< (ab):             0.11
                       o<<<<< (total)           0.11
                       o<<<<< (aa) ff           0.00
                       o<<<<< (aa) gop          0.00
                       o<<<<< (aa) dot          0.00
                       o<<<<< (ab) str          0.00
                       o<<<<< (ab) gath         0.00
                       o<<<<< (ab) dotab        0.00
                       o<<<<< (ab) scat         0.00
                       o<<<<< (ab) sync         0.00
                       o<<<<< Density           0.02
                       o<<<<< Density one       0.00
                       o<<<<< Density two       0.01
                       o<<<<< Density ab        0.01
                       o<<<<< Spin adapt        0.39
                       o<<<<< Symm adapt        0.00

                       o<<<<< (ab) max sync:      0.00
       1.0000     -76.08072500 -2.44D-07 -2.45D-07  3.84D-07 3.9D-01      4.5

          Number of sigma calls:       12
                       o<<<<< (aa):             0.00
                       o<<<<< (bb):             0.00
                       o<<<<< (ab):             0.12
                       o<<<<< (total)           0.12
                       o<<<<< (aa) ff           0.00
                       o<<<<< (aa) gop          0.00
                       o<<<<< (aa) dot          0.00
                       o<<<<< (ab) str          0.00
                       o<<<<< (ab) gath         0.00
                       o<<<<< (ab) dotab        0.00
                       o<<<<< (ab) scat         0.00
                       o<<<<< (ab) sync         0.00
                       o<<<<< Density           0.01
                       o<<<<< Density one       0.00
                       o<<<<< Density two       0.00
                       o<<<<< Density ab        0.01
                       o<<<<< Spin adapt        0.35
                       o<<<<< Symm adapt        0.00

                       o<<<<< (ab) max sync:      0.00
       1.6369     -76.08072508  7.01D-10  6.58D-10  3.85D-07 1.1D-03      5.1



          %%%%% MacroIteration   3 %%%%%


          Number of sigma calls:        1
                       o<<<<< (aa):             0.00
                       o<<<<< (bb):             0.00
                       o<<<<< (ab):             0.01
                       o<<<<< (total)           0.01
                       o<<<<< (aa) ff           0.00
                       o<<<<< (aa) gop          0.00
                       o<<<<< (aa) dot          0.00
                       o<<<<< (ab) str          0.00
                       o<<<<< (ab) gath         0.00
                       o<<<<< (ab) dotab        0.00
                       o<<<<< (ab) scat         0.00
                       o<<<<< (ab) sync         0.00
                       o<<<<< Density           0.01
                       o<<<<< Density one       0.00
                       o<<<<< Density two       0.00
                       o<<<<< Density ab        0.01
                       o<<<<< Spin adapt        0.00
                       o<<<<< Symm adapt        0.00

                       o<<<<< (ab) max sync:      0.00

           >>>| Valence CI:            -83.816819350795
           >>>| MCSCF energy:          -76.080725082202
           >>>| Gradient norm:          0.193578928D-03
     --- Warning:    3 Hessian diagonals < 0.05 ---

                              ----- Line search ------

        step       energy         lsg     num-lsg   num-lsh   lsrat    time
      ------- ---------------- --------- --------- --------- ------- --------
       0.0000     -76.08072508 -1.28D-08  0.00D+00  0.00D+00 0.0D+00      5.3

          Number of sigma calls:       10
                       o<<<<< (aa):             0.00
                       o<<<<< (bb):             0.03
                       o<<<<< (ab):             0.10
                       o<<<<< (total)           0.13
                       o<<<<< (aa) ff           0.00
                       o<<<<< (aa) gop          0.00
                       o<<<<< (aa) dot          0.00
                       o<<<<< (ab) str          0.00
                       o<<<<< (ab) gath         0.00
                       o<<<<< (ab) dotab        0.00
                       o<<<<< (ab) scat         0.00
                       o<<<<< (ab) sync         0.00
                       o<<<<< Density           0.01
                       o<<<<< Density one       0.01
                       o<<<<< Density two       0.00
                       o<<<<< Density ab        0.00
                       o<<<<< Spin adapt        0.37
                       o<<<<< Symm adapt        0.00

                       o<<<<< (ab) max sync:      0.00
       1.0000     -76.08072509 -1.41D-09 -1.41D-09  1.14D-08 1.1D-01      6.1

          Number of sigma calls:        8
                       o<<<<< (aa):             0.01
                       o<<<<< (bb):             0.00
                       o<<<<< (ab):             0.05
                       o<<<<< (total)           0.06
                       o<<<<< (aa) ff           0.00
                       o<<<<< (aa) gop          0.00
                       o<<<<< (aa) dot          0.00
                       o<<<<< (ab) str          0.00
                       o<<<<< (ab) gath         0.00
                       o<<<<< (ab) dotab        0.00
                       o<<<<< (ab) scat         0.00
                       o<<<<< (ab) sync         0.00
                       o<<<<< Density           0.03
                       o<<<<< Density one       0.01
                       o<<<<< Density two       0.00
                       o<<<<< Density ab        0.02
                       o<<<<< Spin adapt        0.28
                       o<<<<< Symm adapt        0.00

                       o<<<<< (ab) max sync:      0.00
       1.1237     -76.08072509  6.58D-14  1.42D-12  1.14D-08 5.1D-06      6.6



          %%%%% MacroIteration   4 %%%%%


          Number of sigma calls:        1
                       o<<<<< (aa):             0.00
                       o<<<<< (bb):             0.00
                       o<<<<< (ab):             0.01
                       o<<<<< (total)           0.01
                       o<<<<< (aa) ff           0.00
                       o<<<<< (aa) gop          0.00
                       o<<<<< (aa) dot          0.00
                       o<<<<< (ab) str          0.00
                       o<<<<< (ab) gath         0.00
                       o<<<<< (ab) dotab        0.00
                       o<<<<< (ab) scat         0.00
                       o<<<<< (ab) sync         0.00
                       o<<<<< Density           0.02
                       o<<<<< Density one       0.01
                       o<<<<< Density two       0.00
                       o<<<<< Density ab        0.01
                       o<<<<< Spin adapt        0.00
                       o<<<<< Symm adapt        0.00

                       o<<<<< (ab) max sync:      0.00

           >>>| Valence CI:            -83.816819357982
           >>>| MCSCF energy:          -76.080725089391
           >>>| Gradient norm:          0.264685542D-04




     ==============================
            MCSCF Converged
     ==============================



          Canonical Eigenvalues

              1      
    1  -20.5708
    2   -1.2937
    3   -0.6672
    4   -0.5420
    5   -0.5196
    6   -0.0477
    7   -0.0261
    8   -0.0152
    9    0.3161
   10    0.3403
   11    0.6068
   12    0.7424
   13    0.8048
   14    0.8378
   15    0.9649
   16    1.0615
   17    1.1002
   18    1.2752
   19    1.4100
   20    1.8475
   21    2.0364
   22    2.0528
   23    2.1710
   24    2.2735
   25    2.6978
   26    2.7798
   27    3.3414
   28    3.4265
   29    3.4299
   30    3.4395
   31    3.5562
   32    3.5745
   33    3.6476
   34    3.8414
   35    3.8620
   36    3.9748
   37    3.9973
   38    4.0569
   39    4.1507
   40    4.1898
   41    4.4552
   42    4.5083
   43    4.8590
   44    5.0171
   45    5.4181
   46    5.7468
   47    5.8774
   48    5.9950
   49    6.5016
   50    6.8672
   51    6.9279
   52    6.9371
   53    7.0111
   54    7.0954
   55    7.1061
   56    7.5194
   57    7.6694
   58   10.9878


          Converged CI vector

   Index           Coefficient          Config. Occupation
         1         -0.96022725          1  2  3  4  5  1  2  3  4  5
        22          0.07470347          1  2  3  4  5  1  2  3  4  8
         3          0.06488504          1  2  3  4  5  1  2  3  5  6
         8          0.02084176          1  2  3  4  5  1  2  3  5  7
        27         -0.02168994          1  2  3  4  5  1  2  3  6  8
         4          0.02527923          1  2  3  4  5  1  2  4  5  6
         9         -0.04238442          1  2  3  4  5  1  2  4  5  7
        38          0.02317722          1  2  3  4  5  1  2  4  7  8
      1177          0.07470347          1  2  3  4  8  1  2  3  4  5
      1198          0.05160373          1  2  3  4  8  1  2  3  4  8
      1179          0.02988311          1  2  3  4  8  1  2  3  5  6
      1185         -0.03033441          1  2  3  4  8  1  2  4  5  7
       113          0.06488504          1  2  3  5  6  1  2  3  4  5
       134          0.02988311          1  2  3  5  6  1  2  3  4  8
       115          0.12548073          1  2  3  5  6  1  2  3  5  6
       116          0.06094470          1  2  3  5  6  1  2  4  5  6
       121         -0.02160483          1  2  3  5  6  1  2  4  5  7
       117          0.02219680          1  2  3  5  6  1  3  4  5  6
       393          0.02084176          1  2  3  5  7  1  2  3  4  5
       401         -0.02129910          1  2  3  5  7  1  2  4  5  7
      1457         -0.02168994          1  2  3  6  8  1  2  3  4  5
       169          0.02527923          1  2  4  5  6  1  2  3  4  5
       171          0.06094470          1  2  4  5  6  1  2  3  5  6
       172          0.04259493          1  2  4  5  6  1  2  4  5  6
       449         -0.04238442          1  2  4  5  7  1  2  3  4  5
       470         -0.03033441          1  2  4  5  7  1  2  3  4  8
       451         -0.02160483          1  2  4  5  7  1  2  3  5  6
       456         -0.02129910          1  2  4  5  7  1  2  3  5  7
       457          0.05974557          1  2  4  5  7  1  2  4  5  7
       458         -0.02677620          1  2  4  5  7  1  3  4  5  7
      2073          0.02317722          1  2  4  7  8  1  2  3  4  5
       227          0.02219680          1  3  4  5  6  1  2  3  5  6
       229          0.02212180          1  3  4  5  6  1  3  4  5  6
       513         -0.02677620          1  3  4  5  7  1  2  4  5  7
       514          0.02564857          1  3  4  5  7  1  3  4  5  7

          Number of sigma calls:        1
                       o<<<<< (aa):             0.00
                       o<<<<< (bb):             0.00
                       o<<<<< (ab):             0.00
                       o<<<<< (total)           0.00
                       o<<<<< (aa) ff           0.00
                       o<<<<< (aa) gop          0.00
                       o<<<<< (aa) dot          0.00
                       o<<<<< (ab) str          0.00
                       o<<<<< (ab) gath         0.00
                       o<<<<< (ab) dotab        0.00
                       o<<<<< (ab) scat         0.00
                       o<<<<< (ab) sync         0.00
                       o<<<<< Density           0.02
                       o<<<<< Density one       0.01
                       o<<<<< Density two       0.00
                       o<<<<< Density ab        0.01
                       o<<<<< Spin adapt        0.00
                       o<<<<< Symm adapt        0.00

                       o<<<<< (ab) max sync:      0.00



          Natural orbital occupation numbers

              1      
    1    2.0000
    2    1.9982
    3    1.9803
    4    1.9743
    5    1.9309
    6    0.0708
    7    0.0264
    8    0.0191


          Number of sigma calls:       17
                       o<<<<< (aa):             0.01
                       o<<<<< (bb):             0.02
                       o<<<<< (ab):             0.16
                       o<<<<< (total)           0.18
                       o<<<<< (aa) ff           0.00
                       o<<<<< (aa) gop          0.00
                       o<<<<< (aa) dot          0.00
                       o<<<<< (ab) str          0.00
                       o<<<<< (ab) gath         0.00
                       o<<<<< (ab) dotab        0.00
                       o<<<<< (ab) scat         0.00
                       o<<<<< (ab) sync         0.00
                       o<<<<< Density           0.01
                       o<<<<< Density one       0.00
                       o<<<<< Density two       0.00
                       o<<<<< Density ab        0.01
                       o<<<<< Spin adapt        0.58
                       o<<<<< Symm adapt        0.00

                       o<<<<< (ab) max sync:      0.00


       Final MCSCF results 
       ------------------- 

       Total MCSCF energy =    -76.080725089390
            Gradient norm =      2.6D-05

    CPU time for solution =      7.6s
   Wall time for solution =     12.7s



                        Analysis of MCSCF natural orbitals
                        ----------------------------------

 Vector    1  Occ=1.999990D+00  E=-2.057083D+01  Symmetry=a
              MO Center= -9.1D-02, -1.0D-01, -9.6D-14, r^2= 1.5D-02
   Bfn.  Coefficient  Atom+Function         Bfn.  Coefficient  Atom+Function  
  ----- ------------  ---------------      ----- ------------  ---------------
     1      0.974366  1 O  s          

 Vector    2  Occ=1.998178D+00  E=-1.293723D+00  Symmetry=a
              MO Center= -2.9D-01, -1.8D-01,  7.2D-11, r^2= 4.2D-01
   Bfn.  Coefficient  Atom+Function         Bfn.  Coefficient  Atom+Function  
  ----- ------------  ---------------      ----- ------------  ---------------
     2      0.536924  1 O  s                  4      0.397245  1 O  s          

 Vector    3  Occ=1.980262D+00  E=-6.671604D-01  Symmetry=a
              MO Center= -6.3D-02, -9.4D-02, -7.4D-11, r^2= 6.5D-01
   Bfn.  Coefficient  Atom+Function         Bfn.  Coefficient  Atom+Function  
  ----- ------------  ---------------      ----- ------------  ---------------
    10      0.434849  1 O  pz                13      0.394480  1 O  pz         
     7      0.363458  1 O  pz         

 Vector    4  Occ=1.974328D+00  E=-5.419733D-01  Symmetry=a
              MO Center=  3.4D-01, -2.2D-01,  2.0D-12, r^2= 6.0D-01
   Bfn.  Coefficient  Atom+Function         Bfn.  Coefficient  Atom+Function  
  ----- ------------  ---------------      ----- ------------  ---------------
     8      0.344002  1 O  px                 5      0.287033  1 O  px         
    46      0.267350  3 H  s                 11      0.204354  1 O  px         
    45      0.184903  3 H  s          

 Vector    5  Occ=1.930926D+00  E=-5.195505D-01  Symmetry=a
              MO Center= -4.4D-02,  4.8D-01, -1.4D-13, r^2= 9.1D-01
   Bfn.  Coefficient  Atom+Function         Bfn.  Coefficient  Atom+Function  
  ----- ------------  ---------------      ----- ------------  ---------------
     9      0.333217  1 O  py                32      0.278382  2 H  s          
     6      0.264414  1 O  py                12      0.216146  1 O  py         
    31      0.150482  2 H  s          

 Vector    6  Occ=7.080272D-02  E=-4.765903D-02  Symmetry=a
              MO Center= -5.4D-02,  7.1D-01, -7.2D-13, r^2= 8.9D-01
   Bfn.  Coefficient  Atom+Function         Bfn.  Coefficient  Atom+Function  
  ----- ------------  ---------------      ----- ------------  ---------------
    32      0.514750  2 H  s                  9     -0.451783  1 O  py         
     6     -0.401037  1 O  py                31      0.237130  2 H  s          
     2     -0.192370  1 O  s                 33      0.189814  2 H  s          

 Vector    7  Occ=2.643541D-02  E=-2.608555D-02  Symmetry=a
              MO Center=  5.1D-01, -2.7D-01, -4.0D-12, r^2= 6.6D-01
   Bfn.  Coefficient  Atom+Function         Bfn.  Coefficient  Atom+Function  
  ----- ------------  ---------------      ----- ------------  ---------------
    46      0.656561  3 H  s                  5     -0.508288  1 O  px         
     8     -0.436385  1 O  px                45      0.301238  3 H  s          
     2     -0.283896  1 O  s                  4     -0.214936  1 O  s          

 Vector    8  Occ=1.907814D-02  E=-1.516508D-02  Symmetry=a
              MO Center=  3.8D-04, -6.4D-02, -8.6D-11, r^2= 1.3D+00
   Bfn.  Coefficient  Atom+Function         Bfn.  Coefficient  Atom+Function  
  ----- ------------  ---------------      ----- ------------  ---------------
    13      0.833258  1 O  pz                 7     -0.615182  1 O  pz         
    10     -0.331542  1 O  pz         

 Vector    9  Occ=0.000000D+00  E= 3.160995D-01  Symmetry=a
              MO Center=  9.0D-01, -4.7D-01,  2.1D-11, r^2= 4.0D+00
   Bfn.  Coefficient  Atom+Function         Bfn.  Coefficient  Atom+Function  
  ----- ------------  ---------------      ----- ------------  ---------------
    47      1.849329  3 H  s                  4     -1.562546  1 O  s          
    11     -0.733219  1 O  px                51     -0.500488  3 H  px         
    33      0.319919  2 H  s                 32     -0.268874  2 H  s          
    52      0.197149  3 H  py         

 Vector   10  Occ=0.000000D+00  E= 3.402533D-01  Symmetry=a
              MO Center= -8.3D-03,  1.4D+00, -3.4D-13, r^2= 4.4D+00
   Bfn.  Coefficient  Atom+Function         Bfn.  Coefficient  Atom+Function  
  ----- ------------  ---------------      ----- ------------  ---------------
    33      1.987119  2 H  s                 47     -1.165268  3 H  s          
    32     -0.953097  2 H  s                 12     -0.457026  1 O  py         
    46      0.297597  3 H  s                 11      0.170631  1 O  px         
    38     -0.166576  2 H  py         

 Vector   11  Occ=0.000000D+00  E= 6.067596D-01  Symmetry=a
              MO Center= -2.2D-01,  4.3D-01, -8.2D-12, r^2= 2.0D+00
   Bfn.  Coefficient  Atom+Function         Bfn.  Coefficient  Atom+Function  
  ----- ------------  ---------------      ----- ------------  ---------------
    46      2.433562  3 H  s                  4     -1.962472  1 O  s          
    11     -1.821841  1 O  px                51     -0.690683  3 H  px         
    12      0.386016  1 O  py                37     -0.358066  2 H  px         
    32      0.335316  2 H  s                 33     -0.240424  2 H  s          
    47      0.229874  3 H  s                  9      0.176168  1 O  py         

 Vector   12  Occ=0.000000D+00  E= 7.424095D-01  Symmetry=a
              MO Center=  7.9D-02, -4.2D-01,  2.5D-12, r^2= 2.2D+00
   Bfn.  Coefficient  Atom+Function         Bfn.  Coefficient  Atom+Function  
  ----- ------------  ---------------      ----- ------------  ---------------
    12      1.770185  1 O  py                46      1.329518  3 H  s          
    11     -1.081606  1 O  px                 4     -0.832871  1 O  s          
    32     -0.783545  2 H  s                 47      0.646557  3 H  s          
    33     -0.512601  2 H  s                 52      0.510476  3 H  py         
     9     -0.447612  1 O  py                51     -0.363156  3 H  px         

 Vector   13  Occ=0.000000D+00  E= 8.047828D-01  Symmetry=a
              MO Center=  2.0D-01,  6.7D-01,  9.5D-14, r^2= 1.9D+00
   Bfn.  Coefficient  Atom+Function         Bfn.  Coefficient  Atom+Function  
  ----- ------------  ---------------      ----- ------------  ---------------
    39      0.863722  2 H  pz                53     -0.654206  3 H  pz         

 Vector   14  Occ=0.000000D+00  E= 8.377631D-01  Symmetry=a
              MO Center= -3.1D-01, -2.8D-02, -5.4D-12, r^2= 2.4D+00
   Bfn.  Coefficient  Atom+Function         Bfn.  Coefficient  Atom+Function  
  ----- ------------  ---------------      ----- ------------  ---------------
    46     -1.500956  3 H  s                 11      1.487068  1 O  px         
     4      1.212127  1 O  s                 12      1.057772  1 O  py         
    52     -0.873953  3 H  py                32     -0.833931  2 H  s          
    37     -0.774764  2 H  px                38      0.440300  2 H  py         
    47      0.253366  3 H  s                  2      0.242608  1 O  s          

 Vector   15  Occ=0.000000D+00  E= 9.649210D-01  Symmetry=a
              MO Center=  2.4D-01,  1.7D-02, -3.1D-12, r^2= 2.2D+00
   Bfn.  Coefficient  Atom+Function         Bfn.  Coefficient  Atom+Function  
  ----- ------------  ---------------      ----- ------------  ---------------
    53     -1.108095  3 H  pz                13      1.081297  1 O  pz         
    39     -0.705144  2 H  pz         

 Vector   16  Occ=0.000000D+00  E= 1.061502D+00  Symmetry=a
              MO Center=  2.8D-01,  1.6D-01,  9.7D-12, r^2= 2.4D+00
   Bfn.  Coefficient  Atom+Function         Bfn.  Coefficient  Atom+Function  
  ----- ------------  ---------------      ----- ------------  ---------------
    46     -1.893099  3 H  s                  4      1.855526  1 O  s          
    12     -1.312281  1 O  py                11      1.233125  1 O  px         
    51      1.011014  3 H  px                37     -0.847905  2 H  px         
    52      0.705088  3 H  py                47     -0.390211  3 H  s          
    32      0.378192  2 H  s                  2     -0.259664  1 O  s          

 Vector   17  Occ=0.000000D+00  E= 1.100164D+00  Symmetry=a
              MO Center=  6.0D-03,  1.2D+00,  2.3D-11, r^2= 1.6D+00
   Bfn.  Coefficient  Atom+Function         Bfn.  Coefficient  Atom+Function  
  ----- ------------  ---------------      ----- ------------  ---------------
    38      1.226822  2 H  py                 4     -0.867434  1 O  s          
    46      0.652625  3 H  s                  2      0.621689  1 O  s          
    33     -0.541369  2 H  s                 47      0.490698  3 H  s          
    11     -0.464669  1 O  px                52      0.364913  3 H  py         
     9      0.325457  1 O  py                32      0.214803  2 H  s          

 Vector   18  Occ=0.000000D+00  E= 1.275215D+00  Symmetry=a
              MO Center= -1.3D-02,  1.4D-01,  4.8D-11, r^2= 2.3D+00
   Bfn.  Coefficient  Atom+Function         Bfn.  Coefficient  Atom+Function  
  ----- ------------  ---------------      ----- ------------  ---------------
     4      5.617433  1 O  s                 46     -3.076446  3 H  s          
    51      1.797415  3 H  px                11      1.356371  1 O  px         
    38      1.215456  2 H  py                52     -1.103328  3 H  py         
    32     -0.982971  2 H  s                  8      0.965451  1 O  px         
     2     -0.774589  1 O  s                 12      0.749052  1 O  py         


 Wrote Lagrangian and 1- and 2-particle density matrices to ./H2O.mcpdm


     Multipole analysis of the density
     ---------------------------------

     L   x y z        total        nuclear
     -   - - -        -----        -------
     0   0 0 0     -0.000000     10.000000

     1   1 0 0      0.550037     -0.000000
     1   0 1 0      0.417122      0.000000
     1   0 0 1      0.000000      0.000000

     2   2 0 0     -4.376938      2.679864
     2   1 1 0     -0.846524     -1.449452
     2   1 0 1     -0.000000      0.000000
     2   0 2 0     -3.049379      6.620291
     2   0 1 1     -0.000000      0.000000
     2   0 0 2     -5.783500      0.000000


  Mulliken analysis of the total density
  --------------------------------------

    Atom       Charge   Shell Charges
 -----------   ------   -------------------------------------------------------
    1 O    8     8.46   1.95  1.02  0.24  0.63  1.24  2.02  1.35  0.00  0.01  0.00
    2 H    1     0.78   0.16  0.42  0.16  0.00  0.04  0.00
    3 H    1     0.76   0.25  0.38  0.04  0.02  0.06  0.01

    Mulliken analysis of the active space density
    ---------------------------------------------

    Atom       Charge   Shell Charges
 -----------   ------   -------------------------------------------------------
    1 O    8     8.46   1.95  1.02  0.24  0.63  1.24  2.02  1.35  0.00  0.01  0.00
    2 H    1     0.78   0.16  0.42  0.16  0.00  0.04  0.00
    3 H    1     0.76   0.25  0.38  0.04  0.02  0.06  0.01

 Parallel integral file used      16 records with       0 large values


 Task  times  cpu:        7.7s     wall:       12.8s


                                NWChem Input Module
                                -------------------


                                 NWChem SCF Module
                                 -----------------


                                        H2O



  ao basis        = "ao basis"
  functions       =    58
  atoms           =     3
  closed shells   =     5
  open shells     =     0
  charge          =   0.00
  wavefunction    = RHF 
  input vectors   = ./h2o.mos
  output vectors  = ./h2o-trash.mos
  use symmetry    = F
  symmetry adapt  = F


 Summary of "ao basis" -> "ao basis" (spherical)
 ------------------------------------------------------------------------------
       Tag                 Description            Shells   Functions and Types
 ---------------- ------------------------------  ------  ---------------------
 O                          cc-pVTZ                 10       30   4s3p2d1f
 H                          cc-pVTZ                  6       14   3s2p1d



 Forming initial guess at      12.9s


 Loading old vectors from job with title :

H2O


 Starting SCF solution at      12.9s



 ----------------------------------------------
         Quadratically convergent ROHF

 Convergence threshold     :          1.000E-04
 Maximum no. of iterations :           30
 Final Fock-matrix accuracy:          1.000E-07
 ----------------------------------------------


 Integral file          = ./H2O.aoints.0
 Record size in doubles =  65536        No. of integs per rec  =  43688
 Max. records in memory =     49        Max. records in file   = 252492
 No. of bits per label  =      8        No. of bits per value  =     64


 #quartets = 3.213D+04 #integrals = 6.608D+05 #direct =  0.0% #cached =100.0%



       Final RHF  results 
       ------------------ 

         Total SCF energy =    -75.965319975519
      One-electron energy =   -120.337641773376
      Two-electron energy =     36.636227529265
 Nuclear repulsion energy =      7.736094268592

        Time for solution =      0.2s


             Final eigenvalues
             -----------------

              1      
    1  -20.5708
    2   -1.2937
    3   -0.6672
    4   -0.5420
    5   -0.5196
    6   -0.0477
    7   -0.0261
    8   -0.0152
    9    0.3161
   10    0.3403
   11    0.6068
   12    0.7424
   13    0.8048
   14    0.8378
   15    0.9649

                       ROHF Final Molecular Orbital Analysis
                       -------------------------------------

 Vector    2  Occ=2.000000D+00  E=-1.293723D+00
              MO Center= -2.9D-01, -1.8D-01,  7.2D-11, r^2= 4.2D-01
   Bfn.  Coefficient  Atom+Function         Bfn.  Coefficient  Atom+Function  
  ----- ------------  ---------------      ----- ------------  ---------------
     2      0.536924  1 O  s                  4      0.397245  1 O  s          

 Vector    3  Occ=2.000000D+00  E=-6.671604D-01
              MO Center= -6.3D-02, -9.4D-02, -7.4D-11, r^2= 6.5D-01
   Bfn.  Coefficient  Atom+Function         Bfn.  Coefficient  Atom+Function  
  ----- ------------  ---------------      ----- ------------  ---------------
    10      0.434849  1 O  pz                13      0.394480  1 O  pz         
     7      0.363458  1 O  pz         

 Vector    4  Occ=2.000000D+00  E=-5.419733D-01
              MO Center=  3.4D-01, -2.2D-01,  2.0D-12, r^2= 6.0D-01
   Bfn.  Coefficient  Atom+Function         Bfn.  Coefficient  Atom+Function  
  ----- ------------  ---------------      ----- ------------  ---------------
     8      0.344002  1 O  px                 5      0.287033  1 O  px         
    46      0.267350  3 H  s                 11      0.204354  1 O  px         
    45      0.184903  3 H  s          

 Vector    5  Occ=2.000000D+00  E=-5.195505D-01
              MO Center= -4.4D-02,  4.8D-01, -1.4D-13, r^2= 9.1D-01
   Bfn.  Coefficient  Atom+Function         Bfn.  Coefficient  Atom+Function  
  ----- ------------  ---------------      ----- ------------  ---------------
     9      0.333217  1 O  py                32      0.278382  2 H  s          
     6      0.264414  1 O  py                12      0.216146  1 O  py         
    31      0.150482  2 H  s          

 Vector    6  Occ=0.000000D+00  E=-4.765903D-02
              MO Center= -5.4D-02,  7.1D-01, -7.2D-13, r^2= 8.9D-01
   Bfn.  Coefficient  Atom+Function         Bfn.  Coefficient  Atom+Function  
  ----- ------------  ---------------      ----- ------------  ---------------
    32      0.514750  2 H  s                  9     -0.451783  1 O  py         
     6     -0.401037  1 O  py                31      0.237130  2 H  s          
     2     -0.192370  1 O  s                 33      0.189814  2 H  s          

 Vector    7  Occ=0.000000D+00  E=-2.608555D-02
              MO Center=  5.1D-01, -2.7D-01, -4.0D-12, r^2= 6.6D-01
   Bfn.  Coefficient  Atom+Function         Bfn.  Coefficient  Atom+Function  
  ----- ------------  ---------------      ----- ------------  ---------------
    46      0.656561  3 H  s                  5     -0.508288  1 O  px         
     8     -0.436385  1 O  px                45      0.301238  3 H  s          
     2     -0.283896  1 O  s                  4     -0.214936  1 O  s          

 Vector    8  Occ=0.000000D+00  E=-1.516508D-02
              MO Center=  3.8D-04, -6.4D-02, -8.6D-11, r^2= 1.3D+00
   Bfn.  Coefficient  Atom+Function         Bfn.  Coefficient  Atom+Function  
  ----- ------------  ---------------      ----- ------------  ---------------
    13      0.833258  1 O  pz                 7     -0.615182  1 O  pz         
    10     -0.331542  1 O  pz         

 Vector    9  Occ=0.000000D+00  E= 3.160995D-01
              MO Center=  9.0D-01, -4.7D-01,  2.1D-11, r^2= 4.0D+00
   Bfn.  Coefficient  Atom+Function         Bfn.  Coefficient  Atom+Function  
  ----- ------------  ---------------      ----- ------------  ---------------
    47      1.849329  3 H  s                  4     -1.562546  1 O  s          
    11     -0.733219  1 O  px                51     -0.500488  3 H  px         
    33      0.319919  2 H  s                 32     -0.268874  2 H  s          
    52      0.197149  3 H  py         

 Vector   10  Occ=0.000000D+00  E= 3.402533D-01
              MO Center= -8.3D-03,  1.4D+00, -3.4D-13, r^2= 4.4D+00
   Bfn.  Coefficient  Atom+Function         Bfn.  Coefficient  Atom+Function  
  ----- ------------  ---------------      ----- ------------  ---------------
    33      1.987119  2 H  s                 47     -1.165268  3 H  s          
    32     -0.953097  2 H  s                 12     -0.457026  1 O  py         
    46      0.297597  3 H  s                 11      0.170631  1 O  px         
    38     -0.166576  2 H  py         

 Vector   11  Occ=0.000000D+00  E= 6.067596D-01
              MO Center= -2.2D-01,  4.3D-01, -8.2D-12, r^2= 2.0D+00
   Bfn.  Coefficient  Atom+Function         Bfn.  Coefficient  Atom+Function  
  ----- ------------  ---------------      ----- ------------  ---------------
    46      2.433562  3 H  s                  4     -1.962472  1 O  s          
    11     -1.821841  1 O  px                51     -0.690683  3 H  px         
    12      0.386016  1 O  py                37     -0.358066  2 H  px         
    32      0.335316  2 H  s                 33     -0.240424  2 H  s          
    47      0.229874  3 H  s                  9      0.176168  1 O  py         

 Vector   12  Occ=0.000000D+00  E= 7.424095D-01
              MO Center=  7.9D-02, -4.2D-01,  2.5D-12, r^2= 2.2D+00
   Bfn.  Coefficient  Atom+Function         Bfn.  Coefficient  Atom+Function  
  ----- ------------  ---------------      ----- ------------  ---------------
    12      1.770185  1 O  py                46      1.329518  3 H  s          
    11     -1.081606  1 O  px                 4     -0.832871  1 O  s          
    32     -0.783545  2 H  s                 47      0.646557  3 H  s          
    33     -0.512601  2 H  s                 52      0.510476  3 H  py         
     9     -0.447612  1 O  py                51     -0.363156  3 H  px         

 Vector   13  Occ=0.000000D+00  E= 8.047828D-01
              MO Center=  2.0D-01,  6.7D-01,  9.5D-14, r^2= 1.9D+00
   Bfn.  Coefficient  Atom+Function         Bfn.  Coefficient  Atom+Function  
  ----- ------------  ---------------      ----- ------------  ---------------
    39      0.863722  2 H  pz                53     -0.654206  3 H  pz         

 Vector   14  Occ=0.000000D+00  E= 8.377631D-01
              MO Center= -3.1D-01, -2.8D-02, -5.4D-12, r^2= 2.4D+00
   Bfn.  Coefficient  Atom+Function         Bfn.  Coefficient  Atom+Function  
  ----- ------------  ---------------      ----- ------------  ---------------
    46     -1.500956  3 H  s                 11      1.487068  1 O  px         
     4      1.212127  1 O  s                 12      1.057772  1 O  py         
    52     -0.873953  3 H  py                32     -0.833931  2 H  s          
    37     -0.774764  2 H  px                38      0.440300  2 H  py         
    47      0.253366  3 H  s                  2      0.242608  1 O  s          

 Vector   15  Occ=0.000000D+00  E= 9.649210D-01
              MO Center=  2.4D-01,  1.7D-02, -3.1D-12, r^2= 2.2D+00
   Bfn.  Coefficient  Atom+Function         Bfn.  Coefficient  Atom+Function  
  ----- ------------  ---------------      ----- ------------  ---------------
    53     -1.108095  3 H  pz                13      1.081297  1 O  pz         
    39     -0.705144  2 H  pz         


 center of mass
 --------------
 x =  -0.07599894 y =  -0.08428844 z =   0.00000000

 moments of inertia (a.u.)
 ------------------
           6.834668201636           1.314209316827           0.000000000000
           1.314209316827           2.833002082974           0.000000000000
           0.000000000000           0.000000000000           9.667670284610

  Mulliken analysis of the total density
  --------------------------------------

    Atom       Charge   Shell Charges
 -----------   ------   -------------------------------------------------------
    1 O    8     8.47   1.95  1.02  0.24  0.63  1.22  2.03  1.36  0.00  0.01  0.00
    2 H    1     0.77   0.16  0.41  0.16  0.00  0.04  0.00
    3 H    1     0.75   0.25  0.38  0.04  0.02  0.06  0.01

       Multipole analysis of the density wrt the origin
       ------------------------------------------------

     L   x y z        total         open         nuclear
     -   - - -        -----         ----         -------
     0   0 0 0     -0.000000      0.000000     10.000000

     1   1 0 0      0.561327      0.000000     -0.000000
     1   0 1 0      0.448973      0.000000      0.000000
     1   0 0 1      0.000000      0.000000      0.000000

     2   2 0 0     -4.356606      0.000000      2.679864
     2   1 1 0     -0.863492      0.000000     -1.449452
     2   1 0 1     -0.000000      0.000000      0.000000
     2   0 2 0     -2.951956      0.000000      6.620291
     2   0 1 1     -0.000000      0.000000      0.000000
     2   0 0 2     -5.767715      0.000000      0.000000


 Parallel integral file used      16 records with       0 large values

                   NWChem Extensible Many-Electron Theory Module
                   ---------------------------------------------

              ======================================================
                   This portion of the program was automatically
                  generated by a Tensor Contraction Engine (TCE).
                  The development of this portion of the program
                 and TCE was supported by US Department of Energy,
                Office of Science, Office of Basic Energy Science.
                      TCE is a product of Battelle and PNNL.
              Please cite: S.Hirata, J.Phys.Chem.A 107, 9887 (2003).
              ======================================================

                                        H2O


            General Information
            -------------------
      Number of processors :     1
         Wavefunction type : Restricted Hartree-Fock
          No. of electrons :    10
           Alpha electrons :     5
            Beta electrons :     5
           No. of orbitals :   116
            Alpha orbitals :    58
             Beta orbitals :    58
        Alpha frozen cores :     0
         Beta frozen cores :     0
     Alpha frozen virtuals :     0
      Beta frozen virtuals :     0
         Spin multiplicity : singlet 
    Number of AO functions :    58
       Number of AO shells :    22
        Use of symmetry is : off
      Symmetry adaption is : off
         Schwarz screening : 0.10D-09

          Correlation Information
          -----------------------
          Calculation type : Coupled-cluster singles & doubles                           
   Perturbative correction : none                                                        
            Max iterations :      100
        Residual threshold : 0.10D-06
     T(0) DIIS level shift : 0.00D+00
     L(0) DIIS level shift : 0.00D+00
     T(1) DIIS level shift : 0.00D+00
     L(1) DIIS level shift : 0.00D+00
     T(R) DIIS level shift : 0.00D+00
     T(I) DIIS level shift : 0.00D+00
   CC-T/L Amplitude update :  5-th order DIIS
                I/O scheme : Global Array Library
        L-threshold :  0.10D-06
        EOM-threshold :  0.10D-06
 no EOMCCSD initial starts read in
 TCE RESTART OPTIONS
 READ_INT:   F
 WRITE_INT:  F
 READ_TA:    F
 WRITE_TA:   F
 READ_XA:    F
 WRITE_XA:   F
 READ_IN3:   F
 WRITE_IN3:  F
 SLICE:      F
 D4D5:       F
 quantumc:   F
 qrotation:  F
 pwtce:      F
 qducc:      T
 nacto:                         0
 nrotv:                         0
 nrot:                          0

            Memory Information
            ------------------
          Available GA space size is    1610609372 doubles
          Available MA space size is    1610609780 doubles

 Maximum block size        32 doubles

 tile_dim =     27

 Block   Spin    Irrep     Size     Offset   Alpha
 -------------------------------------------------
   1    alpha     a      5 doubles       0       1
   2    beta      a      5 doubles       5       1
   3    alpha     a     26 doubles      10       3
   4    alpha     a     27 doubles      36       4
   5    beta      a     26 doubles      63       3
   6    beta      a     27 doubles      89       4

 Global array virtual files algorithm will be used

 Parallel file system coherency ......... OK

 Integral file          = ./H2O.aoints.0
 Record size in doubles =  65536        No. of integs per rec  =  43688
 Max. records in memory =     49        Max. records in file   = 252492
 No. of bits per label  =      8        No. of bits per value  =     64


 #quartets = 3.213D+04 #integrals = 6.608D+05 #direct =  0.0% #cached =100.0%


 Fock matrix recomputed
 1-e file size   =             3364
 1-e file name   = ./H2O.f1
 Cpu & wall time / sec            0.2            0.2
 4-electron integrals stored in orbital form

 v2    file size   =          3631290
 4-index algorithm nr.  13 is used
 imaxsize =       30
 imaxsize ichop =        0
 Cpu & wall time / sec            2.8            2.8
 T1-number-of-tasks                    2

 t1 file size   =              265
 t1 file name   = ./H2O.t1
 t1 file handle =       -998
 T2-number-of-boxes                    7

 t2 file size   =           122900
 t2 file name   = ./H2O.t2
 t2 file handle =       -996
CCSD iterations
 ---------------------------------------------------------
 Iter          Residuum       Correlation     Cpu    Wall 
 ---------------------------------------------------------
NEW TASK SCHEDULING
CCSD_T1_NTS --- OK
CCSD_T2_NTS --- OK
    1   1.0118414445516  -0.4555196895184     0.4     0.4
    2   1.7381952088909  -0.0018182313901     0.4     0.4
    3   3.1495571094229  -0.8168034660123     0.5     0.5
    4   5.9408909960929   0.6102342749906     0.4     0.4
    5   9.4640575611934  -1.9647100738833     0.4     0.4
 MICROCYCLE DIIS UPDATE:                    5                    5
    6   0.0530594219093  -0.2946815057808     0.3     0.4
    7   0.0630649944195  -0.2948819423334     0.4     0.4
    8   0.1178731916752  -0.2932058165585     0.4     0.4
    9   0.2360383187550  -0.2897565061593     0.4     0.4
   10   0.4937999728674  -0.2299445630958     0.4     0.4
 MICROCYCLE DIIS UPDATE:                   10                    5
   11   0.0053840863060  -0.2971732472510     0.4     0.4
   12   0.0032946612451  -0.2970488941376     0.4     0.4
   13   0.0052774110851  -0.2974428684851     0.4     0.4
   14   0.0109249100594  -0.2966213362597     0.4     0.4
   15   0.0232288942283  -0.2985168912954     0.4     0.4
 MICROCYCLE DIIS UPDATE:                   15                    5
   16   0.0003464814399  -0.2972620084943     0.4     0.4
   17   0.0003201240468  -0.2972015412848     0.4     0.4
   18   0.0004941346520  -0.2973102783792     0.3     0.4
   19   0.0008714487366  -0.2971198004850     0.4     0.4
   20   0.0015906619188  -0.2974620287628     0.4     0.4
 MICROCYCLE DIIS UPDATE:                   20                    5
   21   0.0000488238346  -0.2972433944493     0.4     0.4
   22   0.0000542238223  -0.2972443715924     0.4     0.4
   23   0.0001032542732  -0.2972411818691     0.4     0.4
   24   0.0002135853462  -0.2972475963664     0.4     0.4
   25   0.0004470220859  -0.2972358065706     0.4     0.4
 MICROCYCLE DIIS UPDATE:                   25                    5
   26   0.0000073196551  -0.2972437639790     0.4     0.4
   27   0.0000066987211  -0.2972428629622     0.4     0.4
   28   0.0000105122337  -0.2972444207754     0.4     0.4
   29   0.0000186980892  -0.2972416600606     0.4     0.4
   30   0.0000349743760  -0.2972466755899     0.4     0.4
 MICROCYCLE DIIS UPDATE:                   30                    5
   31   0.0000012538520  -0.2972434444732     0.4     0.4
   32   0.0000010815108  -0.2972434675036     0.4     0.4
   33   0.0000018212930  -0.2972434084215     0.4     0.4
   34   0.0000036124648  -0.2972435289182     0.4     0.4
   35   0.0000074256808  -0.2972433345531     0.4     0.4
 MICROCYCLE DIIS UPDATE:                   35                    5
   36   0.0000002083072  -0.2972434643043     0.4     0.4
   37   0.0000001691198  -0.2972434439879     0.4     0.4
   38   0.0000002452101  -0.2972434760011     0.4     0.4
   39   0.0000004294641  -0.2972434189264     0.4     0.4
   40   0.0000008087978  -0.2972435226664     0.4     0.4
 MICROCYCLE DIIS UPDATE:                   40                    5
   41   0.0000000384966  -0.2972434553951     0.4     0.4
 -----------------------------------------------------------------
 Iterations converged
 CCSD correlation energy / hartree =        -0.297243455395078
 CCSD total energy / hartree       =       -76.262563430913929

 Singles contributions

 Doubles contributions
     6a   (alpha)     7a   (alpha) ---     4a   (alpha)     5a   (alpha)        0.0205172203
     6a   (alpha)     7a   (alpha) ---     5a   (alpha)     4a   (alpha)       -0.0205172203
     6a   (alpha)     8a   (alpha) ---     3a   (alpha)     5a   (alpha)        0.0276569881
     6a   (alpha)     8a   (alpha) ---     5a   (alpha)     3a   (alpha)       -0.0276569881
     7a   (alpha)     6a   (alpha) ---     4a   (alpha)     5a   (alpha)       -0.0205172203
     7a   (alpha)     6a   (alpha) ---     5a   (alpha)     4a   (alpha)        0.0205172203
     7a   (alpha)     8a   (alpha) ---     3a   (alpha)     4a   (alpha)        0.0262213028
     7a   (alpha)     8a   (alpha) ---     4a   (alpha)     3a   (alpha)       -0.0262213028
     8a   (alpha)     6a   (alpha) ---     3a   (alpha)     5a   (alpha)       -0.0276569881
     8a   (alpha)     6a   (alpha) ---     5a   (alpha)     3a   (alpha)        0.0276569881
     8a   (alpha)     7a   (alpha) ---     3a   (alpha)     4a   (alpha)       -0.0262213028
     8a   (alpha)     7a   (alpha) ---     4a   (alpha)     3a   (alpha)        0.0262213028
     6a   (alpha)     6a   (beta ) ---     5a   (alpha)     5a   (beta )       -0.1600143954
     6a   (alpha)     7a   (beta ) ---     5a   (alpha)     4a   (beta )       -0.0332460794
     6a   (alpha)     8a   (beta ) ---     5a   (alpha)     3a   (beta )       -0.0389391701
     7a   (alpha)     6a   (beta ) ---     4a   (alpha)     5a   (beta )       -0.0332460794
     7a   (alpha)     7a   (beta ) ---     4a   (alpha)     4a   (beta )       -0.0810070586
     7a   (alpha)     8a   (beta ) ---     4a   (alpha)     3a   (beta )       -0.0361088892
     8a   (alpha)     6a   (beta ) ---     3a   (alpha)     5a   (beta )       -0.0389391701
     8a   (alpha)     7a   (beta ) ---     3a   (alpha)     4a   (beta )       -0.0361088892
     8a   (alpha)     8a   (beta ) ---     3a   (alpha)     3a   (beta )       -0.0522780419
 Ground state specification:
 exp(T)|Ref>~(1+T)|Ref>
 ------- a(p)+/a(q) strings ----------

 singles norm

 doubles norm

 Reference string
  0.98743841425235745      :(1a)+ (2a)+ (3a)+ (4a)+ (5a)+ (1b)+ (2b)+ (3b)+ (4b)+ (5b)+ |0>

 Singles strings

 Doubles strings
 -0.15800436088535505      :(6a)+ (6b)+ (5b)  (5a)  (1a)+ (2a)+ (3a)+ (4a)+ (5a)+ (1b)+ (2b)+ (3b)+ (4b)+ (5b)+ |0>
 -------------------------------------
 enrep_tce =    7.7360942685920797     
  EHF(total)         =       -75.96531998
  Shift (HFtot-HFA)  =         0.00000000
 ALL OCCUPIED ORBITALS ARE ACTIVE IN DUCC --> NO SHIFT
 Number of active orbitals                    8
 Number of active alpha electrons                    5
 Number of active beta electrons                    5
  nos                    10
  nvs                   106
 noas                     5
 nobs                     5
 nvas                    53
 nvbs                    53
 nactv                     3
 DUCC MODEL =                     3
 NONHF =  T
 F-T1 correlation    =   -1.7522397495533528E-004
 V-T1-T1 correlation =    3.5034259515226037E-005
 V-T2 correlation    =  -0.29710326567985745     
 Total correlation   =  -0.29724345539529756     
 F-T1(Ext) correlation         =   -8.2878039260606175E-005
 V-T1(Ext)-T1(Ext) correlation =    3.7912748128692296E-006
 V-T2(Ext) correlation         =  -0.19206793531493246     
 Total Ext correlation         =  -0.19214702207938020     
1-BODY TIME =    1.359 SECONDS.
  HHHH TIME =    7.039 SECONDS.
  PPPP TIME =    0.000 SECONDS.
  HHHP TIME =    2.142 SECONDS.
  PPPH TIME =    0.339 SECONDS.
  HPHP TIME =    0.161 SECONDS.
  HHPP TIME =    1.088 SECONDS.
 ONE-BODY UNITARY CHECK
 TWO-BODY UNITARY CHECK
 TWO-BODY ANTISYMMETRY CHECK
 TRANSFORMED ~FOCK~ MATRIX
    1    1       -20.5267909920
    1    2        -1.1589519902
    1    4         0.0102686813
    1    5        -0.0003581995
    1    6         0.0019780038
    1    7         0.0026008702
    2    1        -1.1589519902
    2    2        -1.2456036167
    2    4        -0.2528083234
    2    5        -0.1438110685
    2    6         0.0003314469
    2    7         0.0027673062
    3    3        -0.5488212836
    3    8         0.0133879030
    4    1         0.0102686813
    4    2        -0.2528083234
    4    4        -0.7994640352
    4    5        -0.0176755842
    4    6         0.0021801713
    4    7         0.0057098225
    5    1        -0.0003581995
    5    2        -0.1438110685
    5    4        -0.0176755842
    5    5        -0.6126493990
    5    6         0.0132251353
    5    7         0.0018667939
    6    1         0.0019780038
    6    2         0.0003314469
    6    4         0.0021801713
    6    5         0.0132251353
    6    6         0.3379025131
    6    7        -0.0086586176
    7    1         0.0026008702
    7    2         0.0027673062
    7    4         0.0057098225
    7    5         0.0018667939
    7    6        -0.0086586176
    7    7         0.7809556284
    8    3         0.0133879030
    8    8         1.0894318019
 begin_one_electron_integrals
    1    1       -32.8355274677
    1    2        -0.9091439630
    1    4         0.1308509152
    1    5         0.0538438120
    1    6        -0.1635847885
    1    7        -0.2013458117
    2    1        -0.9091439630
    2    2        -7.7313819210
    2    4        -0.2600162443
    2    5        -0.0828041512
    2    6         0.2075806989
    2    7         0.0996008901
    3    3        -6.9210081497
    3    8         2.0627210458
    4    1         0.1308509152
    4    2        -0.2600162443
    4    4        -6.7137488449
    4    5        -0.0957694847
    4    6         0.0527940859
    4    7         1.9340377623
    5    1         0.0538438120
    5    2        -0.0828041512
    5    4        -0.0957694847
    5    5        -5.9489534808
    5    6         2.0245570506
    5    7        -0.0428668093
    6    1        -0.1635847885
    6    2         0.2075806989
    6    4         0.0527940859
    6    5         2.0245570506
    6    6        -5.7230626525
    6    7         0.0467391074
    7    1        -0.2013458117
    7    2         0.0996008901
    7    4         1.9340377623
    7    5        -0.0428668093
    7    6         0.0467391074
    7    7        -6.0401010724
    8    3         2.0627210458
    8    8        -5.3418601400
 end_one_electron_integrals
 begin_two_electron_integrals
    1    1    1    1        4.8135614278
    1    1    1    2       -0.2312970205
    1    1    1    4       -0.0891538620
    1    1    1    5       -0.0392398077
    1    1    1    6        0.1242816049
    1    1    1    7        0.1660218842
    1    2    1    1       -0.2312970205
    1    2    1    2        0.0275495250
    1    2    1    4        0.0025380011
    1    2    1    5        0.0002972140
    1    2    1    6       -0.0075514835
    1    2    1    7       -0.0079763549
    1    3    1    3        0.0253684118
    1    3    1    8       -0.0380545589
    1    4    1    1       -0.0891538620
    1    4    1    2        0.0025380011
    1    4    1    4        0.0197951039
    1    4    1    5        0.0017788155
    1    4    1    6       -0.0035305391
    1    4    1    7       -0.0332317951
    1    5    1    1       -0.0392398077
    1    5    1    2        0.0002972140
    1    5    1    4        0.0017788155
    1    5    1    5        0.0153353748
    1    5    1    6       -0.0233204440
    1    5    1    7       -0.0013553939
    1    6    1    1        0.1242816049
    1    6    1    2       -0.0075514835
    1    6    1    4       -0.0035305391
    1    6    1    5       -0.0233204440
    1    6    1    6        0.0361919855
    1    6    1    7        0.0040461945
    1    7    1    1        0.1660218842
    1    7    1    2       -0.0079763549
    1    7    1    4       -0.0332317951
    1    7    1    5       -0.0013553939
    1    7    1    6        0.0040461945
    1    7    1    7        0.0538913714
    1    8    1    3       -0.0380545589
    1    8    1    8        0.0520954256
    1    1    2    1       -0.2312970205
    1    1    2    2        1.0743789847
    1    1    2    4       -0.0056897987
    1    1    2    5       -0.0185002855
    1    1    2    6       -0.0458671302
    1    1    2    7       -0.0225296380
    1    2    2    1        0.0305309211
    1    2    2    2        0.0096070413
    1    2    2    4       -0.0038914480
    1    2    2    5       -0.0024470930
    1    2    2    6        0.0025258505
    1    2    2    7        0.0046656898
    1    3    2    3        0.0246571540
    1    3    2    8       -0.0202237074
    1    4    2    1        0.0023583509
    1    4    2    2       -0.0136156753
    1    4    2    4        0.0161305478
    1    4    2    5        0.0000499343
    1    4    2    6        0.0019317679
    1    4    2    7       -0.0158123299
    1    5    2    1        0.0002019160
    1    5    2    2       -0.0072958379
    1    5    2    4       -0.0000796847
    1    5    2    5        0.0142756157
    1    5    2    6       -0.0149960744
    1    5    2    7        0.0020024954
    1    6    2    1       -0.0076000892
    1    6    2    2        0.0136618149
    1    6    2    4        0.0013506701
    1    6    2    5       -0.0216321797
    1    6    2    6        0.0210076475
    1    6    2    7       -0.0042319472
    1    7    2    1       -0.0079560055
    1    7    2    2        0.0218614461
    1    7    2    4       -0.0266190961
    1    7    2    5        0.0020838229
    1    7    2    6       -0.0051840310
    1    7    2    7        0.0239256409
    1    8    2    3       -0.0369493500
    1    8    2    8        0.0260752793
    1    1    3    3        1.0321552849
    1    1    3    8       -0.5018280611
    1    2    3    3        0.0061389473
    1    2    3    8       -0.0026931253
    1    3    3    1        0.0278029901
    1    3    3    2        0.0241418286
    1    3    3    4        0.0051267736
    1    3    3    5        0.0025936794
    1    3    3    6       -0.0057215384
    1    3    3    7       -0.0072324285
    1    4    3    3       -0.0025042881
    1    4    3    8        0.0026882151
    1    5    3    3       -0.0007640031
    1    5    3    8        0.0006020975
    1    6    3    3        0.0036381312
    1    6    3    8       -0.0036137322
    1    7    3    3        0.0031778826
    1    7    3    8       -0.0045039643
    1    8    3    1       -0.0383021813
    1    8    3    2       -0.0363965750
    1    8    3    4       -0.0072340742
    1    8    3    5       -0.0037722569
    1    8    3    6        0.0072647455
    1    8    3    7        0.0090377462
    1    1    4    1       -0.0891538620
    1    1    4    2       -0.0056897987
    1    1    4    4        0.9014922722
    1    1    4    5        0.0195282987
    1    1    4    6       -0.0144001334
    1    1    4    7       -0.4595119506
    1    2    4    1        0.0023583509
    1    2    4    2       -0.0039026116
    1    2    4    4        0.0030524738
    1    2    4    5       -0.0006891794
    1    2    4    6        0.0016999843
    1    2    4    7       -0.0004771915
    1    3    4    3        0.0051421710
    1    3    4    8       -0.0030144856
    1    4    4    1        0.0211826228
    1    4    4    2        0.0157544152
    1    4    4    4        0.0081644443
    1    4    4    5        0.0015449510
    1    4    4    6       -0.0034307509
    1    4    4    7       -0.0050806885
    1    5    4    1        0.0018845559
    1    5    4    2       -0.0000006711
    1    5    4    4       -0.0005592766
    1    5    4    5        0.0029938281
    1    5    4    6       -0.0031251310
    1    5    4    7        0.0004113375
    1    6    4    1       -0.0034666646
    1    6    4    2        0.0012864938
    1    6    4    4        0.0038811424
    1    6    4    5       -0.0039035126
    1    6    4    6        0.0040244733
    1    6    4    7       -0.0032271782
    1    7    4    1       -0.0329226380
    1    7    4    2       -0.0261421908
    1    7    4    4       -0.0150864305
    1    7    4    5       -0.0018148791
    1    7    4    6        0.0043436777
    1    7    4    7        0.0049168428
    1    8    4    3       -0.0073113429
    1    8    4    8        0.0033180592
    1    1    5    1       -0.0392398077
    1    1    5    2       -0.0185002855
    1    1    5    4        0.0195282987
    1    1    5    5        0.7875176727
    1    1    5    6       -0.4340047197
    1    1    5    7        0.0076692233
    1    2    5    1        0.0002019160
    1    2    5    2       -0.0024730298
    1    2    5    4       -0.0006945139
    1    2    5    5        0.0036129688
    1    2    5    6       -0.0019756068
    1    2    5    7        0.0015050342
    1    3    5    3        0.0026007856
    1    3    5    8       -0.0014730963
    1    4    5    1        0.0018845559
    1    4    5    2        0.0001295139
    1    4    5    4        0.0015627324
    1    4    5    5       -0.0015801396
    1    4    5    6        0.0012577032
    1    4    5    7       -0.0017256716
    1    5    5    1        0.0163968470
    1    5    5    2        0.0138305837
    1    5    5    4        0.0029572845
    1    5    5    5        0.0039675688
    1    5    5    6       -0.0039340184
    1    5    5    7       -0.0040723761
    1    6    5    1       -0.0226702001
    1    6    5    2       -0.0209868033
    1    6    5    4       -0.0039290433
    1    6    5    5       -0.0058207235
    1    6    5    6        0.0016527673
    1    6    5    7        0.0052824299
    1    7    5    1       -0.0013518549
    1    7    5    2        0.0020496780
    1    7    5    4       -0.0017627246
    1    7    5    5        0.0031495990
    1    7    5    6       -0.0024529774
    1    7    5    7        0.0020903905
    1    8    5    3       -0.0037783338
    1    8    5    8        0.0014795062
    1    1    6    1        0.1242816049
    1    1    6    2       -0.0458671302
    1    1    6    4       -0.0144001334
    1    1    6    5       -0.4340047197
    1    1    6    6        0.9017562013
    1    1    6    7       -0.0102264519
    1    2    6    1       -0.0076000892
    1    2    6    2        0.0019983924
    1    2    6    4        0.0013615165
    1    2    6    5       -0.0012209185
    1    2    6    6        0.0022604236
    1    2    6    7       -0.0027251287
    1    3    6    3       -0.0053070310
    1    3    6    8        0.0056382522
    1    4    6    1       -0.0034666646
    1    4    6    2        0.0015515920
    1    4    6    4       -0.0033207464
    1    4    6    5        0.0016664335
    1    4    6    6       -0.0027735508
    1    4    6    7        0.0046236096
    1    5    6    1       -0.0226702001
    1    5    6    2       -0.0123689898
    1    5    6    4       -0.0026289240
    1    5    6    5       -0.0038525608
    1    5    6    6        0.0068618259
    1    5    6    7        0.0050238968
    1    6    6    1        0.0352631931
    1    6    6    2        0.0201312621
    1    6    6    4        0.0041224411
    1    6    6    5        0.0013969951
    1    6    6    6       -0.0087153097
    1    6    6    7       -0.0066525746
    1    7    6    1        0.0038797854
    1    7    6    2       -0.0049996578
    1    7    6    4        0.0044264114
    1    7    6    5       -0.0026226949
    1    7    6    6        0.0059186650
    1    7    6    7       -0.0065004644
    1    8    6    3        0.0074652110
    1    8    6    8       -0.0080097862
    1    1    7    1        0.1660218842
    1    1    7    2       -0.0225296380
    1    1    7    4       -0.4595119506
    1    1    7    5        0.0076692233
    1    1    7    6       -0.0102264519
    1    1    7    7        1.0619520423
    1    2    7    1       -0.0079560055
    1    2    7    2        0.0036907501
    1    2    7    4       -0.0002399829
    1    2    7    5        0.0012480747
    1    2    7    6       -0.0027395775
    1    2    7    7        0.0000117333
    1    3    7    3       -0.0068674950
    1    3    7    8        0.0074514815
    1    4    7    1       -0.0329226380
    1    4    7    2       -0.0135769475
    1    4    7    4       -0.0046205598
    1    4    7    5       -0.0015745565
    1    4    7    6        0.0045914166
    1    4    7    7        0.0087095036
    1    5    7    1       -0.0013518549
    1    5    7    2        0.0016474312
    1    5    7    4        0.0006275238
    1    5    7    5       -0.0041444257
    1    5    7    6        0.0051438312
    1    5    7    7       -0.0015651838
    1    6    7    1        0.0038797854
    1    6    7    2       -0.0039518111
    1    6    7    4       -0.0035990727
    1    6    7    5        0.0054057996
    1    6    7    6       -0.0066131934
    1    6    7    7        0.0073179466
    1    7    7    1        0.0533936259
    1    7    7    2        0.0235370237
    1    7    7    4        0.0045056829
    1    7    7    5        0.0022875774
    1    7    7    6       -0.0065415436
    1    7    7    7       -0.0151376995
    1    8    7    3        0.0092938498
    1    8    7    8       -0.0103798905
    1    1    8    3       -0.5018280611
    1    1    8    8        1.0229361822
    1    2    8    3       -0.0025632479
    1    2    8    8        0.0017799647
    1    3    8    1       -0.0383021813
    1    3    8    2       -0.0178106196
    1    3    8    4       -0.0028416096
    1    3    8    5       -0.0014372131
    1    3    8    6        0.0056818572
    1    3    8    7        0.0075044204
    1    4    8    3        0.0028264342
    1    4    8    8       -0.0040526078
    1    5    8    3        0.0007186720
    1    5    8    8       -0.0011523806
    1    6    8    3       -0.0041453637
    1    6    8    8        0.0053123393
    1    7    8    3       -0.0051933782
    1    7    8    8        0.0061651812
    1    8    8    1        0.0532106181
    1    8    8    2        0.0256280011
    1    8    8    4        0.0035310461
    1    8    8    5        0.0016270135
    1    8    8    6       -0.0081100836
    1    8    8    7       -0.0105110758
    2    1    1    1       -0.2312970205
    2    1    1    2        0.0305309211
    2    1    1    4        0.0023583509
    2    1    1    5        0.0002019160
    2    1    1    6       -0.0076000892
    2    1    1    7       -0.0079560055
    2    2    1    1        1.0743789847
    2    2    1    2        0.0096070413
    2    2    1    4       -0.0136156753
    2    2    1    5       -0.0072958379
    2    2    1    6        0.0136618149
    2    2    1    7        0.0218614461
    2    3    1    3        0.0246571540
    2    3    1    8       -0.0369493500
    2    4    1    1       -0.0056897987
    2    4    1    2       -0.0038914480
    2    4    1    4        0.0161305478
    2    4    1    5       -0.0000796847
    2    4    1    6        0.0013506701
    2    4    1    7       -0.0266190961
    2    5    1    1       -0.0185002855
    2    5    1    2       -0.0024470930
    2    5    1    4        0.0000499343
    2    5    1    5        0.0142756157
    2    5    1    6       -0.0216321797
    2    5    1    7        0.0020838229
    2    6    1    1       -0.0458671302
    2    6    1    2        0.0025258505
    2    6    1    4        0.0019317679
    2    6    1    5       -0.0149960744
    2    6    1    6        0.0210076475
    2    6    1    7       -0.0051840310
    2    7    1    1       -0.0225296380
    2    7    1    2        0.0046656898
    2    7    1    4       -0.0158123299
    2    7    1    5        0.0020024954
    2    7    1    6       -0.0042319472
    2    7    1    7        0.0239256409
    2    8    1    3       -0.0202237074
    2    8    1    8        0.0260752793
    2    1    2    1        0.0275495250
    2    1    2    2        0.0096070413
    2    1    2    4       -0.0039026116
    2    1    2    5       -0.0024730298
    2    1    2    6        0.0019983924
    2    1    2    7        0.0036907501
    2    2    2    1        0.0096070413
    2    2    2    2        0.8193429668
    2    2    2    4       -0.0488527282
    2    2    2    5       -0.0368487869
    2    2    2    6        0.0007101003
    2    2    2    7        0.0218000591
    2    3    2    3        0.1288898651
    2    3    2    8       -0.0509608665
    2    4    2    1       -0.0039026116
    2    4    2    2       -0.0488527282
    2    4    2    4        0.0855638248
    2    4    2    5       -0.0084159128
[...]
    7    7    4    1        0.0087095036
    7    7    4    2        0.0716452348
    7    7    4    4        0.7428544492
    7    7    4    5        0.0063677037
    7    7    4    6       -0.0022813401
    7    7    4    7       -0.1148165993
    7    8    4    3        0.0281205225
    7    8    4    8       -0.0057812085
    7    1    5    1       -0.0013553939
    7    1    5    2        0.0020838229
    7    1    5    4       -0.0018148791
    7    1    5    5        0.0031495990
    7    1    5    6       -0.0026226949
    7    1    5    7        0.0022875774
    7    2    5    1        0.0020024954
    7    2    5    2        0.0105765656
    7    2    5    4       -0.0021133682
    7    2    5    5       -0.0054819785
    7    2    5    6        0.0085314850
    7    2    5    7        0.0000968909
    7    3    5    3       -0.0006140255
    7    3    5    8        0.0005194027
    7    4    5    1        0.0004113375
    7    4    5    2       -0.0001430581
    7    4    5    4       -0.0079343601
    7    4    5    5       -0.1266296129
    7    4    5    6        0.0986469969
    7    4    5    7       -0.0044549797
    7    5    5    1       -0.0040723761
    7    5    5    2       -0.0097193147
    7    5    5    4       -0.0109317931
    7    5    5    5       -0.0001860185
    7    5    5    6       -0.0018293612
    7    5    5    7        0.0157574928
    7    6    5    1        0.0050238968
    7    6    5    2        0.0130757462
    7    6    5    4        0.0181933549
    7    6    5    5       -0.0004394302
    7    6    5    6       -0.0018332985
    7    6    5    7       -0.0163396231
    7    7    5    1       -0.0015651838
    7    7    5    2       -0.0147193322
    7    7    5    4        0.0063677037
    7    7    5    5        0.5151765316
    7    7    5    6       -0.1888691561
    7    7    5    7       -0.0031827243
    7    8    5    3        0.0025213567
    7    8    5    8        0.0006763851
    7    1    6    1        0.0040461945
    7    1    6    2       -0.0051840310
    7    1    6    4        0.0043436777
    7    1    6    5       -0.0024529774
    7    1    6    6        0.0059186650
    7    1    6    7       -0.0065415436
    7    2    6    1       -0.0042319472
    7    2    6    2       -0.0163688783
    7    2    6    4        0.0072304302
    7    2    6    5        0.0095817970
    7    2    6    6       -0.0066398135
    7    2    6    7       -0.0078743460
    7    3    6    3        0.0037686885
    7    3    6    8       -0.0018694095
    7    4    6    1       -0.0032271782
    7    4    6    2        0.0147863119
    7    4    6    4        0.0099223747
    7    4    6    5        0.0939523000
    7    4    6    6       -0.1502920901
    7    4    6    7        0.0059335460
    7    5    6    1        0.0052824299
    7    5    6    2        0.0090288897
    7    5    6    4        0.0136217336
    7    5    6    5       -0.0009325364
    7    5    6    6       -0.0020504642
    7    5    6    7       -0.0163396231
    7    6    6    1       -0.0066525746
    7    6    6    2       -0.0107074205
    7    6    6    4       -0.0180256937
    7    6    6    5       -0.0017470194
    7    6    6    6       -0.0020577795
    7    6    6    7        0.0239393352
    7    7    6    1        0.0073179466
    7    7    6    2       -0.0128652047
    7    7    6    4       -0.0022813401
    7    7    6    5       -0.1888691561
    7    7    6    6        0.5229568119
    7    7    6    7        0.0106036957
    7    8    6    3       -0.0022777264
    7    8    6    8        0.0047054700
    7    1    7    1        0.0538913714
    7    1    7    2        0.0239256409
    7    1    7    4        0.0049168428
    7    1    7    5        0.0020903905
    7    1    7    6       -0.0065004644
    7    1    7    7       -0.0151376995
    7    2    7    1        0.0239256409
    7    2    7    2        0.0555804310
    7    2    7    4        0.0162050237
    7    2    7    5       -0.0002572335
    7    2    7    6       -0.0078719438
    7    2    7    7       -0.0295749826
    7    3    7    3        0.0273417249
    7    3    7    8       -0.0174212249
    7    4    7    1        0.0049168428
    7    4    7    2        0.0162050237
    7    4    7    4        0.1969055403
    7    4    7    5       -0.0050757388
    7    4    7    6        0.0060284149
    7    4    7    7       -0.1148165993
    7    5    7    1        0.0020903905
    7    5    7    2       -0.0002572335
    7    5    7    4       -0.0050757388
    7    5    7    5        0.0183492574
    7    5    7    6       -0.0173266130
    7    5    7    7       -0.0031827243
    7    6    7    1       -0.0065004644
    7    6    7    2       -0.0078719438
    7    6    7    4        0.0060284149
    7    6    7    5       -0.0173266130
    7    6    7    6        0.0239393352
    7    6    7    7        0.0106036957
    7    7    7    1       -0.0151376995
    7    7    7    2       -0.0295749826
    7    7    7    4       -0.1148165993
    7    7    7    5       -0.0031827243
    7    7    7    6        0.0106036957
    7    7    7    7        0.7824344071
    7    8    7    3       -0.0174212249
    7    8    7    8        0.0297136771
    7    1    8    3       -0.0045039643
    7    1    8    8        0.0061651812
    7    2    8    3        0.0095373375
    7    2    8    8       -0.0107467871
    7    3    8    1        0.0090377462
    7    3    8    2        0.0117218609
    7    3    8    4        0.0167063126
    7    3    8    5        0.0003217100
    7    3    8    6       -0.0020117454
    7    3    8    7       -0.0176080885
    7    4    8    3        0.1124432679
    7    4    8    8       -0.1475155286
    7    5    8    3       -0.0029639487
    7    5    8    8        0.0030665081
    7    6    8    3        0.0036621940
    7    6    8    8       -0.0017157913
    7    7    8    3       -0.1684534421
    7    7    8    8        0.5761060665
    7    8    8    1       -0.0105110758
    7    8    8    2       -0.0075688441
    7    8    8    4       -0.0056029567
    7    8    8    5        0.0006199892
    7    8    8    6        0.0047054700
    7    8    8    7        0.0297136771
    8    1    1    3       -0.0383021813
    8    1    1    8        0.0532106181
    8    2    1    3       -0.0178106196
    8    2    1    8        0.0256280011
    8    3    1    1       -0.5018280611
    8    3    1    2       -0.0025632479
    8    3    1    4        0.0028264342
    8    3    1    5        0.0007186720
    8    3    1    6       -0.0041453637
    8    3    1    7       -0.0051933782
    8    4    1    3       -0.0028416096
    8    4    1    8        0.0035310461
    8    5    1    3       -0.0014372131
    8    5    1    8        0.0016270135
    8    6    1    3        0.0056818572
    8    6    1    8       -0.0081100836
    8    7    1    3        0.0075044204
    8    7    1    8       -0.0105110758
    8    8    1    1        1.0229361822
    8    8    1    2        0.0017799647
    8    8    1    4       -0.0040526078
    8    8    1    5       -0.0011523806
    8    8    1    6        0.0053123393
    8    8    1    7        0.0061651812
    8    1    2    3       -0.0363965750
    8    1    2    8        0.0256280011
    8    2    2    3       -0.0493339190
    8    2    2    8        0.0441298073
    8    3    2    1       -0.0026931253
    8    3    2    2       -0.2095357932
    8    3    2    4        0.0048523281
    8    3    2    5        0.0062211635
    8    3    2    6        0.0144114529
    8    3    2    7        0.0082893383
    8    4    2    3        0.0003787246
    8    4    2    8        0.0037675174
    8    5    2    3        0.0026305157
    8    5    2    8        0.0022082321
    8    6    2    3        0.0206261233
    8    6    2    8       -0.0069586886
    8    7    2    3        0.0249944047
    8    7    2    8       -0.0075688441
    8    8    2    1        0.0017799647
    8    8    2    2        0.6291347250
    8    8    2    4        0.0075916859
    8    8    2    5       -0.0008408944
    8    8    2    6       -0.0197979284
    8    8    2    7       -0.0107467871
    8    1    3    1       -0.0380545589
    8    1    3    2       -0.0369493500
    8    1    3    4       -0.0073113429
    8    1    3    5       -0.0037783338
    8    1    3    6        0.0074652110
    8    1    3    7        0.0092938498
    8    2    3    1       -0.0202237074
    8    2    3    2       -0.0509608665
    8    2    3    4       -0.0046351506
    8    2    3    5       -0.0015504536
    8    2    3    6        0.0105221017
    8    2    3    7        0.0115098686
    8    3    3    3       -0.2011640599
    8    3    3    8        0.1573087574
    8    4    3    1       -0.0030144856
    8    4    3    2        0.0005013216
    8    4    3    4       -0.0050328233
    8    4    3    5       -0.0002669926
    8    4    3    6        0.0015575898
    8    4    3    7        0.0166257598
    8    5    3    1       -0.0014730963
    8    5    3    2        0.0028977670
    8    5    3    4        0.0000400138
    8    5    3    5       -0.0042128233
    8    5    3    6        0.0120741225
    8    5    3    7        0.0005194027
    8    6    3    1        0.0056382522
    8    6    3    2        0.0208004407
    8    6    3    4        0.0044990759
    8    6    3    5        0.0190112221
    8    6    3    6       -0.0166099250
    8    6    3    7       -0.0018694095
    8    7    3    1        0.0074514815
    8    7    3    2        0.0252160307
    8    7    3    4        0.0281205225
    8    7    3    5        0.0025213567
    8    7    3    6       -0.0022777264
    8    7    3    7       -0.0174212249
    8    8    3    3        0.6431667306
    8    8    3    8       -0.1764506608
    8    1    4    3       -0.0072340742
    8    1    4    8        0.0035310461
    8    2    4    3       -0.0042236193
    8    2    4    8        0.0037675174
    8    3    4    1        0.0026882151
    8    3    4    2        0.0049388216
    8    3    4    4       -0.1414618779
    8    3    4    5       -0.0041007235
    8    3    4    6        0.0034720441
    8    3    4    7        0.1185949555
    8    4    4    3       -0.0044608388
    8    4    4    8        0.0167916479
    8    5    4    3       -0.0000037683
    8    5    4    8        0.0013319195
    8    6    4    3        0.0046726130
    8    6    4    8       -0.0002112453
    8    7    4    3        0.0274949395
    8    7    4    8       -0.0056029567
    8    8    4    1       -0.0040526078
    8    8    4    2        0.0075916859
    8    8    4    4        0.5585457764
    8    8    4    5        0.0082195887
    8    8    4    6       -0.0044605006
    8    8    4    7       -0.1475155286
    8    1    5    3       -0.0037722569
    8    1    5    8        0.0016270135
    8    2    5    3       -0.0013000222
    8    2    5    8        0.0022082321
    8    3    5    1        0.0006020975
    8    3    5    2        0.0064700661
    8    3    5    4       -0.0041918991
    8    3    5    5       -0.1190162997
    8    3    5    6        0.1095190356
    8    3    5    7       -0.0023030418
    8    4    5    3       -0.0003013651
    8    4    5    8        0.0013319195
    8    5    5    3       -0.0034180416
    8    5    5    8        0.0151090446
    8    6    5    3        0.0181904341
    8    6    5    8       -0.0055521122
    8    7    5    3        0.0027215697
    8    7    5    8        0.0006199892
    8    8    5    1       -0.0011523806
    8    8    5    2       -0.0008408944
    8    8    5    4        0.0082195887
    8    8    5    5        0.5051374945
    8    8    5    6       -0.1599105939
    8    8    5    7        0.0030665081
    8    1    6    3        0.0072647455
    8    1    6    8       -0.0081100836
    8    2    6    3        0.0108610477
    8    2    6    8       -0.0069586886
    8    3    6    1       -0.0036137322
    8    3    6    2        0.0153689166
    8    3    6    4        0.0027685488
    8    3    6    5        0.1064746682
    8    3    6    6       -0.1442582752
    8    3    6    7        0.0035054807
    8    4    6    3        0.0013098292
    8    4    6    8       -0.0002112453
    8    5    6    3        0.0125353820
    8    5    6    8       -0.0055521122
    8    6    6    3       -0.0164839590
    8    6    6    8        0.0202988403
    8    7    6    3       -0.0024969799
    8    7    6    8        0.0047054700
    8    8    6    1        0.0053123393
    8    8    6    2       -0.0197979284
    8    8    6    4       -0.0044605006
    8    8    6    5       -0.1599105939
    8    8    6    6        0.5167722606
    8    8    6    7       -0.0017157913
    8    1    7    3        0.0090377462
    8    1    7    8       -0.0105110758
    8    2    7    3        0.0117218609
    8    2    7    8       -0.0075688441
    8    3    7    1       -0.0045039643
    8    3    7    2        0.0095373375
    8    3    7    4        0.1124432679
    8    3    7    5       -0.0029639487
    8    3    7    6        0.0036621940
    8    3    7    7       -0.1684534421
    8    4    7    3        0.0167063126
    8    4    7    8       -0.0056029567
    8    5    7    3        0.0003217100
    8    5    7    8        0.0006199892
    8    6    7    3       -0.0020117454
    8    6    7    8        0.0047054700
    8    7    7    3       -0.0176080885
    8    7    7    8        0.0297136771
    8    8    7    1        0.0061651812
    8    8    7    2       -0.0107467871
    8    8    7    4       -0.1475155286
    8    8    7    5        0.0030665081
    8    8    7    6       -0.0017157913
    8    8    7    7        0.5761060665
    8    1    8    1        0.0520954256
    8    1    8    2        0.0260752793
    8    1    8    4        0.0033180592
    8    1    8    5        0.0014795062
    8    1    8    6       -0.0080097862
    8    1    8    7       -0.0103798905
    8    2    8    1        0.0260752793
    8    2    8    2        0.0492966140
    8    2    8    4        0.0034677982
    8    2    8    5        0.0018342310
    8    2    8    6       -0.0075251516
    8    2    8    7       -0.0082897921
    8    3    8    3        0.1498805886
    8    3    8    8       -0.1764506608
    8    4    8    1        0.0033180592
    8    4    8    2        0.0034677982
    8    4    8    4        0.0161617209
    8    4    8    5        0.0012553003
    8    4    8    6       -0.0001598464
    8    4    8    7       -0.0057812085
    8    5    8    1        0.0014795062
    8    5    8    2        0.0018342310
    8    5    8    4        0.0012553003
    8    5    8    5        0.0165165577
    8    5    8    6       -0.0057656525
    8    5    8    7        0.0006763851
    8    6    8    1       -0.0080097862
    8    6    8    2       -0.0075251516
    8    6    8    4       -0.0001598464
    8    6    8    5       -0.0057656525
    8    6    8    6        0.0202988403
    8    6    8    7        0.0047054700
    8    7    8    1       -0.0103798905
    8    7    8    2       -0.0082897921
    8    7    8    4       -0.0057812085
    8    7    8    5        0.0006763851
    8    7    8    6        0.0047054700
    8    7    8    7        0.0297136771
    8    8    8    3       -0.1764506608
    8    8    8    8        0.5943647477
 end_two_electron_integrals

 Parallel integral file used      16 records with       0 large values


 Task  times  cpu:       57.8s     wall:       61.6s


                                NWChem Input Module
                                -------------------


 Summary of allocated global arrays
-----------------------------------
  No active global arrays


MA_summarize_allocated_blocks: starting scan ...
MA_summarize_allocated_blocks: scan completed: 0 heap blocks, 0 stack blocks
MA usage statistics:

	allocation statistics:
					      heap	     stack
					      ----	     -----
	current number of blocks	         0	         0
	maximum number of blocks	        18	        42
	current total bytes		         0	         0
	maximum total bytes		  25775928	4725685688
	maximum total K-bytes		     25776	   4725686
	maximum total M-bytes		        26	      4726


                                     CITATION
                                     --------
                Please cite the following reference when publishing
                           results obtained with NWChem:

          E. Apra, E. J. Bylaska, W. A. de Jong, N. Govind, K. Kowalski,
       T. P. Straatsma, M. Valiev, H. J. J. van Dam, Y. Alexeev, J. Anchell,
       V. Anisimov, F. W. Aquino, R. Atta-Fynn, J. Autschbach, N. P. Bauman,
     J. C. Becca, D. E. Bernholdt, K. Bhaskaran-Nair, S. Bogatko, P. Borowski,
         J. Boschen, J. Brabec, A. Bruner, E. Cauet, Y. Chen, G. N. Chuev,
      C. J. Cramer, J. Daily, M. J. O. Deegan, T. H. Dunning Jr., M. Dupuis,
   K. G. Dyall, G. I. Fann, S. A. Fischer, A. Fonari, H. Fruchtl, L. Gagliardi,
      J. Garza, N. Gawande, S. Ghosh, K. Glaesemann, A. W. Gotz, J. Hammond,
       V. Helms, E. D. Hermes, K. Hirao, S. Hirata, M. Jacquelin, L. Jensen,
   B. G. Johnson, H. Jonsson, R. A. Kendall, M. Klemm, R. Kobayashi, V. Konkov,
      S. Krishnamoorthy, M. Krishnan, Z. Lin, R. D. Lins, R. J. Littlefield,
      A. J. Logsdail, K. Lopata, W. Ma, A. V. Marenich, J. Martin del Campo,
   D. Mejia-Rodriguez, J. E. Moore, J. M. Mullin, T. Nakajima, D. R. Nascimento,
    J. A. Nichols, P. J. Nichols, J. Nieplocha, A. Otero-de-la-Roza, B. Palmer,
    A. Panyala, T. Pirojsirikul, B. Peng, R. Peverati, J. Pittner, L. Pollack,
   R. M. Richard, P. Sadayappan, G. C. Schatz, W. A. Shelton, D. W. Silverstein,
   D. M. A. Smith, T. A. Soares, D. Song, M. Swart, H. L. Taylor, G. S. Thomas,
            V. Tipparaju, D. G. Truhlar, K. Tsemekhman, T. Van Voorhis,
      A. Vazquez-Mayagoitia, P. Verma, O. Villa, A. Vishnu, K. D. Vogiatzis,
        D. Wang, J. H. Weare, M. J. Williamson, T. L. Windus, K. Wolinski,
        A. T. Wong, Q. Wu, C. Yang, Q. Yu, M. Zacharias, Z. Zhang, Y. Zhao,
                                and R. J. Harrison
                        "NWChem: Past, present, and future
                         J. Chem. Phys. 152, 184102 (2020)
                               doi:10.1063/5.0004997

                                      AUTHORS
                                      -------
  E. Apra, E. J. Bylaska, N. Govind, K. Kowalski, M. Valiev, D. Mejia-Rodriguez,
       A. Kunitsa, N. P. Bauman, A. Panyala, W. A. de Jong, T. P. Straatsma,
        H. J. J. van Dam, D. Wang, T. L. Windus, J. Hammond, J. Autschbach,
    K. Bhaskaran-Nair, J. Brabec, K. Lopata, S. A. Fischer, S. Krishnamoorthy,
     M. Jacquelin, W. Ma, M. Klemm, O. Villa, Y. Chen, V. Anisimov, F. Aquino,
    S. Hirata, M. T. Hackler, Eric Hermes, L. Jensen, J. E. Moore, J. C. Becca,
      V. Konjkov, T. Risthaus, M. Malagoli, A. Marenich, A. Otero-de-la-Roza,
        J. Mullin, P. Nichols, R. Peverati, J. Pittner, Y. Zhao, P.-D. Fan,
        A. Fonari, M. J. Williamson, R. J. Harrison, J. R. Rehr, M. Dupuis,
     D. Silverstein, D. M. A. Smith, J. Nieplocha, V. Tipparaju, M. Krishnan,
     B. E. Van Kuiken, A. Vazquez-Mayagoitia, M. Swart, Q. Wu, T. Van Voorhis,
     A. A. Auer, M. Nooijen, L. D. Crosby, E. Brown, G. Cisneros, G. I. Fann,
   H. Fruchtl, J. Garza, K. Hirao, R. A. Kendall, J. A. Nichols, K. Tsemekhman,
    K. Wolinski, J. Anchell, D. E. Bernholdt, P. Borowski, T. Clark, D. Clerc,
   H. Dachsel, M. J. O. Deegan, K. Dyall, D. Elwood, E. Glendening, M. Gutowski,
   A. C. Hess, J. Jaffe, B. G. Johnson, J. Ju, R. Kobayashi, R. Kutteh, Z. Lin,
   R. Littlefield, X. Long, B. Meng, T. Nakajima, S. Niu, L. Pollack, M. Rosing,
   K. Glaesemann, G. Sandrone, M. Stave, H. Taylor, G. Thomas, J. H. van Lenthe,
                               A. T. Wong, Z. Zhang.

 Total times  cpu:       65.5s     wall:       74.4s
